<LesHouchesEvents version="3.0">
<!--
file generated with POWHEG-BOX-V2
Input file powheg.input contained:
! ggHH production parameters:
mtdep 2              ! 0: Higgs effective field theory (HEFT)

hmass 125            ! Higgs boson mass
topmass 173          ! top quark mass (THIS VALUE IS HARD CODED IN THE VIRTUAL
hdecaymode -1        ! PDG code for Higgs boson decay products (it affects only the SMC)
!                      allowed values are:
!                      0 all decay channels open
!                      1-6 d dbar, u ubar,..., t tbar (as in HERWIG)
!                      7-9 e+ e-, mu+ mu-, tau+ tau-
!                      10  W+W-
!                      11  ZZ
!                      12  gamma gamma
!                      -1  all decay channels closed

! general parameters:
numevts  3000        ! number of events to be generated
ih1         1        ! hadron 1 (1 for protons, -1 for antiprotons)
ih2         1        ! hadron 2 (1 for protons, -1 for antiprotons)
ebeam1 7000d0        ! energy of beam 1
ebeam2 7000d0        ! energy of beam 2
! To be set only if using LHA pdfs
lhans1 90200         ! pdf set for hadron 1 (LHA numbering)
lhans2 90200 	     ! pdf set for hadron 2 (LHA numbering)
! To be set only if using internal mlm pdf
# ndns1 131          ! pdf set for hadron 1 (mlm numbering)
# ndns2 131          ! pdf set for hadron 2 (mlm numbering)
! To be set only if using different pdf sets for the two incoming hadrons
! QCDLambda5 0.25    ! for not equal pdf sets

! Parameters to allow or not the use of stored data
use-old-grid    1    ! if 1 use old grid if file pwggrids.dat is present (<> 1 regenerate)
use-old-ubound  1    ! if 1 use norm of upper bounding function stored in pwgubound.dat, if present;
!
ncall1  10000        ! number of calls for initializing the integration grid
itmx1       3        ! number of iterations for initializing the integration grid
ncall2  10000        ! number of calls for computing the integral and finding upper bound
itmx2       3        ! number of iterations for computing the integral and finding upper bound
foldcsi     1        ! number of folds on csi integration
foldy       1        ! number of folds on  y  integration
foldphi     1        ! number of folds on phi integration
nubound 10000        ! number of bbarra calls to setup norm of upper bounding function
# icsimax   1        ! <= 100, number of csi subdivision when computing the upper bounds
# iymax     1        ! <= 100, number of y subdivision when computing the upper bounds
# xupbound 2d0       ! increase upper bound for radiation generation

! OPTIONAL PARAMETERS

! scale settings:
#fixedscale   1      ! (dafault 0) Use muren = mufac = 2*m_H
facscfact   1d0      ! (default 1d0) fac scale factor: mufact = muref * facscfact
renscfact   1d0      ! (default 1d0) ren scale factor: muren  = muref * renscfact

! Born, plots and powheg strategy:
#bornonly         1  ! (default 0) if 1 do Born only
# testplots 1
fastbtlbound      1  ! fast evaluation of Btilde upper bounds
storemintupb      1  ! store function calls in binary file for more precise generation
ubexcess_correct  1  ! corrects for error in upper bound estimate
storeinfo_rwgt    1  ! store info to allow for reweighting
softtest          0  ! no check of the soft limit in the real
colltest          0  ! no check of the collinear limit in the real

! PARAMETERS needed for ggHH
hdamp           250

! PARAMETERS for parallel runnning
! -- non parallel (for testing purposes only)
#iseed    547        !  Start the random number generator with seed iseed
#rand1     0         !  skipping  rand2*100000000+rand1 numbers.
#rand2     0         !  (see RM48 short writeup in CERNLIB)

! -- parallel
manyseeds 1          ! Used to perform multiple runs with different random
                     ! seeds in the same directory.
                     ! If set to 1, the program asks for an integer j;
                     ! The file pwgseeds.dat at line j is read, and the
                     ! integer at line j is used to initialize the random
                     ! sequence for the generation of the event.
                     ! The event file is called pwgevents-'j'.lhe
parallelstage 4
xgriditeration 1
maxseeds    1000

! PARAMETERS for reweighting
#rwl_file 'reweight_setup.xml'


! PARAMETERS for Pythia8
#py8tune  xxx
#py8hepmc 1
#py8nohad 1
#py8nompi 1
End of powheg.input content
PDF package: lha
 Random number generator initialized with:            4             0             0
-->
<init>
     2212     2212  7.00000E+03  7.00000E+03     -1     -1     -1     -1     -4      1
  3.38081E-02  5.61572E-05  1.00000E+00   9999
</init>
<event>
      5   9999  3.79277E-02  2.31707E+01 -1.00000E+00  1.61263E-01
      21    -1     0     0   511   501  0.000000000E+00  0.000000000E+00  3.968819402E+02  3.968819402E+02  0.000000000E+00  0.00000E+00  9.000E+00
      21    -1     0     0   501   502  0.000000000E+00  0.000000000E+00 -1.719040248E+02  1.719040248E+02  0.000000000E+00  0.00000E+00  9.000E+00
      25     1     1     2     0     0  7.247351700E+01  1.486461572E+02 -3.306441808E+01  2.099198572E+02  1.250000000E+02  0.00000E+00  9.000E+00
      25     1     1     2     0     0 -7.698257624E+01 -1.713738584E+02  2.264461385E+02  3.196844851E+02  1.250000000E+02  0.00000E+00  9.000E+00
      21     1     1     2   511   502  4.509059243E+00  2.272770119E+01  3.159619509E+01  3.918162274E+01  4.768371582E-07  0.00000E+00  9.000E+00
#rwgt            1           1   3.3642493897130164E-002           4          16           0
</event>
<event>
      5   9999  3.79277E-02  1.81831E+01 -1.00000E+00  1.69856E-01
      21    -1     0     0   512   501  0.000000000E+00  0.000000000E+00  7.072253418E+01  7.072253418E+01  0.000000000E+00  0.00000E+00  9.000E+00
      21    -1     0     0   501   502  0.000000000E+00  0.000000000E+00 -3.273443954E+02  3.273443954E+02  0.000000000E+00  0.00000E+00  9.000E+00
      25     1     1     2     0     0 -5.274749295E+01  3.268165338E+00 -7.117718428E+01  1.532454583E+02  1.250000000E+02  0.00000E+00  9.000E+00
      25     1     1     2     0     0  5.392246845E+01  1.487695478E+01 -1.793262203E+02  2.256365433E+02  1.250000000E+02  0.00000E+00  9.000E+00
      21     1     1     2   512   502 -1.174975501E+00 -1.814512012E+01 -6.118456663E+00  1.918492803E+01  2.665600750E-07  0.00000E+00  9.000E+00
#rwgt            1           1   5.7642083828417512E-002           4         179           0
</event>
<event>
      5   9999  3.79277E-02  5.63738E+01 -1.00000E+00  1.36166E-01
      21    -1     0     0   502   501  0.000000000E+00  0.000000000E+00  2.824576612E+02  2.824576612E+02  0.000000000E+00  0.00000E+00  9.000E+00
       2    -1     0     0   501     0  0.000000000E+00  0.000000000E+00 -7.733565790E+02  7.733565790E+02  0.000000000E+00  0.00000E+00  9.000E+00
      25     1     1     2     0     0 -1.600571052E+02 -1.816567828E+01  2.839645594E+01  2.058631281E+02  1.250000000E+02  0.00000E+00  9.000E+00
      25     1     1     2     0     0  1.448812296E+02 -3.612707583E+01  1.062756725E+02  2.218451146E+02  1.250000000E+02  0.00000E+00  9.000E+00
       2     1     1     2   502     0  1.517587553E+01  5.429275412E+01 -6.255710461E+02  6.281059975E+02  7.629394531E-06  0.00000E+00  9.000E+00
#rwgt            1           1   4.0297036023645254E-002           4         350           0
</event>
<event>
      5   9999  3.79277E-02  2.85903E+01 -1.00000E+00  1.54506E-01
      21    -1     0     0   502   511  0.000000000E+00  0.000000000E+00  3.099512560E+02  3.099512560E+02  0.000000000E+00  0.00000E+00  9.000E+00
      21    -1     0     0   501   502  0.000000000E+00  0.000000000E+00 -1.904990684E+02  1.904990684E+02  0.000000000E+00  0.00000E+00  9.000E+00
      25     1     1     2     0     0  1.526375852E+02  3.943347075E+01 -7.186493090E+01  2.136417547E+02  1.250000000E+02  0.00000E+00  9.000E+00
      25     1     1     2     0     0 -1.254585349E+02 -3.056205433E+01  1.841931376E+02  2.573441180E+02  1.250000000E+02  0.00000E+00  9.000E+00
      21     1     1     2   501   511 -2.717905035E+01 -8.871416420E+00  7.123980877E+00  2.946445165E+01  4.042583694E-07  0.00000E+00  9.000E+00
#rwgt            1           1   3.3432941803765666E-002           4         510           0
</event>
<event>
      5   9999  3.79277E-02  7.94479E+01 -1.00000E+00  1.28495E-01
       4    -1     0     0   502     0  0.000000000E+00  0.000000000E+00  5.362208006E+02  5.362208006E+02  0.000000000E+00  0.00000E+00  9.000E+00
      21    -1     0     0   501   502  0.000000000E+00  0.000000000E+00 -4.017520627E+02  4.017520627E+02  0.000000000E+00  0.00000E+00  9.000E+00
      25     1     1     2     0     0 -8.844997450E+01  3.070206704E+01 -5.604684919E+01  1.659284913E+02  1.250000000E+02  0.00000E+00  9.000E+00
      25     1     1     2     0     0  8.224525373E+01 -1.099073341E+02 -2.572705119E+02  3.172649053E+02  1.250000000E+02  0.00000E+00  9.000E+00
       4     1     1     2   501     0  6.204720766E+00  7.920526702E+01  4.477860990E+02  4.547794668E+02  5.394796609E-06  0.00000E+00  9.000E+00
#rwgt            1           1   3.1835066006431434E-002           4         734           0
</event>
<event>
      5   9999  3.79277E-02  5.80258E+01 -1.00000E+00  1.35484E-01
      21    -1     0     0   502   501  0.000000000E+00  0.000000000E+00  5.651309170E+02  5.651309170E+02  0.000000000E+00  0.00000E+00  9.000E+00
      21    -1     0     0   511   502  0.000000000E+00  0.000000000E+00 -5.918383519E+02  5.918383519E+02  0.000000000E+00  0.00000E+00  9.000E+00
      25     1     1     2     0     0 -3.201390480E+01 -9.829977603E+01  3.903317930E+02  4.226956880E+02  1.250000000E+02  0.00000E+00  9.000E+00
      25     1     1     2     0     0  2.290527658E+01  4.099337017E+01  1.287015245E+02  1.854567079E+02  1.250000000E+02  0.00000E+00  9.000E+00
      21     1     1     2   511   501  9.108628217E+00  5.730640586E+01 -5.457407524E+02  5.488168730E+02  0.000000000E+00  0.00000E+00  9.000E+00
#rwgt            1           1   4.9833745979696052E-002           4         787           0
</event>
<event>
      5   9999  3.79277E-02  5.04444E+01 -1.00000E+00  1.38857E-01
      21    -1     0     0   502   512  0.000000000E+00  0.000000000E+00  2.395499859E+02  2.395499859E+02  0.000000000E+00  0.00000E+00  9.000E+00
      21    -1     0     0   501   502  0.000000000E+00  0.000000000E+00 -2.401857386E+02  2.401857386E+02  0.000000000E+00  0.00000E+00  9.000E+00
      25     1     1     2     0     0 -9.600969525E+01 -1.074156945E+02 -1.374296579E+01  1.912324818E+02  1.250000000E+02  0.00000E+00  9.000E+00
      25     1     1     2     0     0  1.280596008E+02  1.463699992E+02 -1.328745982E+01  2.315707119E+02  1.250000000E+02  0.00000E+00  9.000E+00
      21     1     1     2   501   512 -3.204990554E+01 -3.895430469E+01  2.639467298E+01  5.693253077E+01  1.215700987E-06  0.00000E+00  9.000E+00
#rwgt            1           1   3.5711215107673867E-002           4         874           0
</event>
<event>
      5   9999  3.79277E-02  5.64959E+00 -1.00000E+00  2.29609E-01
      21    -1     0     0   502   511  0.000000000E+00  0.000000000E+00  7.515451632E+02  7.515451632E+02  0.000000000E+00  0.00000E+00  9.000E+00
      21    -1     0     0   501   502  0.000000000E+00  0.000000000E+00 -1.313235454E+02  1.313235454E+02  0.000000000E+00  0.00000E+00  9.000E+00
      25     1     1     2     0     0 -1.176774285E+02 -1.405167615E+02  3.322695883E+02  3.995259901E+02  1.250000000E+02  0.00000E+00  9.000E+00
      25     1     1     2     0     0  1.230327033E+02  1.423164466E+02  3.292650087E+01  2.282546199E+02  1.250000000E+02  0.00000E+00  9.000E+00
      21     1     1     2   501   511 -5.355274809E+00 -1.799685075E+00  2.550255286E+02  2.550880986E+02  0.000000000E+00  0.00000E+00  9.000E+00
#rwgt            1           1   4.2164183711745656E-002           4         959           0
</event>
<event>
      5   9999  3.79277E-02  6.83420E+01 -1.00000E+00  1.31750E-01
      21    -1     0     0   502   512  0.000000000E+00  0.000000000E+00  1.144212789E+03  1.144212789E+03  0.000000000E+00  0.00000E+00  9.000E+00
      21    -1     0     0   501   502  0.000000000E+00  0.000000000E+00 -1.160601711E+02  1.160601711E+02  0.000000000E+00  0.00000E+00  9.000E+00
      25     1     1     2     0     0 -1.744903043E+01  1.294775289E+02 -2.498187325E+01  1.825321702E+02  1.250000000E+02  0.00000E+00  9.000E+00
      25     1     1     2     0     0  8.801889146E+00 -6.168483348E+01  8.896454075E+02  9.005423049E+02  1.250000000E+02  0.00000E+00  9.000E+00
      21     1     1     2   501   512  8.647141284E+00 -6.779269540E+01  1.634890838E+02  1.771984851E+02  1.907348633E-06  0.00000E+00  9.000E+00
#rwgt            1           1   4.5304728344857527E-002           4        1419           0
</event>
<event>
      5   9999  3.79277E-02  5.86236E+01 -1.00000E+00  1.35244E-01
      21    -1     0     0   502   501  0.000000000E+00  0.000000000E+00  8.350570606E+02  8.350570606E+02  0.000000000E+00  0.00000E+00  9.000E+00
       2    -1     0     0   501     0  0.000000000E+00  0.000000000E+00 -1.116111216E+03  1.116111216E+03  0.000000000E+00  0.00000E+00  9.000E+00
      25     1     1     2     0     0 -1.323484679E+02  2.554762539E+01  1.336791605E+02  2.272969777E+02  1.250000000E+02  0.00000E+00  9.000E+00
      25     1     1     2     0     0  7.441753493E+01 -3.453252854E+01  6.452102027E+02  6.623078368E+02  1.250000000E+02  0.00000E+00  9.000E+00
       2     1     1     2   502     0  5.793093300E+01  8.984903153E+00 -1.059943519E+03  1.061563463E+03  2.157918644E-05  0.00000E+00  9.000E+00
#rwgt            1           1   4.4239901274671443E-002           4        1580           0
</event>
<event>
      5   9999  3.79277E-02  1.38637E+01 -1.00000E+00  1.80668E-01
      21    -1     0     0   502   511  0.000000000E+00  0.000000000E+00  1.334838215E+03  1.334838215E+03  0.000000000E+00  0.00000E+00  9.000E+00
      21    -1     0     0   501   502  0.000000000E+00  0.000000000E+00 -6.076059897E+01  6.076059897E+01  0.000000000E+00  0.00000E+00  9.000E+00
      25     1     1     2     0     0  1.961933888E+02  3.899529874E+00  9.014995734E+02  9.310389536E+02  1.250000000E+02  0.00000E+00  9.000E+00
      25     1     1     2     0     0 -1.870205991E+02 -1.429484366E+01  2.325976279E+02  3.238945871E+02  1.250000000E+02  0.00000E+00  9.000E+00
      21     1     1     2   501   511 -9.172789725E+00  1.039531379E+01  1.399804142E+02  1.406652728E+02  0.000000000E+00  0.00000E+00  9.000E+00
#rwgt            1           1   3.6057015002570206E-002           4        1681           0
</event>
<event>
      5   9999  3.79277E-02  6.95497E+00 -1.00000E+00  2.15951E-01
      21    -1     0     0   512   501  0.000000000E+00  0.000000000E+00  5.709341059E+02  5.709341059E+02  0.000000000E+00  0.00000E+00  9.000E+00
      21    -1     0     0   501   502  0.000000000E+00  0.000000000E+00 -4.515071373E+02  4.515071373E+02  0.000000000E+00  0.00000E+00  9.000E+00
      25     1     1     2     0     0 -1.337420916E+02 -8.198494655E+01 -2.042203459E+02  2.862506388E+02  1.250000000E+02  0.00000E+00  9.000E+00
      25     1     1     2     0     0  1.331879477E+02  8.891780458E+01 -1.562208499E+02  2.562720417E+02  1.250000000E+02  0.00000E+00  9.000E+00
      21     1     1     2   512   502  5.541438836E-01 -6.932858035E+00  4.798681644E+02  4.799185627E+02  0.000000000E+00  0.00000E+00  9.000E+00
#rwgt            1           1   3.4109840931198461E-002           4        1964           0
</event>
<event>
      5   9999  3.79277E-02  1.89476E+02 -1.00000E+00  1.12509E-01
      21    -1     0     0   502   511  0.000000000E+00  0.000000000E+00  4.472113754E+02  4.472113754E+02  0.000000000E+00  0.00000E+00  9.000E+00
      21    -1     0     0   501   502  0.000000000E+00  0.000000000E+00 -4.122860917E+02  4.122860917E+02  0.000000000E+00  0.00000E+00  9.000E+00
      25     1     1     2     0     0 -3.448055649E+01  1.466891048E+02  1.470039884E+02  2.448300938E+02  1.250000000E+02  0.00000E+00  9.000E+00
      25     1     1     2     0     0  4.601936783E+01 -3.358132310E+02 -1.918927184E+02  4.090673828E+02  1.250000000E+02  0.00000E+00  9.000E+00
      21     1     1     2   501   511 -1.153881134E+01  1.891241262E+02  7.981401370E+01  2.055999904E+02  4.046097457E-06  0.00000E+00  9.000E+00
#rwgt            1           1  0.10339467925888811                4        2316           0
</event>
<event>
      5   9999  3.79277E-02  1.24305E+02 -1.00000E+00  1.19722E-01
      21    -1     0     0   502   512  0.000000000E+00  0.000000000E+00  1.864185132E+02  1.864185132E+02  0.000000000E+00  0.00000E+00  9.000E+00
      21    -1     0     0   501   502  0.000000000E+00  0.000000000E+00 -7.224211387E+02  7.224211387E+02  0.000000000E+00  0.00000E+00  9.000E+00
      25     1     1     2     0     0  1.674466526E+02 -7.492499643E+01 -7.723520486E+01  2.350370469E+02  1.250000000E+02  0.00000E+00  9.000E+00
      25     1     1     2     0     0 -2.181047804E+02 -3.858978669E+01 -4.841917929E+02  5.469237234E+02  1.250000000E+02  0.00000E+00  9.000E+00
      21     1     1     2   501   512  5.065812780E+01  1.135147831E+02  2.542437225E+01  1.268788816E+02  3.162979880E-06  0.00000E+00  9.000E+00
#rwgt            1           1   4.2454137805651382E-002           4        2517           0
</event>
<event>
      5   9999  3.79277E-02  6.56881E+01 -1.00000E+00  1.32634E-01
      21    -1     0     0   502   501  0.000000000E+00  0.000000000E+00  5.699850221E+02  5.699850221E+02  0.000000000E+00  0.00000E+00  9.000E+00
      21    -1     0     0   511   502  0.000000000E+00  0.000000000E+00 -7.530301126E+02  7.530301126E+02  0.000000000E+00  0.00000E+00  9.000E+00
      25     1     1     2     0     0 -2.883823546E+01 -1.919015630E+02  3.169498159E+02  3.920969771E+02  1.250000000E+02  0.00000E+00  9.000E+00
      25     1     1     2     0     0  7.395006666E+01  1.441537834E+02  1.648891064E+02  2.627971519E+02  1.250000000E+02  0.00000E+00  9.000E+00
      21     1     1     2   511   501 -4.511183121E+01  4.774777955E+01 -6.648840127E+02  6.681210056E+02  7.629394531E-06  0.00000E+00  9.000E+00
#rwgt            1           1   2.8158658996200729E-002           4        2573           0
</event>
<event>
      5   9999  3.79277E-02  1.11642E+01 -1.00000E+00  1.90386E-01
      21    -1     0     0   502   512  0.000000000E+00  0.000000000E+00  2.557399972E+02  2.557399972E+02  0.000000000E+00  0.00000E+00  9.000E+00
      21    -1     0     0   501   502  0.000000000E+00  0.000000000E+00 -1.836880545E+02  1.836880545E+02  0.000000000E+00  0.00000E+00  9.000E+00
      25     1     1     2     0     0 -3.771243690E+01  1.042053391E+02 -7.472490133E+01  1.830021625E+02  1.250000000E+02  0.00000E+00  9.000E+00
      25     1     1     2     0     0  3.156813102E+01 -9.488397858E+01  6.319090771E+01  1.720976673E+02  1.250000000E+02  0.00000E+00  9.000E+00
      21     1     1     2   501   512  6.144305881E+00 -9.321360489E+00  8.358593635E+01  8.432822192E+01  1.651812370E-06  0.00000E+00  9.000E+00
#rwgt            1           1   4.4841456778505664E-002           4        2799           0
</event>
<event>
      5   9999  3.79277E-02  7.12810E+01 -1.00000E+00  1.30823E-01
      21    -1     0     0   502   501  0.000000000E+00  0.000000000E+00  1.246907329E+02  1.246907329E+02  0.000000000E+00  0.00000E+00  9.000E+00
       1    -1     0     0   501     0  0.000000000E+00  0.000000000E+00 -2.102148662E+03  2.102148662E+03  0.000000000E+00  0.00000E+00  9.000E+00
      25     1     1     2     0     0 -2.428039731E+02  1.730479668E+02 -2.867435096E+02  4.321414218E+02  1.250000000E+02  0.00000E+00  9.000E+00
      25     1     1     2     0     0  3.123708340E+02 -1.575097588E+02 -6.284202946E+02  7.300150195E+02  1.250000000E+02  0.00000E+00  9.000E+00
       1     1     1     2   502     0 -6.956686093E+01 -1.553820804E+01 -1.062294125E+03  1.064682954E+03  1.525878906E-05  0.00000E+00  9.000E+00
#rwgt            1           1   5.4044173636176376E-002           4        3177           0
</event>
<event>
      5   9999  3.79277E-02  9.13861E+00 -1.00000E+00  2.00391E-01
      21    -1     0     0   502   501  0.000000000E+00  0.000000000E+00  2.457902861E+02  2.457902861E+02  0.000000000E+00  0.00000E+00  9.000E+00
      21    -1     0     0   511   502  0.000000000E+00  0.000000000E+00 -7.532249674E+02  7.532249674E+02  0.000000000E+00  0.00000E+00  9.000E+00
      25     1     1     2     0     0  2.384018885E+02  1.697953972E+02  7.533826805E+01  3.270577808E+02  1.250000000E+02  0.00000E+00  9.000E+00
      25     1     1     2     0     0 -2.292640497E+02 -1.699141419E+02 -5.030116409E+02  5.916743454E+02  1.250000000E+02  0.00000E+00  9.000E+00
      21     1     1     2   511   501 -9.137838802E+00  1.187447262E-01 -7.976130849E+01  8.028312731E+01  9.536743164E-07  0.00000E+00  9.000E+00
#rwgt            1           1   4.7343781400287936E-002           4        3268           0
</event>
<event>
      5   9999  3.79277E-02  1.01558E+02 -1.00000E+00  1.23527E-01
      21    -1     0     0   502   512  0.000000000E+00  0.000000000E+00  2.108401110E+02  2.108401110E+02  0.000000000E+00  0.00000E+00  9.000E+00
      21    -1     0     0   501   502  0.000000000E+00  0.000000000E+00 -9.456781148E+02  9.456781148E+02  0.000000000E+00  0.00000E+00  9.000E+00
      25     1     1     2     0     0 -5.054096438E+01 -2.199654787E+02 -4.571200174E+00  2.580408819E+02  1.250000000E+02  0.00000E+00  9.000E+00
      25     1     1     2     0     0  1.476262610E+02  2.497721264E+02 -7.316158939E+02  7.969105623E+02  1.250000000E+02  0.00000E+00  9.000E+00
      21     1     1     2   501   512 -9.708529660E+01 -2.980664777E+01  1.349090309E+00  1.015667815E+02  2.002806977E-06  0.00000E+00  9.000E+00
#rwgt            1           1   3.3849194250923906E-002           4        3708           0
</event>
<event>
      5   9999  3.79277E-02  6.67100E+01 -1.00000E+00  1.32288E-01
       1    -1     0     0   502     0  0.000000000E+00  0.000000000E+00  4.109775225E+02  4.109775225E+02  0.000000000E+00  0.00000E+00  9.000E+00
      21    -1     0     0   501   502  0.000000000E+00  0.000000000E+00 -1.139461096E+02  1.139461096E+02  0.000000000E+00  0.00000E+00  9.000E+00
      25     1     1     2     0     0  3.049478804E+01 -1.200912472E+02  1.862686793E+02  2.562671665E+02  1.250000000E+02  0.00000E+00  9.000E+00
      25     1     1     2     0     0  3.609362605E+01  1.160651756E+02  5.847716064E+01  1.838979422E+02  1.250000000E+02  0.00000E+00  9.000E+00
       1     1     1     2   501     0 -6.658841409E+01  4.026071564E+00  5.228557293E+01  8.475852335E+01  1.348699152E-06  0.00000E+00  9.000E+00
#rwgt            1           1   4.3691218318596396E-002           4        3846           0
</event>
<event>
      5   9999  3.79277E-02  9.99794E+00 -1.00000E+00  1.95767E-01
      21    -1     0     0   502   511  0.000000000E+00  0.000000000E+00  2.912706644E+02  2.912706644E+02  0.000000000E+00  0.00000E+00  9.000E+00
      21    -1     0     0   501   502  0.000000000E+00  0.000000000E+00 -3.107091334E+02  3.107091334E+02  0.000000000E+00  0.00000E+00  9.000E+00
      25     1     1     2     0     0 -1.763827028E+02  1.896179672E+02 -1.316735802E+01  2.878614435E+02  1.250000000E+02  0.00000E+00  9.000E+00
      25     1     1     2     0     0  1.779533647E+02 -1.797441761E+02 -3.443828269E+01  2.842294217E+02  1.250000000E+02  0.00000E+00  9.000E+00
      21     1     1     2   501   511 -1.570661861E+00 -9.873791072E+00  2.816717174E+01  2.988893261E+01  3.371747881E-07  0.00000E+00  9.000E+00
#rwgt            1           1   3.3502384731731255E-002           4        3924           0
</event>
<event>
      5   9999  3.79277E-02  2.10760E+01 -1.00000E+00  1.64513E-01
      21    -1     0     0   502   501  0.000000000E+00  0.000000000E+00  8.607717240E+01  8.607717240E+01  0.000000000E+00  0.00000E+00  9.000E+00
       3    -1     0     0   501     0  0.000000000E+00  0.000000000E+00 -4.500237620E+02  4.500237620E+02  0.000000000E+00  0.00000E+00  9.000E+00
      25     1     1     2     0     0  6.274928092E+01 -9.707202227E+01 -6.653052528E+01  1.827888414E+02  1.250000000E+02  0.00000E+00  9.000E+00
      25     1     1     2     0     0 -4.247052648E+01  9.133020437E+01 -2.154482328E+02  2.686780469E+02  1.250000000E+02  0.00000E+00  9.000E+00
       3     1     1     2   502     0 -2.027875444E+01  5.741817899E+00 -8.196783148E+01  8.463404606E+01  9.536743164E-07  0.00000E+00  9.000E+00
#rwgt            1           1   4.0687445379680727E-002           4        4428           0
</event>
<event>
      5   9999  3.79277E-02  1.58836E+02 -1.00000E+00  1.15417E-01
      21    -1     0     0   502   501  0.000000000E+00  0.000000000E+00  1.999673572E+02  1.999673572E+02  0.000000000E+00  0.00000E+00  9.000E+00
       1    -1     0     0   501     0  0.000000000E+00  0.000000000E+00 -2.710886175E+03  2.710886175E+03  0.000000000E+00  0.00000E+00  9.000E+00
      25     1     1     2     0     0 -1.979535080E+02  4.845930106E+01 -2.648142059E+01  2.405413911E+02  1.250000000E+02  0.00000E+00  9.000E+00
      25     1     1     2     0     0  7.942096433E+01 -1.541896912E+02 -3.608895960E+01  2.168168892E+02  1.250000000E+02  0.00000E+00  9.000E+00
       1     1     1     2   502     0  1.185325437E+02  1.057303901E+02 -2.448348438E+03  2.453495252E+03  4.315837288E-05  0.00000E+00  9.000E+00
#rwgt            1           1   3.7866394806504486E-002           4        4643           0
</event>
<event>
      5   9999 -4.32419E-02  1.86507E+02 -1.00000E+00  1.12764E-01
      21    -1     0     0   502   511  0.000000000E+00  0.000000000E+00  6.470891281E+01  6.470891281E+01  0.000000000E+00  0.00000E+00  9.000E+00
      21    -1     0     0   501   502  0.000000000E+00  0.000000000E+00 -2.647696446E+03  2.647696446E+03  0.000000000E+00  0.00000E+00  9.000E+00
      25     1     1     2     0     0  1.406082714E+02  4.735397494E+01 -1.372974805E+03  1.386613825E+03  1.250000000E+02  0.00000E+00  9.000E+00
      25     1     1     2     0     0 -2.846795981E+02  7.108647853E+01 -9.745586209E+02  1.025419556E+03  1.250000000E+02  0.00000E+00  9.000E+00
      21     1     1     2   501   511  1.440713267E+02 -1.184404535E+02 -2.354541079E+02  3.003719779E+02  4.672030912E-06  0.00000E+00  9.000E+00
#rwgt            1           1 -0.95868182167544758                4        4743           0
</event>
<event>
      5   9999  3.79277E-02  1.15159E+02 -1.00000E+00  1.21132E-01
      21    -1     0     0   502   501  0.000000000E+00  0.000000000E+00  5.300781838E+02  5.300781838E+02  0.000000000E+00  0.00000E+00  9.000E+00
      21    -1     0     0   501   512  0.000000000E+00  0.000000000E+00 -1.965467992E+02  1.965467992E+02  0.000000000E+00  0.00000E+00  9.000E+00
      25     1     1     2     0     0  1.348500743E+02  1.380011798E+02  3.048911895E+02  3.818540371E+02  1.250000000E+02  0.00000E+00  9.000E+00
      25     1     1     2     0     0 -1.969626098E+01 -1.369357014E+02  9.769351786E+01  2.104954927E+02  1.250000000E+02  0.00000E+00  9.000E+00
      21     1     1     2   502   512 -1.151538133E+02 -1.065478474E+00 -6.905332285E+01  1.342754533E+02  2.132480600E-06  0.00000E+00  9.000E+00
#rwgt            1           1   3.7977342669323975E-002           4        4783           0
</event>
<event>
      5   9999  3.79277E-02  1.39100E+02 -1.00000E+00  1.17707E-01
      21    -1     0     0   502   511  0.000000000E+00  0.000000000E+00  7.734304119E+01  7.734304119E+01  0.000000000E+00  0.00000E+00  9.000E+00
      21    -1     0     0   501   502  0.000000000E+00  0.000000000E+00 -1.243876293E+03  1.243876293E+03  0.000000000E+00  0.00000E+00  9.000E+00
      25     1     1     2     0     0  1.590251301E+02  1.501306678E+02 -5.829539806E+02  6.350500397E+02  1.250000000E+02  0.00000E+00  9.000E+00
      25     1     1     2     0     0 -1.824847129E+02 -1.302369016E+01 -3.460839899E+02  4.109372398E+02  1.250000000E+02  0.00000E+00  9.000E+00
      21     1     1     2   501   511  2.345958285E+01 -1.371069777E+02 -2.374952817E+02  2.752320552E+02  2.697398305E-06  0.00000E+00  9.000E+00
#rwgt            1           1   9.0428154579596833E-003           4        4847           0
</event>
<event>
      5   9999  3.79277E-02  1.76755E+01 -1.00000E+00  1.70922E-01
      21    -1     0     0   502   501  0.000000000E+00  0.000000000E+00  2.484513036E+02  2.484513036E+02  0.000000000E+00  0.00000E+00  9.000E+00
      21    -1     0     0   501   512  0.000000000E+00  0.000000000E+00 -2.504522912E+02  2.504522912E+02  0.000000000E+00  0.00000E+00  9.000E+00
      25     1     1     2     0     0  4.819233639E+01 -1.410658712E+02  1.194921005E+02  2.283099722E+02  1.250000000E+02  0.00000E+00  9.000E+00
      25     1     1     2     0     0 -6.559310017E+01  1.441699566E+02 -6.590611551E+01  2.122640978E+02  1.250000000E+02  0.00000E+00  9.000E+00
      21     1     1     2   502   512  1.740076379E+01 -3.104085323E+00 -5.558697268E+01  5.832952475E+01  6.743495762E-07  0.00000E+00  9.000E+00
#rwgt            1           1   4.0678562338365656E-002           4        4988           0
</event>
<event>
      5   9999 -3.79277E-02  1.76744E+02 -1.00000E+00  1.13638E-01
      21    -1     0     0   502   501  0.000000000E+00  0.000000000E+00  5.422954418E+02  5.422954418E+02  0.000000000E+00  0.00000E+00  9.000E+00
      21    -1     0     0   501   511  0.000000000E+00  0.000000000E+00 -2.358320724E+02  2.358320724E+02  0.000000000E+00  0.00000E+00  9.000E+00
      25     1     1     2     0     0  1.698778947E+02  1.165240759E+01  3.632451045E+02  4.201979102E+02  1.250000000E+02  0.00000E+00  9.000E+00
      25     1     1     2     0     0  5.956083228E+00 -2.956079998E+01  6.422331593E+01  1.437322167E+02  1.250000000E+02  0.00000E+00  9.000E+00
      21     1     1     2   502   511 -1.758339780E+02  1.790839239E+01 -1.210050511E+02  2.141973873E+02  3.015782986E-06  0.00000E+00  9.000E+00
#rwgt            1           1  -5.3841260886144271E-002           4        5170           0
</event>
<event>
      5   9999  3.79277E-02  9.74376E+01 -1.00000E+00  1.24337E-01
      21    -1     0     0   502   501  0.000000000E+00  0.000000000E+00  3.655116633E+02  3.655116633E+02  0.000000000E+00  0.00000E+00  9.000E+00
      21    -1     0     0   501   512  0.000000000E+00  0.000000000E+00 -5.365175171E+02  5.365175171E+02  0.000000000E+00  0.00000E+00  9.000E+00
      25     1     1     2     0     0  3.941314533E+01 -1.031024394E+02  1.203037583E+01  1.671922216E+02  1.250000000E+02  0.00000E+00  9.000E+00
      25     1     1     2     0     0  5.488086350E+01  1.276527565E+02  2.380327289E+02  3.026412322E+02  1.250000000E+02  0.00000E+00  9.000E+00
      21     1     1     2   502   512 -9.429400883E+01 -2.455031715E+01 -4.210689585E+02  4.321957265E+02  0.000000000E+00  0.00000E+00  9.000E+00
#rwgt            1           1   4.2191990741801522E-002           4        5212           0
</event>
<event>
      5   9999  3.79277E-02  1.05011E+02 -1.00000E+00  1.22880E-01
       2    -1     0     0   502     0  0.000000000E+00  0.000000000E+00  6.382510367E+02  6.382510367E+02  0.000000000E+00  0.00000E+00  9.000E+00
      21    -1     0     0   501   502  0.000000000E+00  0.000000000E+00 -1.137391309E+02  1.137391309E+02  0.000000000E+00  0.00000E+00  9.000E+00
      25     1     1     2     0     0  1.305463338E+02  1.489687829E+02  1.773520019E+02  2.937903609E+02  1.250000000E+02  0.00000E+00  9.000E+00
      25     1     1     2     0     0 -4.353631530E+01 -9.017617046E+01  9.787812915E+01  1.877026389E+02  1.250000000E+02  0.00000E+00  9.000E+00
       2     1     1     2   501     0 -8.701001854E+01 -5.879261241E+01  2.492817748E+02  2.704971679E+02  6.031565972E-06  0.00000E+00  9.000E+00
#rwgt            1           1   3.0290122873466347E-002           4        5296           0
</event>
<event>
      5   9999  3.79277E-02  1.19486E+01 -1.00000E+00  1.87224E-01
      21    -1     0     0   511   501  0.000000000E+00  0.000000000E+00  5.292229075E+01  5.292229075E+01  0.000000000E+00  0.00000E+00  9.000E+00
      21    -1     0     0   501   502  0.000000000E+00  0.000000000E+00 -1.046241596E+03  1.046241596E+03  0.000000000E+00  0.00000E+00  9.000E+00
      25     1     1     2     0     0 -9.377750398E+00  1.896649018E+02 -5.833949703E+02  6.261273102E+02  1.250000000E+02  0.00000E+00  9.000E+00
      25     1     1     2     0     0  1.667471796E-01 -1.820539982E+02 -4.021074366E+02  4.587581897E+02  1.250000000E+02  0.00000E+00  9.000E+00
      21     1     1     2   511   502  9.211003218E+00 -7.610903566E+00 -7.816898560E+00  1.427838704E+01  3.576278687E-07  0.00000E+00  9.000E+00
#rwgt            1           1   3.6043904858519958E-002           4        5364           0
</event>
<event>
      5   9999  3.79277E-02  8.07102E+01 -1.00000E+00  1.28164E-01
      21    -1     0     0   502   512  0.000000000E+00  0.000000000E+00  1.333255352E+03  1.333255352E+03  0.000000000E+00  0.00000E+00  9.000E+00
      21    -1     0     0   501   502  0.000000000E+00  0.000000000E+00 -5.630353162E+01  5.630353162E+01  0.000000000E+00  0.00000E+00  9.000E+00
      25     1     1     2     0     0  7.022523667E-02  1.442732095E+02  3.564061919E+02  4.043082210E+02  1.250000000E+02  0.00000E+00  9.000E+00
      25     1     1     2     0     0  6.699116240E+01 -1.891831959E+02  4.550465408E+02  5.128064467E+02  1.250000000E+02  0.00000E+00  9.000E+00
      21     1     1     2   501   512 -6.706138764E+01  4.490998644E+01  4.654990876E+02  4.724442159E+02  5.394796609E-06  0.00000E+00  9.000E+00
#rwgt            1           1  0.24892032597180222                4        5765           0
</event>
<event>
      5   9999  3.79277E-02  1.18740E+01 -1.00000E+00  1.87511E-01
      21    -1     0     0   502   501  0.000000000E+00  0.000000000E+00  1.677085150E+02  1.677085150E+02  0.000000000E+00  0.00000E+00  9.000E+00
      21    -1     0     0   501   511  0.000000000E+00  0.000000000E+00 -1.175599675E+03  1.175599675E+03  0.000000000E+00  0.00000E+00  9.000E+00
      25     1     1     2     0     0 -2.594244575E+02 -2.939874505E+02 -3.262548312E+02  5.251636746E+02  1.250000000E+02  0.00000E+00  9.000E+00
      25     1     1     2     0     0  2.483297356E+02  2.897567004E+02 -5.245450183E+02  6.606050856E+02  1.250000000E+02  0.00000E+00  9.000E+00
      21     1     1     2   502   511  1.109472194E+01  4.230750176E+00 -1.570913102E+02  1.575394295E+02  0.000000000E+00  0.00000E+00  9.000E+00
#rwgt            1           1   2.8537786903569912E-002           4        5883           0
</event>
<event>
      5   9999  3.79277E-02  8.89653E+01 -1.00000E+00  1.26156E-01
      21    -1     0     0   502   512  0.000000000E+00  0.000000000E+00  1.742426732E+03  1.742426732E+03  0.000000000E+00  0.00000E+00  9.000E+00
      21    -1     0     0   501   502  0.000000000E+00  0.000000000E+00 -1.032728343E+02  1.032728343E+02  0.000000000E+00  0.00000E+00  9.000E+00
      25     1     1     2     0     0  8.094881375E+01 -1.173145322E+02  3.443043504E+02  3.930469382E+02  1.250000000E+02  0.00000E+00  9.000E+00
      25     1     1     2     0     0 -1.335484435E+02  4.556421396E+01  3.755587118E+01  1.922153163E+02  1.250000000E+02  0.00000E+00  9.000E+00
      21     1     1     2   501   512  5.259962971E+01  7.175031827E+01  1.257293677E+03  1.260437312E+03  0.000000000E+00  0.00000E+00  9.000E+00
#rwgt            1           1   3.8905637486490778E-002           4        6385           0
</event>
<event>
      5   9999  3.79277E-02  3.31020E+01 -1.00000E+00  1.50130E-01
      21    -1     0     0   511   501  0.000000000E+00  0.000000000E+00  1.877676674E+02  1.877676674E+02  0.000000000E+00  0.00000E+00  9.000E+00
      21    -1     0     0   501   502  0.000000000E+00  0.000000000E+00 -4.664554055E+02  4.664554055E+02  0.000000000E+00  0.00000E+00  9.000E+00
      25     1     1     2     0     0  3.244305559E+01 -3.672118523E+01 -2.629362339E+01  1.368113735E+02  1.250000000E+02  0.00000E+00  9.000E+00
      25     1     1     2     0     0  3.618304823E-01  4.114595476E+01 -3.713277922E+02  3.939574212E+02  1.250000000E+02  0.00000E+00  9.000E+00
      21     1     1     2   511   502 -3.280488608E+01 -4.424769524E+00  1.189336775E+02  1.234542781E+02  1.348699152E-06  0.00000E+00  9.000E+00
#rwgt            1           1   4.5930740137004468E-002           4        6471           0
</event>
<event>
      5   9999  3.79277E-02  9.59016E+00 -1.00000E+00  1.97882E-01
      21    -1     0     0   502   501  0.000000000E+00  0.000000000E+00  1.434811082E+02  1.434811082E+02  0.000000000E+00  0.00000E+00  9.000E+00
      21    -1     0     0   501   512  0.000000000E+00  0.000000000E+00 -2.648206267E+02  2.648206267E+02  0.000000000E+00  0.00000E+00  9.000E+00
      25     1     1     2     0     0  1.260464580E+02 -6.052332399E+01 -4.813019826E+01  1.936292806E+02  1.250000000E+02  0.00000E+00  9.000E+00
      25     1     1     2     0     0 -1.300610984E+02  5.181391098E+01 -5.755008662E+01  1.963099161E+02  1.250000000E+02  0.00000E+00  9.000E+00
      21     1     1     2   502   512  4.014640415E+00  8.709413009E+00 -1.565923365E+01  1.836253825E+01  2.384185791E-07  0.00000E+00  9.000E+00
#rwgt            1           1   1.8166521794232525E-002           4        6627           0
</event>
<event>
      5   9999  3.79277E-02  1.70976E+01 -1.00000E+00  1.72191E-01
      21    -1     0     0   502   501  0.000000000E+00  0.000000000E+00  5.594369319E+02  5.594369319E+02  0.000000000E+00  0.00000E+00  9.000E+00
      21    -1     0     0   501   511  0.000000000E+00  0.000000000E+00 -1.324374831E+02  1.324374831E+02  0.000000000E+00  0.00000E+00  9.000E+00
      25     1     1     2     0     0 -2.009879815E+02 -2.907545352E+01  9.921190553E+01  2.582819252E+02  1.250000000E+02  0.00000E+00  9.000E+00
      25     1     1     2     0     0  1.845039293E+02  2.453624850E+01  3.436156984E+02  4.102931581E+02  1.250000000E+02  0.00000E+00  9.000E+00
      21     1     1     2   502   511  1.648405217E+01  4.539205023E+00 -1.582815511E+01  2.329933159E+01  1.685873940E-07  0.00000E+00  9.000E+00
#rwgt            1           1  0.24288681584116056                4        6958           0
</event>
<event>
      5   9999  3.79277E-02  2.22627E+01 -1.00000E+00  1.62618E-01
      21    -1     0     0   502   512  0.000000000E+00  0.000000000E+00  4.471760206E+02  4.471760206E+02  0.000000000E+00  0.00000E+00  9.000E+00
      21    -1     0     0   501   502  0.000000000E+00  0.000000000E+00 -1.998347229E+02  1.998347229E+02  0.000000000E+00  0.00000E+00  9.000E+00
      25     1     1     2     0     0 -2.691130453E+01  8.392110788E+00 -1.309551159E+02  1.832181438E+02  1.250000000E+02  0.00000E+00  9.000E+00
      25     1     1     2     0     0  4.914546423E+01 -7.265030574E+00  6.444334794E+01  1.491509384E+02  1.250000000E+02  0.00000E+00  9.000E+00
      21     1     1     2   501   512 -2.223415970E+01 -1.127080214E+00  3.138530657E+02  3.146416613E+02  3.814697266E-06  0.00000E+00  9.000E+00
#rwgt            1           1   2.1064538343609541E-002           4        7204           0
</event>
<event>
      5   9999  3.79277E-02  8.00797E+01 -1.00000E+00  1.28329E-01
       2    -1     0     0   502     0  0.000000000E+00  0.000000000E+00  1.085162917E+03  1.085162917E+03  0.000000000E+00  0.00000E+00  9.000E+00
      21    -1     0     0   501   502  0.000000000E+00  0.000000000E+00 -1.132362883E+03  1.132362883E+03  0.000000000E+00  0.00000E+00  9.000E+00
      25     1     1     2     0     0  2.303186420E+02  1.102134789E+02 -9.966857087E+02  1.036436727E+03  1.250000000E+02  0.00000E+00  9.000E+00
      25     1     1     2     0     0 -1.513713198E+02 -9.679389685E+01 -9.194102991E+00  2.190704600E+02  1.250000000E+02  0.00000E+00  9.000E+00
       2     1     1     2   501     0 -7.894732223E+01 -1.341958200E+01  9.586798457E+02  9.620186128E+02  1.078959322E-05  0.00000E+00  9.000E+00
#rwgt            1           1   3.1821555918444426E-002           4        7345           0
</event>
<event>
      5   9999  3.79277E-02  1.05247E+02 -1.00000E+00  1.22837E-01
      21    -1     0     0   502   501  0.000000000E+00  0.000000000E+00  2.163418398E+02  2.163418398E+02  0.000000000E+00  0.00000E+00  9.000E+00
       1    -1     0     0   501     0  0.000000000E+00  0.000000000E+00 -1.580119974E+03  1.580119974E+03  0.000000000E+00  0.00000E+00  9.000E+00
      25     1     1     2     0     0  4.261523837E+01  1.030571675E+02  1.677604958E+02  2.370768278E+02  1.250000000E+02  0.00000E+00  9.000E+00
      25     1     1     2     0     0 -7.155869138E+01 -1.868430174E+00 -4.443648429E+02  4.671287306E+02  1.250000000E+02  0.00000E+00  9.000E+00
       1     1     1     2   502     0  2.894345301E+01 -1.011887373E+02 -1.087173787E+03  1.092256255E+03  1.525878906E-05  0.00000E+00  9.000E+00
#rwgt            1           1   5.2055491943107428E-002           4        7541           0
</event>
<event>
      5   9999  3.79277E-02  1.26766E+02 -1.00000E+00  1.19366E-01
      21    -1     0     0   502   501  0.000000000E+00  0.000000000E+00  3.147410223E+02  3.147410223E+02  0.000000000E+00  0.00000E+00  9.000E+00
      21    -1     0     0   511   502  0.000000000E+00  0.000000000E+00 -4.034995853E+02  4.034995853E+02  0.000000000E+00  0.00000E+00  9.000E+00
      25     1     1     2     0     0 -1.234823759E+02  1.864535402E+02 -6.477287672E+01  2.642599957E+02  1.250000000E+02  0.00000E+00  9.000E+00
      25     1     1     2     0     0  9.193499376E-01 -1.540802568E+02  1.428236029E+02  2.444691234E+02  1.250000000E+02  0.00000E+00  9.000E+00
      21     1     1     2   511   501  1.225630259E+02 -3.237328335E+01 -1.668092892E+02  2.095114884E+02  4.672030912E-06  0.00000E+00  9.000E+00
#rwgt            1           1   3.5140782351872880E-002           4        7624           0
</event>
<event>
      5   9999  3.79277E-02  5.12808E+01 -1.00000E+00  1.38452E-01
      21    -1     0     0   512   501  0.000000000E+00  0.000000000E+00  3.106282566E+03  3.106282566E+03  0.000000000E+00  0.00000E+00  9.000E+00
      21    -1     0     0   501   502  0.000000000E+00  0.000000000E+00 -3.168248649E+01  3.168248649E+01  0.000000000E+00  0.00000E+00  9.000E+00
      25     1     1     2     0     0  1.101453409E+02 -1.417975605E+02  5.625734881E+02  6.036161643E+02  1.250000000E+02  0.00000E+00  9.000E+00
      25     1     1     2     0     0 -1.347013642E+02  1.868166609E+02  1.638910514E+03  1.659728169E+03  1.250000000E+02  0.00000E+00  9.000E+00
      21     1     1     2   512   502  2.455602329E+01 -4.501910039E+01  8.731160767E+02  8.746207184E+02  1.078959322E-05  0.00000E+00  9.000E+00
#rwgt            1           1  0.11277426816478536                4        7682           0
</event>
<event>
      5   9999  3.79277E-02  2.25110E+02 -1.00000E+00  1.09810E-01
      21    -1     0     0   502   501  0.000000000E+00  0.000000000E+00  6.500558466E+02  6.500558466E+02  0.000000000E+00  0.00000E+00  9.000E+00
       2    -1     0     0   501     0  0.000000000E+00  0.000000000E+00 -8.040335802E+02  8.040335802E+02  0.000000000E+00  0.00000E+00  9.000E+00
      25     1     1     2     0     0 -1.044402986E+01 -9.044579318E+01  3.896404925E+02  4.192066706E+02  1.250000000E+02  0.00000E+00  9.000E+00
      25     1     1     2     0     0  2.328284807E+02  1.253674756E+02  1.333596574E+02  3.214590233E+02  1.250000000E+02  0.00000E+00  9.000E+00
       2     1     1     2   502     0 -2.223844509E+02 -3.492168246E+01 -6.769778835E+02  7.134237329E+02  1.078959322E-05  0.00000E+00  9.000E+00
#rwgt            2          13   1.4015107987723325E-003           4        7796           0
</event>
<event>
      5   9999 -3.79277E-02  5.32781E+01 -1.00000E+00  1.37520E-01
       3    -1     0     0   502     0  0.000000000E+00  0.000000000E+00  1.418123277E+03  1.418123277E+03  0.000000000E+00  0.00000E+00  9.000E+00
      21    -1     0     0   501   502  0.000000000E+00  0.000000000E+00 -1.282384829E+02  1.282384829E+02  0.000000000E+00  0.00000E+00  9.000E+00
      25     1     1     2     0     0  9.280963144E+00 -1.697060391E+02  1.094159571E+02  2.376617926E+02  1.250000000E+02  0.00000E+00  9.000E+00
      25     1     1     2     0     0 -4.550313337E+01  1.306354138E+02  7.343409804E+01  2.003839146E+02  1.250000000E+02  0.00000E+00  9.000E+00
       3     1     1     2   501     0  3.622217023E+01  3.907062527E+01  1.107034739E+03  1.108316053E+03  2.157918644E-05  0.00000E+00  9.000E+00
#rwgt            1           1 -0.28430412046455245                4        7815           0
</event>
<event>
      5   9999  3.79277E-02  1.05139E+02 -1.00000E+00  1.22857E-01
       4    -1     0     0   502     0  0.000000000E+00  0.000000000E+00  5.132156815E+02  5.132156815E+02  0.000000000E+00  0.00000E+00  9.000E+00
      21    -1     0     0   501   502  0.000000000E+00  0.000000000E+00 -2.690406563E+02  2.690406563E+02  0.000000000E+00  0.00000E+00  9.000E+00
      25     1     1     2     0     0  2.029570947E+00  1.449622545E+02 -1.286795027E+02  2.306546961E+02  1.250000000E+02  0.00000E+00  9.000E+00
      25     1     1     2     0     0  3.576942674E+01 -2.430719905E+02  1.720734239E+02  3.249580091E+02  1.250000000E+02  0.00000E+00  9.000E+00
       4     1     1     2   501     0 -3.779899769E+01  9.810973599E+01  2.007811040E+02  2.266436327E+02  0.000000000E+00  0.00000E+00  9.000E+00
#rwgt            1           1  0.12848402606647691                4        8113           0
</event>
<event>
      5   9999  3.79277E-02  1.07642E+02 -1.00000E+00  1.22406E-01
      21    -1     0     0   511   501  0.000000000E+00  0.000000000E+00  2.485798985E+02  2.485798985E+02  0.000000000E+00  0.00000E+00  9.000E+00
      21    -1     0     0   501   502  0.000000000E+00  0.000000000E+00 -3.142254027E+02  3.142254027E+02  0.000000000E+00  0.00000E+00  9.000E+00
      25     1     1     2     0     0  1.823275236E+02 -6.070860761E+01 -1.797306272E+00  2.292533341E+02  1.250000000E+02  0.00000E+00  9.000E+00
      25     1     1     2     0     0 -1.493432489E+02 -4.175510122E+01 -9.614536454E+01  2.211692239E+02  1.250000000E+02  0.00000E+00  9.000E+00
      21     1     1     2   511   502 -3.298427465E+01  1.024637088E+02  3.229716669E+01  1.123827432E+02  1.651812370E-06  0.00000E+00  9.000E+00
#rwgt            1           1   4.4735753913954367E-002           4        8516           0
</event>
<event>
      5   9999  3.79277E-02  5.44123E+01 -1.00000E+00  1.37012E-01
       3    -1     0     0   502     0  0.000000000E+00  0.000000000E+00  1.325173493E+02  1.325173493E+02  0.000000000E+00  0.00000E+00  9.000E+00
      21    -1     0     0   501   502  0.000000000E+00  0.000000000E+00 -4.099593908E+02  4.099593908E+02  0.000000000E+00  0.00000E+00  9.000E+00
      25     1     1     2     0     0  1.271638375E+02  2.460389206E+01 -6.734820110E-01  1.800040184E+02  1.250000000E+02  0.00000E+00  9.000E+00
      25     1     1     2     0     0 -1.225604734E+02  2.961335549E+01 -1.899120001E+02  2.599799766E+02  1.250000000E+02  0.00000E+00  9.000E+00
       3     1     1     2   501     0 -4.603364061E+00 -5.421724756E+01 -8.685655930E+01  1.024927450E+02  1.651812370E-06  0.00000E+00  9.000E+00
#rwgt            1           1   4.3647758517721617E-002           4        8584           0
</event>
<event>
      5   9999  3.79277E-02  7.84646E+01 -1.00000E+00  1.28758E-01
      21    -1     0     0   502   501  0.000000000E+00  0.000000000E+00  1.518134282E+02  1.518134282E+02  0.000000000E+00  0.00000E+00  9.000E+00
      21    -1     0     0   511   502  0.000000000E+00  0.000000000E+00 -3.445933386E+02  3.445933386E+02  0.000000000E+00  0.00000E+00  9.000E+00
      25     1     1     2     0     0 -4.527642618E+01  6.934895891E+01 -9.094980462E+01  1.753741709E+02  1.250000000E+02  0.00000E+00  9.000E+00
      25     1     1     2     0     0  5.234885599E+01 -1.474941979E+02 -1.042812585E+01  2.005709025E+02  1.250000000E+02  0.00000E+00  9.000E+00
      21     1     1     2   511   501 -7.072429805E+00  7.814523895E+01 -9.140197991E+01  1.204616934E+02  1.907348633E-06  0.00000E+00  9.000E+00
#rwgt            1           1   3.7664062410234553E-002           4        8726           0
</event>
<event>
      5   9999  3.79277E-02  2.50123E+01 -1.00000E+00  1.58735E-01
      21    -1     0     0   512   501  0.000000000E+00  0.000000000E+00  9.014614264E+02  9.014614264E+02  0.000000000E+00  0.00000E+00  9.000E+00
      21    -1     0     0   501   502  0.000000000E+00  0.000000000E+00 -1.461540846E+02  1.461540846E+02  0.000000000E+00  0.00000E+00  9.000E+00
      25     1     1     2     0     0 -1.988718134E+02  1.447188356E+02  6.413316836E+01  2.832518364E+02  1.250000000E+02  0.00000E+00  9.000E+00
      25     1     1     2     0     0  1.961223047E+02 -1.695795338E+02  5.477009267E+02  6.187265000E+02  1.250000000E+02  0.00000E+00  9.000E+00
      21     1     1     2   512   502  2.749508670E+00  2.486069821E+01  1.434732468E+02  1.456371747E+02  0.000000000E+00  0.00000E+00  9.000E+00
#rwgt            1           1   1.4544453646465453E-002           4        8837           0
</event>
<event>
      5   9999  3.79277E-02  1.75238E+02 -1.00000E+00  1.13778E-01
      21    -1     0     0   502   511  0.000000000E+00  0.000000000E+00  1.930334751E+02  1.930334751E+02  0.000000000E+00  0.00000E+00  9.000E+00
      21    -1     0     0   501   502  0.000000000E+00  0.000000000E+00 -2.586823876E+03  2.586823876E+03  0.000000000E+00  0.00000E+00  9.000E+00
      25     1     1     2     0     0  5.791344207E+01  1.347716891E+00 -2.392705827E+03  2.396668929E+03  1.250000000E+02  0.00000E+00  9.000E+00
      25     1     1     2     0     0  5.137128556E+00 -1.648499555E+02 -1.438804850E+01  2.074461710E+02  1.250000000E+02  0.00000E+00  9.000E+00
      21     1     1     2   501   511 -6.305057063E+01  1.635022386E+02  1.330347374E+01  1.757422513E+02  2.323816858E-06  0.00000E+00  9.000E+00
#rwgt            2          11   6.3427867497831900E-003           4        9019           0
</event>
<event>
      5   9999  3.79277E-02  7.44568E+01 -1.00000E+00  1.29877E-01
      21    -1     0     0   502   512  0.000000000E+00  0.000000000E+00  7.933042159E+02  7.933042159E+02  0.000000000E+00  0.00000E+00  9.000E+00
      21    -1     0     0   501   502  0.000000000E+00  0.000000000E+00 -1.015449759E+02  1.015449759E+02  0.000000000E+00  0.00000E+00  9.000E+00
      25     1     1     2     0     0  5.887692007E+01  9.370355321E+01 -6.059267095E+00  1.670585595E+02  1.250000000E+02  0.00000E+00  9.000E+00
      25     1     1     2     0     0 -3.629570854E+01 -2.275355033E+01  4.578863570E+02  4.765711054E+02  1.250000000E+02  0.00000E+00  9.000E+00
      21     1     1     2   501   512 -2.258121153E+01 -7.095000288E+01  2.399321501E+02  2.512195268E+02  4.672030912E-06  0.00000E+00  9.000E+00
#rwgt            1           1   4.9809605564862212E-002           4        9039           0
</event>
<event>
      5   9999  3.79277E-02  2.30461E+01 -1.00000E+00  1.61444E-01
       2    -1     0     0   502     0  0.000000000E+00  0.000000000E+00  1.406717795E+03  1.406717795E+03  0.000000000E+00  0.00000E+00  9.000E+00
      21    -1     0     0   501   502  0.000000000E+00  0.000000000E+00 -1.322553421E+02  1.322553421E+02  0.000000000E+00  0.00000E+00  9.000E+00
      25     1     1     2     0     0 -5.863346912E+01 -1.413539076E+02  1.304495708E+01  1.980252050E+02  1.250000000E+02  0.00000E+00  9.000E+00
      25     1     1     2     0     0  3.830827718E+01  1.304907346E+02  1.755299382E+02  2.548158455E+02  1.250000000E+02  0.00000E+00  9.000E+00
       2     1     1     2   501     0  2.032519194E+01  1.086317300E+01  1.085887558E+03  1.086132087E+03  1.525878906E-05  0.00000E+00  9.000E+00
#rwgt            1           1   3.7180581354415952E-002           4        9149           0
</event>
<event>
      5   9999  3.79277E-02  1.15148E+01 -1.00000E+00  1.88933E-01
      21    -1     0     0   502   501  0.000000000E+00  0.000000000E+00  2.051150002E+02  2.051150002E+02  0.000000000E+00  0.00000E+00  9.000E+00
      21    -1     0     0   511   502  0.000000000E+00  0.000000000E+00 -1.620113402E+02  1.620113402E+02  0.000000000E+00  0.00000E+00  9.000E+00
      25     1     1     2     0     0  3.592197075E+01 -9.110334202E+01  9.672416066E+01  1.859321655E+02  1.250000000E+02  0.00000E+00  9.000E+00
      25     1     1     2     0     0 -4.654176202E+01  8.665253743E+01 -4.130624020E+01  1.643350338E+02  1.250000000E+02  0.00000E+00  9.000E+00
      21     1     1     2   511   501  1.061979127E+01  4.450804596E+00 -1.231426048E+01  1.685914112E+01  0.000000000E+00  0.00000E+00  9.000E+00
#rwgt            1           1   4.1242516636287772E-002           4        9261           0
</event>
<event>
      5   9999  3.79277E-02  3.93062E+01 -1.00000E+00  1.45313E-01
      21    -1     0     0   512   501  0.000000000E+00  0.000000000E+00  1.210318607E+03  1.210318607E+03  0.000000000E+00  0.00000E+00  9.000E+00
      21    -1     0     0   501   502  0.000000000E+00  0.000000000E+00 -1.845182119E+02  1.845182119E+02  0.000000000E+00  0.00000E+00  9.000E+00
      25     1     1     2     0     0  2.960272369E+02 -3.377128123E+02  5.322378594E+02  7.075197577E+02  1.250000000E+02  0.00000E+00  9.000E+00
      25     1     1     2     0     0 -2.718149262E+02  3.067492165E+02  4.014445420E+02  5.871636537E+02  1.250000000E+02  0.00000E+00  9.000E+00
      21     1     1     2   512   502 -2.421231061E+01  3.096359584E+01  9.211799350E+01  1.001534072E+02  1.907348633E-06  0.00000E+00  9.000E+00
#rwgt            1           1  0.16282113187292260                4        9577           0
</event>
<event>
      5   9999  3.79277E-02  1.07509E+02 -1.00000E+00  1.22430E-01
      21    -1     0     0   502   501  0.000000000E+00  0.000000000E+00  6.629370849E+02  6.629370849E+02  0.000000000E+00  0.00000E+00  9.000E+00
      -3    -1     0     0     0   502  0.000000000E+00  0.000000000E+00 -2.350092347E+02  2.350092347E+02  0.000000000E+00  0.00000E+00  9.000E+00
      25     1     1     2     0     0 -2.685880660E+01 -8.413193177E+01  7.481571548E+01  1.703583538E+02  1.250000000E+02  0.00000E+00  9.000E+00
      25     1     1     2     0     0 -6.789023960E+01  3.333039464E+01  5.138468941E+02  5.342130946E+02  1.250000000E+02  0.00000E+00  9.000E+00
      -3     1     1     2     0   501  9.474904620E+01  5.080153713E+01 -1.607347594E+02  1.933748712E+02  3.814697266E-06  0.00000E+00  9.000E+00
#rwgt            1           1   4.1347171920650010E-002           4        9755           0
</event>
<event>
      5   9999  3.79277E-02  1.02626E+02 -1.00000E+00  1.23324E-01
      21    -1     0     0   502   501  0.000000000E+00  0.000000000E+00  4.236393327E+02  4.236393327E+02  0.000000000E+00  0.00000E+00  9.000E+00
      21    -1     0     0   501   511  0.000000000E+00  0.000000000E+00 -2.890963908E+02  2.890963908E+02  0.000000000E+00  0.00000E+00  9.000E+00
      25     1     1     2     0     0 -2.366148971E+01 -6.000665238E+01  3.529470359E+02  3.799437782E+02  1.250000000E+02  0.00000E+00  9.000E+00
      25     1     1     2     0     0  6.169638530E+01 -3.531059912E+01 -9.525623462E+01  1.724877752E+02  1.250000000E+02  0.00000E+00  9.000E+00
      21     1     1     2   502   511 -3.803489559E+01  9.531725150E+01 -1.231478593E+02  1.603041701E+02  1.348699152E-06  0.00000E+00  9.000E+00
#rwgt            1           1   3.9304249820646432E-002           4        9908           0
</event>
<event>
      5   9999  3.79277E-02  3.02532E+01 -1.00000E+00  1.52787E-01
      21    -1     0     0   502   501  0.000000000E+00  0.000000000E+00  5.691853125E+02  5.691853125E+02  0.000000000E+00  0.00000E+00  9.000E+00
       4    -1     0     0   501     0  0.000000000E+00  0.000000000E+00 -8.932417266E+01  8.932417266E+01  0.000000000E+00  0.00000E+00  9.000E+00
      25     1     1     2     0     0  5.459139460E+01  5.468467220E+01  6.466596369E+01  1.605531706E+02  1.250000000E+02  0.00000E+00  9.000E+00
      25     1     1     2     0     0 -6.415925258E+01 -8.338505987E+01  4.330367458E+02  4.628339887E+02  1.250000000E+02  0.00000E+00  9.000E+00
       4     1     1     2   502     0  9.567857983E+00  2.870038767E+01 -1.784156969E+01  3.512232578E+01  2.384185791E-07  0.00000E+00  9.000E+00
#rwgt            1           1   4.4621793989726231E-002           4        9989           0
</event>
<event>
      5   9999  3.79277E-02  1.45983E+02 -1.00000E+00  1.16863E-01
      21    -1     0     0   511   501  0.000000000E+00  0.000000000E+00  7.656436903E+01  7.656436903E+01  0.000000000E+00  0.00000E+00  9.000E+00
      21    -1     0     0   501   502  0.000000000E+00  0.000000000E+00 -8.548276870E+02  8.548276870E+02  0.000000000E+00  0.00000E+00  9.000E+00
      25     1     1     2     0     0 -4.296259658E+01 -1.578761765E+02 -4.100370417E+02  4.588311752E+02  1.250000000E+02  0.00000E+00  9.000E+00
      25     1     1     2     0     0  6.803582724E+01  1.406228524E+01 -2.340477705E+02  2.742808424E+02  1.250000000E+02  0.00000E+00  9.000E+00
      21     1     1     2   511   502 -2.507323066E+01  1.438138912E+02 -1.341785058E+02  1.982800384E+02  1.907348633E-06  0.00000E+00  9.000E+00
#rwgt            1           1  0.17031349799777576                4       10108           0
</event>
<event>
      5   9999  3.79277E-02  5.29456E+01 -1.00000E+00  1.37672E-01
      21    -1     0     0   502   512  0.000000000E+00  0.000000000E+00  9.157440551E+02  9.157440551E+02  0.000000000E+00  0.00000E+00  9.000E+00
      21    -1     0     0   501   502  0.000000000E+00  0.000000000E+00 -5.143978520E+01  5.143978520E+01  0.000000000E+00  0.00000E+00  9.000E+00
      25     1     1     2     0     0  7.296483874E+00  1.447315920E+02  5.752872016E+02  6.062844520E+02  1.250000000E+02  0.00000E+00  9.000E+00
      25     1     1     2     0     0 -5.268090302E+00 -9.182485752E+01  1.674712296E+02  2.283225131E+02  1.250000000E+02  0.00000E+00  9.000E+00
      21     1     1     2   501   512 -2.028393572E+00 -5.290673451E+01  1.215458387E+02  1.325768753E+02  2.336015456E-06  0.00000E+00  9.000E+00
#rwgt            1           1   4.2409603044854423E-002           4       10167           0
</event>
<event>
      5   9999  3.79277E-02  7.93988E+01 -1.00000E+00  1.28508E-01
       2    -1     0     0   502     0  0.000000000E+00  0.000000000E+00  3.247493610E+02  3.247493610E+02  0.000000000E+00  0.00000E+00  9.000E+00
      21    -1     0     0   501   502  0.000000000E+00  0.000000000E+00 -2.746111182E+02  2.746111182E+02  0.000000000E+00  0.00000E+00  9.000E+00
      25     1     1     2     0     0 -2.073141161E+02 -1.150475179E+02 -8.217470486E+01  2.803439962E+02  1.250000000E+02  0.00000E+00  9.000E+00
      25     1     1     2     0     0  1.323712100E+02  8.882284933E+01  5.911246058E+01  2.110235029E+02  1.250000000E+02  0.00000E+00  9.000E+00
       2     1     1     2   501     0  7.494290615E+01  2.622466853E+01  7.320048709E+01  1.079929800E+02  0.000000000E+00  0.00000E+00  9.000E+00
#rwgt            1           1   4.4527618608028480E-002           4       10276           0
</event>
<event>
      5   9999  3.79277E-02  5.89785E+01 -1.00000E+00  1.35103E-01
      21    -1     0     0   502   501  0.000000000E+00  0.000000000E+00  3.457541997E+02  3.457541997E+02  0.000000000E+00  0.00000E+00  9.000E+00
      21    -1     0     0   501   511  0.000000000E+00  0.000000000E+00 -2.044082070E+02  2.044082070E+02  0.000000000E+00  0.00000E+00  9.000E+00
      25     1     1     2     0     0  4.953728928E+01 -1.606308777E+02  9.008166303E+01  2.280261562E+02  1.250000000E+02  0.00000E+00  9.000E+00
      25     1     1     2     0     0 -5.910950697E+01  2.188273765E+02  4.617977943E+01  2.629390168E+02  1.250000000E+02  0.00000E+00  9.000E+00
      21     1     1     2   502   511  9.572217686E+00 -5.819649881E+01  5.084550265E+00  5.919723369E+01  1.124618188E-06  0.00000E+00  9.000E+00
#rwgt            1           1   3.1029675473137550E-002           4       10341           0
</event>
<event>
      5   9999  3.79277E-02  4.78705E+01 -1.00000E+00  1.40163E-01
      21    -1     0     0   512   501  0.000000000E+00  0.000000000E+00  3.897690483E+02  3.897690483E+02  0.000000000E+00  0.00000E+00  9.000E+00
      21    -1     0     0   501   502  0.000000000E+00  0.000000000E+00 -4.981235633E+02  4.981235633E+02  0.000000000E+00  0.00000E+00  9.000E+00
      25     1     1     2     0     0  1.520418266E+02 -6.239173020E+01 -1.983261415E+02  2.863000235E+02  1.250000000E+02  0.00000E+00  9.000E+00
      25     1     1     2     0     0 -1.896150588E+02  3.272970628E+01 -2.020121512E+02  3.057106695E+02  1.250000000E+02  0.00000E+00  9.000E+00
      21     1     1     2   512   502  3.757323225E+01  2.966202392E+01  2.919837776E+02  2.958819187E+02  0.000000000E+00  0.00000E+00  9.000E+00
#rwgt            1           1   2.0719801784460794E-002           4       10434           0
</event>
<event>
      5   9999  3.79277E-02  7.79042E+01 -1.00000E+00  1.28910E-01
      21    -1     0     0   502   501  0.000000000E+00  0.000000000E+00  1.741561404E+02  1.741561404E+02  0.000000000E+00  0.00000E+00  9.000E+00
      -3    -1     0     0     0   502  0.000000000E+00  0.000000000E+00 -1.387998572E+03  1.387998572E+03  0.000000000E+00  0.00000E+00  9.000E+00
      25     1     1     2     0     0  1.081084521E+01  1.156247202E+02 -2.028349000E+02  2.650527249E+02  1.250000000E+02  0.00000E+00  9.000E+00
      25     1     1     2     0     0 -8.889073666E-01 -3.835492837E+01  1.115327360E+02  1.718616941E+02  1.250000000E+02  0.00000E+00  9.000E+00
      -3     1     1     2     0   501 -9.921937845E+00 -7.726979186E+01 -1.122540267E+03  1.125240293E+03  1.525878906E-05  0.00000E+00  9.000E+00
#rwgt            1           1   5.1065901821414517E-002           4       10584           0
</event>
<event>
      5   9999  3.79277E-02  2.89700E+01 -1.00000E+00  1.54101E-01
      -1    -1     0     0     0   501  0.000000000E+00  0.000000000E+00  7.319575057E+01  7.319575057E+01  0.000000000E+00  0.00000E+00  9.000E+00
      21    -1     0     0   501   502  0.000000000E+00  0.000000000E+00 -1.000922287E+03  1.000922287E+03  0.000000000E+00  0.00000E+00  9.000E+00
      25     1     1     2     0     0  8.929622547E+00 -1.297574212E+01 -8.279749195E+02  8.375055674E+02  1.250000000E+02  0.00000E+00  9.000E+00
      25     1     1     2     0     0  9.272383509E+00 -9.561895215E+00 -1.392700847E+02  1.876128019E+02  1.250000000E+02  0.00000E+00  9.000E+00
      -1     1     1     2     0   502 -1.820200606E+01  2.253763734E+01  3.951846822E+01  4.899966788E+01  2.023048729E-06  0.00000E+00  9.000E+00
#rwgt            1           1   3.8170408899405074E-002           4       10735           0
</event>
<event>
      5   9999  3.79277E-02  9.74502E+01 -1.00000E+00  1.24335E-01
      21    -1     0     0   511   501  0.000000000E+00  0.000000000E+00  1.023460141E+03  1.023460141E+03  0.000000000E+00  0.00000E+00  9.000E+00
      21    -1     0     0   501   502  0.000000000E+00  0.000000000E+00 -2.011047500E+02  2.011047500E+02  0.000000000E+00  0.00000E+00  9.000E+00
      25     1     1     2     0     0 -1.034626092E+02 -2.943994557E+02  5.700647319E+02  6.617963052E+02  1.250000000E+02  0.00000E+00  9.000E+00
      25     1     1     2     0     0  1.703391784E+02  2.235187475E+02  1.693847443E+01  3.080389230E+02  1.250000000E+02  0.00000E+00  9.000E+00
      21     1     1     2   511   502 -6.687656924E+01  7.088070816E+01  2.353521847E+02  2.547296629E+02  3.814697266E-06  0.00000E+00  9.000E+00
#rwgt            1           1   2.4418072337880372E-002           4       10880           0
</event>
<event>
      5   9999  3.79277E-02  3.40112E+01 -1.00000E+00  1.49348E-01
      21    -1     0     0   502   501  0.000000000E+00  0.000000000E+00  4.479815836E+02  4.479815836E+02  0.000000000E+00  0.00000E+00  9.000E+00
      21    -1     0     0   501   512  0.000000000E+00  0.000000000E+00 -1.211232463E+02  1.211232463E+02  0.000000000E+00  0.00000E+00  9.000E+00
      25     1     1     2     0     0  1.804799079E+02  6.003674562E+01  1.920574557E+02  2.978061018E+02  1.250000000E+02  0.00000E+00  9.000E+00
      25     1     1     2     0     0 -1.525272241E+02 -4.066122523E+01  1.177078837E+02  2.332338638E+02  1.250000000E+02  0.00000E+00  9.000E+00
      21     1     1     2   502   512 -2.795268381E+01 -1.937552039E+01  1.709299783E+01  3.806486435E+01  5.331201500E-07  0.00000E+00  9.000E+00
#rwgt            1           1   3.4328161166171281E-002           4       10989           0
</event>
<event>
      5   9999  3.79277E-02  2.26608E+02 -1.00000E+00  1.09708E-01
      21    -1     0     0   502   511  0.000000000E+00  0.000000000E+00  1.522505227E+02  1.522505227E+02  0.000000000E+00  0.00000E+00  9.000E+00
      21    -1     0     0   501   502  0.000000000E+00  0.000000000E+00 -9.864627151E+02  9.864627151E+02  0.000000000E+00  0.00000E+00  9.000E+00
      25     1     1     2     0     0  1.251704713E+02 -7.879590196E+01 -1.036613245E+02  2.196522507E+02  1.250000000E+02  0.00000E+00  9.000E+00
      25     1     1     2     0     0 -2.286359921E+02 -1.228129959E+02 -5.782434118E+02  6.460246838E+02  1.250000000E+02  0.00000E+00  9.000E+00
      21     1     1     2   501   511  1.034655208E+02  2.016088979E+02 -1.523074561E+02  2.730363032E+02  1.907348633E-06  0.00000E+00  9.000E+00
#rwgt            1           1   3.9083301823562601E-002           4       11156           0
</event>
<event>
      5   9999  3.79277E-02  3.32879E+01 -1.00000E+00  1.49968E-01
      21    -1     0     0   502   512  0.000000000E+00  0.000000000E+00  4.200777687E+02  4.200777687E+02  0.000000000E+00  0.00000E+00  9.000E+00
      21    -1     0     0   501   502  0.000000000E+00  0.000000000E+00 -1.822947118E+02  1.822947118E+02  0.000000000E+00  0.00000E+00  9.000E+00
      25     1     1     2     0     0  1.161732682E+02 -4.673512756E+01 -6.488128736E+01  1.884541903E+02  1.250000000E+02  0.00000E+00  9.000E+00
      25     1     1     2     0     0 -1.188534784E+02  7.991494448E+01  1.125646375E+02  2.209261082E+02  1.250000000E+02  0.00000E+00  9.000E+00
      21     1     1     2   501   512  2.680210119E+00 -3.317981692E+01  1.900997068E+02  1.929921820E+02  0.000000000E+00  0.00000E+00  9.000E+00
#rwgt            1           1   3.1099574735568118E-002           4       11210           0
</event>
<event>
      5   9999  3.79277E-02  2.89121E+01 -1.00000E+00  1.54162E-01
      21    -1     0     0   502   501  0.000000000E+00  0.000000000E+00  4.724166364E+02  4.724166364E+02  0.000000000E+00  0.00000E+00  9.000E+00
      21    -1     0     0   511   502  0.000000000E+00  0.000000000E+00 -2.353494792E+02  2.353494792E+02  0.000000000E+00  0.00000E+00  9.000E+00
      25     1     1     2     0     0 -5.086590240E+01  1.188459868E+02 -1.629425472E+02  2.426664012E+02  1.250000000E+02  0.00000E+00  9.000E+00
      25     1     1     2     0     0  4.660032041E+01 -9.025024644E+01  4.049165510E+02  4.357741504E+02  1.250000000E+02  0.00000E+00  9.000E+00
      21     1     1     2   511   501  4.265581990E+00 -2.859574039E+01 -4.906846694E+00  2.932556398E+01  4.256623047E-07  0.00000E+00  9.000E+00
#rwgt            1           1   4.2352671739003915E-002           4       11337           0
</event>
<event>
      5   9999  3.79277E-02  6.28699E+00 -1.00000E+00  2.22366E-01
      21    -1     0     0   502   512  0.000000000E+00  0.000000000E+00  2.499432785E+02  2.499432785E+02  0.000000000E+00  0.00000E+00  9.000E+00
      21    -1     0     0   501   502  0.000000000E+00  0.000000000E+00 -1.113610489E+02  1.113610489E+02  0.000000000E+00  0.00000E+00  9.000E+00
      25     1     1     2     0     0  8.162075518E+01  6.497666154E+01  5.594578929E+01  1.721593609E+02  1.250000000E+02  0.00000E+00  9.000E+00
      25     1     1     2     0     0 -8.591592701E+01 -6.038560838E+01  7.625995870E+01  1.801903147E+02  1.250000000E+02  0.00000E+00  9.000E+00
      21     1     1     2   501   512  4.295171832E+00 -4.591053155E+00  6.376481590E+00  8.954651731E+00  1.685873940E-07  0.00000E+00  9.000E+00
#rwgt            1           1   2.9766778328417641E-002           4       11502           0
</event>
<event>
      5   9999  3.79277E-02  4.72054E+01 -1.00000E+00  1.40516E-01
      21    -1     0     0   511   501  0.000000000E+00  0.000000000E+00  1.630245654E+03  1.630245654E+03  0.000000000E+00  0.00000E+00  9.000E+00
      21    -1     0     0   501   502  0.000000000E+00  0.000000000E+00 -1.110404575E+02  1.110404575E+02  0.000000000E+00  0.00000E+00  9.000E+00
      25     1     1     2     0     0 -1.471800303E+02  2.753413033E+01  3.068518974E+02  3.635975476E+02  1.250000000E+02  0.00000E+00  9.000E+00
      25     1     1     2     0     0  9.998318120E+01 -2.663392807E+01 -2.135847202E+00  1.622823604E+02  1.250000000E+02  0.00000E+00  9.000E+00
      21     1     1     2   511   502  4.719684910E+01 -9.002022551E-01  1.214489146E+03  1.215406203E+03  1.525878906E-05  0.00000E+00  9.000E+00
#rwgt            1           1   4.3437206145061982E-002           4       11783           0
</event>
<event>
      5   9999  3.79277E-02  4.41422E+01 -1.00000E+00  1.42235E-01
      21    -1     0     0   502   501  0.000000000E+00  0.000000000E+00  7.297146161E+01  7.297146161E+01  0.000000000E+00  0.00000E+00  9.000E+00
       2    -1     0     0   501     0  0.000000000E+00  0.000000000E+00 -8.615499217E+02  8.615499217E+02  0.000000000E+00  0.00000E+00  9.000E+00
      25     1     1     2     0     0 -9.725357392E+01 -1.614822514E+02 -2.579820394E+02  3.430954792E+02  1.250000000E+02  0.00000E+00  9.000E+00
      25     1     1     2     0     0  8.896638914E+01  1.181249653E+02 -3.029876153E+02  3.595761683E+02  1.250000000E+02  0.00000E+00  9.000E+00
       2     1     1     2   502     0  8.287184775E+00  4.335728618E+01 -2.276088054E+02  2.318497358E+02  2.697398305E-06  0.00000E+00  9.000E+00
#rwgt            1           1   4.3604155690957769E-002           4       12037           0
</event>
<event>
      5   9999  3.79277E-02  7.17465E+01 -1.00000E+00  1.30681E-01
      21    -1     0     0   502   501  0.000000000E+00  0.000000000E+00  4.173997275E+02  4.173997275E+02  0.000000000E+00  0.00000E+00  9.000E+00
      21    -1     0     0   501   511  0.000000000E+00  0.000000000E+00 -1.384979069E+02  1.384979069E+02  0.000000000E+00  0.00000E+00  9.000E+00
      25     1     1     2     0     0  1.398522189E+02  3.101553324E+01  3.712828140E+01  1.937114238E+02  1.250000000E+02  0.00000E+00  9.000E+00
      25     1     1     2     0     0 -8.257081988E+01 -7.421736902E+01  2.373270717E+02  2.903020791E+02  1.250000000E+02  0.00000E+00  9.000E+00
      21     1     1     2   502   511 -5.728139902E+01  4.320183578E+01  4.446467588E+00  7.188413151E+01  9.794042543E-07  0.00000E+00  9.000E+00
#rwgt            1           1   4.3560509306952259E-002           4       12218           0
</event>
<event>
      5   9999  3.79277E-02  5.91718E+01 -1.00000E+00  1.35027E-01
      21    -1     0     0   502   512  0.000000000E+00  0.000000000E+00  8.877810101E+01  8.877810101E+01  0.000000000E+00  0.00000E+00  9.000E+00
      21    -1     0     0   501   502  0.000000000E+00  0.000000000E+00 -7.603783291E+02  7.603783291E+02  0.000000000E+00  0.00000E+00  9.000E+00
      25     1     1     2     0     0 -3.568754976E+01 -7.781474058E+01 -1.818510420E+02  2.366929161E+02  1.250000000E+02  0.00000E+00  9.000E+00
      25     1     1     2     0     0  1.266900014E+01  1.323257247E+02 -5.163088819E+02  5.476042937E+02  1.250000000E+02  0.00000E+00  9.000E+00
      21     1     1     2   501   512  2.301854962E+01 -5.451098408E+01  2.655969582E+01  6.485922027E+01  2.023048729E-06  0.00000E+00  9.000E+00
#rwgt            1           1   3.9298370534173212E-002           4       12360           0
</event>
<event>
      5   9999  3.79277E-02  3.40556E+01 -1.00000E+00  1.49311E-01
      21    -1     0     0   511   501  0.000000000E+00  0.000000000E+00  8.379345368E+01  8.379345368E+01  0.000000000E+00  0.00000E+00  9.000E+00
      21    -1     0     0   501   502  0.000000000E+00  0.000000000E+00 -4.758361581E+02  4.758361581E+02  0.000000000E+00  0.00000E+00  9.000E+00
      25     1     1     2     0     0 -7.601428227E+01  7.440580790E+01 -3.190993566E+02  3.588367243E+02  1.250000000E+02  0.00000E+00  9.000E+00
      25     1     1     2     0     0  6.785349341E+01 -4.134249525E+01 -4.002528797E+01  1.534285572E+02  1.250000000E+02  0.00000E+00  9.000E+00
      21     1     1     2   511   502  8.160788856E+00 -3.306331265E+01 -3.291805993E+01  4.736433033E+01  4.768371582E-07  0.00000E+00  9.000E+00
#rwgt            1           1   6.5653519902353713E-002           4       12452           0
</event>
<event>
      5   9999  3.79277E-02  2.75249E+01 -1.00000E+00  1.55683E-01
       1    -1     0     0   502     0  0.000000000E+00  0.000000000E+00  2.644979573E+02  2.644979573E+02  0.000000000E+00  0.00000E+00  9.000E+00
      21    -1     0     0   501   502  0.000000000E+00  0.000000000E+00 -4.660177383E+02  4.660177383E+02  0.000000000E+00  0.00000E+00  9.000E+00
      25     1     1     2     0     0  8.795288351E+01  1.292695647E+01 -2.751290035E+02  3.149980706E+02  1.250000000E+02  0.00000E+00  9.000E+00
      25     1     1     2     0     0 -1.012227075E+02  1.118802985E+01 -1.318147207E+02  2.082578429E+02  1.250000000E+02  0.00000E+00  9.000E+00
       1     1     1     2   501     0  1.326982399E+01 -2.411498632E+01  2.054239432E+02  2.072597820E+02  2.697398305E-06  0.00000E+00  9.000E+00
#rwgt            1           1   3.3402636170068466E-002           4       12562           0
</event>
<event>
      5   9999  3.79277E-02  3.64372E+01 -1.00000E+00  1.47398E-01
      21    -1     0     0   502   511  0.000000000E+00  0.000000000E+00  7.451479825E+01  7.451479825E+01  0.000000000E+00  0.00000E+00  9.000E+00
      21    -1     0     0   501   502  0.000000000E+00  0.000000000E+00 -1.210341708E+03  1.210341708E+03  0.000000000E+00  0.00000E+00  9.000E+00
      25     1     1     2     0     0 -2.018547732E+01  1.636829497E+02 -4.707255149E+02  5.142052819E+02  1.250000000E+02  0.00000E+00  9.000E+00
      25     1     1     2     0     0 -1.257783231E+00 -1.342235058E+02 -6.979160517E+02  7.216157889E+02  1.250000000E+02  0.00000E+00  9.000E+00
      21     1     1     2   501   511  2.144326055E+01 -2.945944393E+01  3.281465667E+01  4.903543568E+01  6.743495762E-07  0.00000E+00  9.000E+00
#rwgt            1           1   3.9989929563454749E-002           4       12795           0
</event>
<event>
      5   9999  3.79277E-02  1.83737E+01 -1.00000E+00  1.69467E-01
       1    -1     0     0   502     0  0.000000000E+00  0.000000000E+00  1.177173469E+03  1.177173469E+03  0.000000000E+00  0.00000E+00  9.000E+00
      21    -1     0     0   501   502  0.000000000E+00  0.000000000E+00 -2.991902139E+01  2.991902139E+01  0.000000000E+00  0.00000E+00  9.000E+00
      25     1     1     2     0     0  5.362756476E+01 -8.596771006E+01  6.479772639E+02  6.676570208E+02  1.250000000E+02  0.00000E+00  9.000E+00
      25     1     1     2     0     0 -6.713741391E+01  9.842063126E+01  3.636253824E+02  4.025449934E+02  1.250000000E+02  0.00000E+00  9.000E+00
       1     1     1     2   501     0  1.350984915E+01 -1.245292120E+01  1.356518015E+02  1.368904764E+02  1.907348633E-06  0.00000E+00  9.000E+00
#rwgt            1           1   4.2747504256246641E-002           4       12917           0
</event>
<event>
      5   9999  3.79277E-02  2.79303E+01 -1.00000E+00  1.55228E-01
      21    -1     0     0   502   501  0.000000000E+00  0.000000000E+00  1.885842227E+03  1.885842227E+03  0.000000000E+00  0.00000E+00  9.000E+00
       2    -1     0     0   501     0  0.000000000E+00  0.000000000E+00 -1.548860249E+03  1.548860249E+03  0.000000000E+00  0.00000E+00  9.000E+00
      25     1     1     2     0     0 -1.017451661E+02  2.879703409E+01 -5.241774554E+01  1.719126757E+02  1.250000000E+02  0.00000E+00  9.000E+00
      25     1     1     2     0     0  1.207916193E+02 -8.368278850E+00  1.821812083E+03  1.830105163E+03  1.250000000E+02  0.00000E+00  9.000E+00
       2     1     1     2   502     0 -1.904645317E+01 -2.042875524E+01 -1.432412360E+03  1.432684637E+03  2.157918644E-05  0.00000E+00  9.000E+00
#rwgt            1           1  0.12881924996003014                4       13058           0
</event>
<event>
      5   9999  3.79277E-02  1.16649E+01 -1.00000E+00  1.88331E-01
      21    -1     0     0   502   501  0.000000000E+00  0.000000000E+00  2.234658193E+02  2.234658193E+02  0.000000000E+00  0.00000E+00  9.000E+00
      21    -1     0     0   501   511  0.000000000E+00  0.000000000E+00 -4.832705727E+02  4.832705727E+02  0.000000000E+00  0.00000E+00  9.000E+00
      25     1     1     2     0     0 -5.947154631E+01 -4.262256248E+01  1.483688916E+02  2.073448231E+02  1.250000000E+02  0.00000E+00  9.000E+00
      25     1     1     2     0     0  5.286661854E+01  5.223740249E+01 -7.067210240E+01  1.616885019E+02  1.250000000E+02  0.00000E+00  9.000E+00
      21     1     1     2   502   511  6.604927768E+00 -9.614840019E+00 -3.375015427E+02  3.377030671E+02  6.607249480E-06  0.00000E+00  9.000E+00
#rwgt            1           1   5.3007719577063399E-002           4       13286           0
</event>
<event>
      5   9999  3.79277E-02  3.04766E+01 -1.00000E+00  1.52566E-01
      21    -1     0     0   502   501  0.000000000E+00  0.000000000E+00  3.255737483E+02  3.255737483E+02  0.000000000E+00  0.00000E+00  9.000E+00
       2    -1     0     0   501     0  0.000000000E+00  0.000000000E+00 -2.174417330E+02  2.174417330E+02  0.000000000E+00  0.00000E+00  9.000E+00
      25     1     1     2     0     0 -1.405030499E+01  7.069471548E+01  1.615689574E+02  2.166210559E+02  1.250000000E+02  0.00000E+00  9.000E+00
      25     1     1     2     0     0 -5.221427157E+00 -4.708493994E+01  1.019063807E+02  1.680897537E+02  1.250000000E+02  0.00000E+00  9.000E+00
       2     1     1     2   502     0  1.927173215E+01 -2.360977555E+01 -1.553433227E+02  1.583046717E+02  0.000000000E+00  0.00000E+00  9.000E+00
#rwgt            1           1   2.8373851407799206E-002           4       13580           0
</event>
<event>
      5   9999  3.79277E-02  9.87962E+01 -1.00000E+00  1.24065E-01
      21    -1     0     0   502   501  0.000000000E+00  0.000000000E+00  2.907065509E+02  2.907065509E+02  0.000000000E+00  0.00000E+00  9.000E+00
      -1    -1     0     0     0   502  0.000000000E+00  0.000000000E+00 -6.291522479E+02  6.291522479E+02  0.000000000E+00  0.00000E+00  9.000E+00
      25     1     1     2     0     0  2.473864306E+02  4.421337762E+01  1.664287010E+01  2.811705068E+02  1.250000000E+02  0.00000E+00  9.000E+00
      25     1     1     2     0     0 -2.132247296E+02  4.848868150E+01  1.821494606E+01  2.525326154E+02  1.250000000E+02  0.00000E+00  9.000E+00
      -1     1     1     2     0   501 -3.416170094E+01 -9.270205913E+01 -3.733035132E+02  3.861556766E+02  0.000000000E+00  0.00000E+00  9.000E+00
#rwgt            1           1   3.6106838618924712E-002           4       13690           0
</event>
<event>
      5   9999  3.79277E-02  5.04910E+01 -1.00000E+00  1.38834E-01
       2    -1     0     0   502     0  0.000000000E+00  0.000000000E+00  1.464613289E+03  1.464613289E+03  0.000000000E+00  0.00000E+00  9.000E+00
      21    -1     0     0   501   502  0.000000000E+00  0.000000000E+00 -2.394126339E+02  2.394126339E+02  0.000000000E+00  0.00000E+00  9.000E+00
      25     1     1     2     0     0 -1.574773321E+02 -5.628897515E+01 -5.887559655E+01  2.169306219E+02  1.250000000E+02  0.00000E+00  9.000E+00
      25     1     1     2     0     0  1.071649402E+02  6.053233471E+01 -2.486798695E+01  1.771776079E+02  1.250000000E+02  0.00000E+00  9.000E+00
       2     1     1     2   501     0  5.031239183E+01 -4.243359564E+00  1.308944238E+03  1.309917693E+03  1.525878906E-05  0.00000E+00  9.000E+00
#rwgt            1           1   3.0678715257700075E-002           4       13743           0
</event>
<event>
      5   9999 -3.79277E-02  1.36533E+01 -1.00000E+00  1.81321E-01
       2    -1     0     0   502     0  0.000000000E+00  0.000000000E+00  6.819941876E+02  6.819941876E+02  0.000000000E+00  0.00000E+00  9.000E+00
      21    -1     0     0   501   502  0.000000000E+00  0.000000000E+00 -7.352815367E+02  7.352815367E+02  0.000000000E+00  0.00000E+00  9.000E+00
      25     1     1     2     0     0 -1.921275076E+02  4.830060572E+01 -4.378395218E+02  4.965625586E+02  1.250000000E+02  0.00000E+00  9.000E+00
      25     1     1     2     0     0  1.934608331E+02 -6.188860096E+01 -2.149414776E+02  3.210640616E+02  1.250000000E+02  0.00000E+00  9.000E+00
       2     1     1     2   501     0 -1.333325536E+00  1.358799523E+01  5.994936503E+02  5.996491042E+02  7.629394531E-06  0.00000E+00  9.000E+00
#rwgt            1           1 -0.25907237085907353                4       13818           0
</event>
<event>
      5   9999  3.79277E-02  4.75827E+01 -1.00000E+00  1.40315E-01
      21    -1     0     0   502   501  0.000000000E+00  0.000000000E+00  4.624213322E+02  4.624213322E+02  0.000000000E+00  0.00000E+00  9.000E+00
      21    -1     0     0   501   511  0.000000000E+00  0.000000000E+00 -4.474052243E+02  4.474052243E+02  0.000000000E+00  0.00000E+00  9.000E+00
      25     1     1     2     0     0  1.047013639E+01 -7.116708414E+01  3.269905352E+02  3.573824111E+02  1.250000000E+02  0.00000E+00  9.000E+00
      25     1     1     2     0     0  2.080072900E+01  1.070312970E+02  6.078623298E+01  1.766588095E+02  1.250000000E+02  0.00000E+00  9.000E+00
      21     1     1     2   502   511 -3.127086539E+01 -3.586421286E+01 -3.727606604E+02  3.757853359E+02  5.394796609E-06  0.00000E+00  9.000E+00
#rwgt            1           1   4.7931492841755546E-002           4       14058           0
</event>
<event>
      5   9999  3.79277E-02  2.08868E+01 -1.00000E+00  1.64829E-01
      21    -1     0     0   502   512  0.000000000E+00  0.000000000E+00  2.735729347E+02  2.735729347E+02  0.000000000E+00  0.00000E+00  9.000E+00
      21    -1     0     0   501   502  0.000000000E+00  0.000000000E+00 -2.015574428E+03  2.015574428E+03  0.000000000E+00  0.00000E+00  9.000E+00
      25     1     1     2     0     0 -5.758336613E+02 -2.788316723E+02 -3.594156685E+02  7.444032037E+02  1.250000000E+02  0.00000E+00  9.000E+00
      25     1     1     2     0     0  5.792797331E+02  2.994322165E+02 -1.362959523E+03  1.516083218E+03  1.250000000E+02  0.00000E+00  9.000E+00
      21     1     1     2   501   512 -3.446071748E+00 -2.060054416E+01 -1.962630131E+01  2.866094090E+01  0.000000000E+00  0.00000E+00  9.000E+00
#rwgt            1           1   1.4914908278423213E-002           4       14130           0
</event>
<event>
      5   9999  3.79277E-02  7.67970E+00 -1.00000E+00  2.10018E-01
      21    -1     0     0   511   501  0.000000000E+00  0.000000000E+00  4.783106772E+02  4.783106772E+02  0.000000000E+00  0.00000E+00  9.000E+00
      21    -1     0     0   501   502  0.000000000E+00  0.000000000E+00 -8.465804087E+01  8.465804087E+01  0.000000000E+00  0.00000E+00  9.000E+00
      25     1     1     2     0     0 -3.051453232E+01 -1.231157244E+01  1.743877961E+02  2.170686871E+02  1.250000000E+02  0.00000E+00  9.000E+00
      25     1     1     2     0     0  3.695740951E+01  8.132202946E+00  4.170829266E+00  1.306689659E+02  1.250000000E+02  0.00000E+00  9.000E+00
      21     1     1     2   511   502 -6.442877192E+00  4.179369492E+00  2.150940109E+02  2.152310650E+02  2.697398305E-06  0.00000E+00  9.000E+00
#rwgt            1           1  0.10120472133613993                4       14494           0
</event>
<event>
      5   9999  3.79277E-02  5.27721E+02 -1.00000E+00  9.81908E-02
      21    -1     0     0   502   501  0.000000000E+00  0.000000000E+00  2.618919710E+02  2.618919710E+02  0.000000000E+00  0.00000E+00  9.000E+00
       2    -1     0     0   501     0  0.000000000E+00  0.000000000E+00 -1.739966722E+03  1.739966722E+03  0.000000000E+00  0.00000E+00  9.000E+00
      25     1     1     2     0     0 -4.437683933E+02  2.671046807E+02 -5.857174753E+02  7.918113780E+02  1.250000000E+02  0.00000E+00  9.000E+00
      25     1     1     2     0     0  6.291921051E+01  9.819501452E+01  2.726408569E+00  1.709781309E+02  1.250000000E+02  0.00000E+00  9.000E+00
       2     1     1     2   502     0  3.808491828E+02 -3.652996953E+02 -8.950836840E+02  1.039069184E+03  0.000000000E+00  0.00000E+00  9.000E+00
#rwgt            2          13   8.0726800006196596E-005           4       14857           0
</event>
<event>
      5   9999  3.79277E-02  1.43810E+02 -1.00000E+00  1.17124E-01
      21    -1     0     0   502   511  0.000000000E+00  0.000000000E+00  2.236721706E+02  2.236721706E+02  0.000000000E+00  0.00000E+00  9.000E+00
      21    -1     0     0   501   502  0.000000000E+00  0.000000000E+00 -6.709732231E+02  6.709732231E+02  0.000000000E+00  0.00000E+00  9.000E+00
      25     1     1     2     0     0  4.377846234E+01 -1.797436059E+02  3.197752454E+01  2.255479543E+02  1.250000000E+02  0.00000E+00  9.000E+00
      25     1     1     2     0     0 -1.865107799E+02  1.973165607E+02 -4.153377658E+02  5.117133532E+02  1.250000000E+02  0.00000E+00  9.000E+00
      21     1     1     2   501   511  1.427323176E+02 -1.757295480E+01 -6.394081125E+01  1.573840861E+02  2.611744678E-06  0.00000E+00  9.000E+00
#rwgt            1           1   3.3011827975652407E-002           4       14921           0
</event>
<event>
      5   9999  3.79277E-02  8.39516E+01 -1.00000E+00  1.27344E-01
      21    -1     0     0   502   512  0.000000000E+00  0.000000000E+00  2.031817733E+02  2.031817733E+02  0.000000000E+00  0.00000E+00  9.000E+00
      21    -1     0     0   501   502  0.000000000E+00  0.000000000E+00 -7.192957746E+02  7.192957746E+02  0.000000000E+00  0.00000E+00  9.000E+00
      25     1     1     2     0     0  5.102656671E+01  2.913147291E+02 -3.399894225E+02  4.676385242E+02  1.250000000E+02  0.00000E+00  9.000E+00
      25     1     1     2     0     0 -1.271205458E+02 -2.558524130E+02 -1.963201408E+02  3.684924533E+02  1.250000000E+02  0.00000E+00  9.000E+00
      21     1     1     2   501   512  7.609397907E+01 -3.546231610E+01  2.019556198E+01  8.634657051E+01  1.685873940E-06  0.00000E+00  9.000E+00
#rwgt            1           1   2.8472929222019619E-002           4       14961           0
</event>
<event>
      5   9999  3.79277E-02  4.37041E+01 -1.00000E+00  1.42494E-01
      21    -1     0     0   502   501  0.000000000E+00  0.000000000E+00  2.099291110E+02  2.099291110E+02  0.000000000E+00  0.00000E+00  9.000E+00
      21    -1     0     0   501   511  0.000000000E+00  0.000000000E+00 -4.055643112E+02  4.055643112E+02  0.000000000E+00  0.00000E+00  9.000E+00
      25     1     1     2     0     0  2.555109172E+01 -1.702508281E+02  1.133172912E+01  2.130530705E+02  1.250000000E+02  0.00000E+00  9.000E+00
      25     1     1     2     0     0 -5.038173355E+01  1.342857989E+02  6.701592547E-01  1.902536306E+02  1.250000000E+02  0.00000E+00  9.000E+00
      21     1     1     2   502   511  2.483064183E+01  3.596502920E+01 -2.076370885E+02  2.121867212E+02  0.000000000E+00  0.00000E+00  9.000E+00
#rwgt            1           1   3.7841608741118825E-002           4       15122           0
</event>
<event>
      5   9999  3.79277E-02  1.59565E+01 -1.00000E+00  1.74891E-01
      21    -1     0     0   502   501  0.000000000E+00  0.000000000E+00  6.941880032E+02  6.941880032E+02  0.000000000E+00  0.00000E+00  9.000E+00
       2    -1     0     0   501     0  0.000000000E+00  0.000000000E+00 -1.658740642E+03  1.658740642E+03  0.000000000E+00  0.00000E+00  9.000E+00
      25     1     1     2     0     0 -8.624605125E+01  1.660598755E+02  2.687862114E+02  3.505499837E+02  1.250000000E+02  0.00000E+00  9.000E+00
      25     1     1     2     0     0  7.122352053E+01 -1.714388726E+02  3.519103684E+02  4.170491390E+02  1.250000000E+02  0.00000E+00  9.000E+00
       2     1     1     2   502     0  1.502253072E+01  5.378997148E+00 -1.585249219E+03  1.585329523E+03  3.051757812E-05  0.00000E+00  9.000E+00
#rwgt            1           1   3.9409894257341031E-002           4       15284           0
</event>
<event>
      5   9999  3.79277E-02  8.49967E+01 -1.00000E+00  1.27089E-01
      21    -1     0     0   502   501  0.000000000E+00  0.000000000E+00  1.803530796E+02  1.803530796E+02  0.000000000E+00  0.00000E+00  9.000E+00
      21    -1     0     0   511   502  0.000000000E+00  0.000000000E+00 -7.375109239E+02  7.375109239E+02  0.000000000E+00  0.00000E+00  9.000E+00
      25     1     1     2     0     0  1.018307641E+02  1.205844857E+02 -7.975297463E+01  2.165540572E+02  1.250000000E+02  0.00000E+00  9.000E+00
      25     1     1     2     0     0 -1.595232935E+02 -5.816646887E+01  5.563555550E+00  2.109193505E+02  1.250000000E+02  0.00000E+00  9.000E+00
      21     1     1     2   511   501  5.769252936E+01 -6.241801687E+01 -4.829684252E+02  4.903905958E+02  5.394796609E-06  0.00000E+00  9.000E+00
#rwgt            1           1   3.8172502723968688E-002           4       15510           0
</event>
<event>
      5   9999  3.79277E-02  4.36267E+01 -1.00000E+00  1.42541E-01
      21    -1     0     0   502   501  0.000000000E+00  0.000000000E+00  3.323281063E+01  3.323281063E+01  0.000000000E+00  0.00000E+00  9.000E+00
      21    -1     0     0   512   502  0.000000000E+00  0.000000000E+00 -1.084363995E+03  1.084363995E+03  0.000000000E+00  0.00000E+00  9.000E+00
      25     1     1     2     0     0 -6.768960052E+01 -7.095027889E+01 -2.709983015E+02  3.141351676E+02  1.250000000E+02  0.00000E+00  9.000E+00
      25     1     1     2     0     0  6.828365830E+01  2.732762626E+01 -5.268026270E+02  5.464022922E+02  1.250000000E+02  0.00000E+00  9.000E+00
      21     1     1     2   512   501 -5.940577826E-01  4.362265263E+01 -2.533302556E+02  2.570593455E+02  0.000000000E+00  0.00000E+00  9.000E+00
#rwgt            1           1   3.5641641540749058E-002           4       15588           0
</event>
<event>
      5   9999 -3.79277E-02  9.50009E+01 -1.00000E+00  1.24838E-01
      21    -1     0     0   502   501  0.000000000E+00  0.000000000E+00  1.027219047E+02  1.027219047E+02  0.000000000E+00  0.00000E+00  9.000E+00
      21    -1     0     0   501   511  0.000000000E+00  0.000000000E+00 -1.198516795E+03  1.198516795E+03  0.000000000E+00  0.00000E+00  9.000E+00
      25     1     1     2     0     0 -1.270043862E+02  1.302185860E+02 -2.193034873E+02  3.111366481E+02  1.250000000E+02  0.00000E+00  9.000E+00
      25     1     1     2     0     0  1.990136901E+02 -6.825225969E+01 -2.273073819E+02  3.340036911E+02  1.250000000E+02  0.00000E+00  9.000E+00
      21     1     1     2   502   511 -7.200930388E+01 -6.196632635E+01 -6.491840208E+02  6.560983603E+02  1.078959322E-05  0.00000E+00  9.000E+00
#rwgt            1           1  -4.5796059011892452E-002           4       15761           0
</event>
<event>
      5   9999  3.79277E-02  3.35973E+01 -1.00000E+00  1.49701E-01
      21    -1     0     0   502   501  0.000000000E+00  0.000000000E+00  1.527360835E+02  1.527360835E+02  0.000000000E+00  0.00000E+00  9.000E+00
      21    -1     0     0   512   502  0.000000000E+00  0.000000000E+00 -3.882136503E+02  3.882136503E+02  0.000000000E+00  0.00000E+00  9.000E+00
      25     1     1     2     0     0  1.103603965E+02  5.318285566E+01 -2.307505821E+02  2.896181355E+02  1.250000000E+02  0.00000E+00  9.000E+00
      25     1     1     2     0     0 -9.026064736E+01 -8.010451215E+01  5.547413112E+01  1.823899574E+02  1.250000000E+02  0.00000E+00  9.000E+00
      21     1     1     2   512   501 -2.009974915E+01  2.692165649E+01 -6.020111584E+01  6.894164092E+01  1.168007728E-06  0.00000E+00  9.000E+00
#rwgt            1           1   5.0181896393087219E-002           4       15847           0
</event>
<event>
      5   9999  3.79277E-02  2.19051E+01 -1.00000E+00  1.63173E-01
      21    -1     0     0   502   501  0.000000000E+00  0.000000000E+00  8.084890558E+02  8.084890558E+02  0.000000000E+00  0.00000E+00  9.000E+00
      21    -1     0     0   501   511  0.000000000E+00  0.000000000E+00 -5.577275509E+01  5.577275509E+01  0.000000000E+00  0.00000E+00  9.000E+00
      25     1     1     2     0     0  7.477494132E+01  3.694796328E+00  6.220285859E+02  6.388657958E+02  1.250000000E+02  0.00000E+00  9.000E+00
      25     1     1     2     0     0 -9.578488423E+01 -9.892869629E+00  9.702450909E+01  1.852332807E+02  1.250000000E+02  0.00000E+00  9.000E+00
      21     1     1     2   502   511  2.100994292E+01  6.198073301E+00  3.366320574E+01  4.016273440E+01  6.743495762E-07  0.00000E+00  9.000E+00
#rwgt            1           1   2.3434464176730643E-002           4       16003           0
</event>
<event>
      5   9999  3.79277E-02  7.15822E+01 -1.00000E+00  1.30731E-01
      21    -1     0     0   502   501  0.000000000E+00  0.000000000E+00  6.422342793E+02  6.422342793E+02  0.000000000E+00  0.00000E+00  9.000E+00
      21    -1     0     0   512   502  0.000000000E+00  0.000000000E+00 -1.346745069E+02  1.346745069E+02  0.000000000E+00  0.00000E+00  9.000E+00
      25     1     1     2     0     0 -1.987471495E+01 -1.815146238E+02  5.185844798E+01  2.272814589E+02  1.250000000E+02  0.00000E+00  9.000E+00
      25     1     1     2     0     0  8.524600376E+01  1.523493768E+02  4.150706732E+02  4.673177479E+02  1.250000000E+02  0.00000E+00  9.000E+00
      21     1     1     2   512   501 -6.537128881E+01  2.916524692E+01  4.063065126E+01  8.230957933E+01  1.168007728E-06  0.00000E+00  9.000E+00
#rwgt            1           1   2.6898267738918583E-002           4       16188           0
</event>
<event>
      5   9999  3.79277E-02  4.18462E+01 -1.00000E+00  1.43635E-01
      21    -1     0     0   511   501  0.000000000E+00  0.000000000E+00  3.251543595E+01  3.251543595E+01  0.000000000E+00  0.00000E+00  9.000E+00
      21    -1     0     0   501   502  0.000000000E+00  0.000000000E+00 -1.339475662E+03  1.339475662E+03  0.000000000E+00  0.00000E+00  9.000E+00
      25     1     1     2     0     0 -4.236635547E+01 -8.733934189E+01 -7.391700744E+02  7.559235858E+02  1.250000000E+02  0.00000E+00  9.000E+00
      25     1     1     2     0     0  8.128665149E+01  1.027118329E+02 -5.285489788E+02  5.587005130E+02  1.250000000E+02  0.00000E+00  9.000E+00
      21     1     1     2   511   502 -3.892029602E+01 -1.537249104E+01 -3.924117263E+01  5.736699881E+01  1.430511475E-06  0.00000E+00  9.000E+00
#rwgt            1           1   4.6218247496543526E-002           4       16265           0
</event>
<event>
      5   9999  3.79277E-02  3.57937E+01 -1.00000E+00  1.47898E-01
      21    -1     0     0   512   501  0.000000000E+00  0.000000000E+00  8.300690505E+02  8.300690505E+02  0.000000000E+00  0.00000E+00  9.000E+00
      21    -1     0     0   501   502  0.000000000E+00  0.000000000E+00 -7.870945090E+02  7.870945090E+02  0.000000000E+00  0.00000E+00  9.000E+00
      25     1     1     2     0     0 -3.317459635E+02 -5.734046664E+01 -4.577575340E+02  5.818163571E+02  1.250000000E+02  0.00000E+00  9.000E+00
      25     1     1     2     0     0  2.995975192E+02  7.307792585E+01 -1.630833544E+02  3.705674531E+02  1.250000000E+02  0.00000E+00  9.000E+00
      21     1     1     2   512   502  3.214844421E+01 -1.573745921E+01  6.638154300E+02  6.647797494E+02  0.000000000E+00  0.00000E+00  9.000E+00
#rwgt            1           1   4.0053477897205467E-002           4       16403           0
</event>
<event>
      5   9999  3.79277E-02  9.30533E+01 -1.00000E+00  1.25251E-01
      21    -1     0     0   502   501  0.000000000E+00  0.000000000E+00  1.895008111E+02  1.895008111E+02  0.000000000E+00  0.00000E+00  9.000E+00
      21    -1     0     0   501   511  0.000000000E+00  0.000000000E+00 -4.027210521E+02  4.027210521E+02  0.000000000E+00  0.00000E+00  9.000E+00
      25     1     1     2     0     0  5.704904196E+01  4.346710199E+01  9.569061904E+01  1.729903949E+02  1.250000000E+02  0.00000E+00  9.000E+00
      25     1     1     2     0     0 -4.206169096E+01 -1.353055126E+02 -1.867220462E+02  2.656442925E+02  1.250000000E+02  0.00000E+00  9.000E+00
      21     1     1     2   502   511 -1.498735100E+01  9.183841065E+01 -1.221888138E+02  1.535871758E+02  2.336015456E-06  0.00000E+00  9.000E+00
#rwgt            1           1   5.2603601508720718E-002           4       16676           0
</event>
<event>
      5   9999  3.79277E-02  3.36493E+01 -1.00000E+00  1.49656E-01
      21    -1     0     0   502   501  0.000000000E+00  0.000000000E+00  1.222221170E+03  1.222221170E+03  0.000000000E+00  0.00000E+00  9.000E+00
      21    -1     0     0   501   512  0.000000000E+00  0.000000000E+00 -8.931302583E+01  8.931302583E+01  0.000000000E+00  0.00000E+00  9.000E+00
      25     1     1     2     0     0  9.810066985E+01 -8.240584573E+00  1.028817646E+03  1.041048701E+03  1.250000000E+02  0.00000E+00  9.000E+00
      25     1     1     2     0     0 -8.903568782E+01  4.064581390E+01  1.467212085E+02  2.161748110E+02  1.250000000E+02  0.00000E+00  9.000E+00
      21     1     1     2   502   512 -9.064982031E+00 -3.240522933E+01 -4.263071111E+01  5.431068327E+01  4.768371582E-07  0.00000E+00  9.000E+00
#rwgt            1           1   5.0163832192992350E-002           4       16722           0
</event>
<event>
      5   9999  3.79277E-02  3.35980E+01 -1.00000E+00  1.49700E-01
      21    -1     0     0   502   501  0.000000000E+00  0.000000000E+00  1.118775488E+02  1.118775488E+02  0.000000000E+00  0.00000E+00  9.000E+00
      21    -1     0     0   511   502  0.000000000E+00  0.000000000E+00 -1.486595905E+03  1.486595905E+03  0.000000000E+00  0.00000E+00  9.000E+00
      25     1     1     2     0     0 -2.303826453E+01 -8.439408881E+01  2.171941334E+01  1.541098854E+02  1.250000000E+02  0.00000E+00  9.000E+00
      25     1     1     2     0     0  5.663620246E+01  8.446241852E+01 -2.499981163E+02  2.974317026E+02  1.250000000E+02  0.00000E+00  9.000E+00
      21     1     1     2   511   501 -3.359793794E+01 -6.832971077E-02 -1.146439653E+03  1.146931866E+03  1.525878906E-05  0.00000E+00  9.000E+00
#rwgt            1           1   4.1004198072580045E-002           4       16984           0
</event>
<event>
      5   9999  3.79277E-02  4.26421E+02 -1.00000E+00  1.00856E-01
      21    -1     0     0   502   501  0.000000000E+00  0.000000000E+00  3.153823541E+02  3.153823541E+02  0.000000000E+00  0.00000E+00  9.000E+00
      21    -1     0     0   512   502  0.000000000E+00  0.000000000E+00 -1.813145820E+03  1.813145820E+03  0.000000000E+00  0.00000E+00  9.000E+00
      25     1     1     2     0     0  4.719861404E+02 -1.516514014E+02 -1.494500904E+02  5.326625515E+02  1.250000000E+02  0.00000E+00  9.000E+00
      25     1     1     2     0     0 -5.624276363E+01  5.682276040E+01  3.147865931E+01  1.516838177E+02  1.250000000E+02  0.00000E+00  9.000E+00
      21     1     1     2   512   501 -4.157433767E+02  9.482864097E+01 -1.379792035E+03  1.444181805E+03  1.525878906E-05  0.00000E+00  9.000E+00
#rwgt            2          11   2.2084861651355036E-004           4       17113           0
</event>
<event>
      5   9999  3.79277E-02  4.07461E+01 -1.00000E+00  1.44344E-01
      21    -1     0     0   502   501  0.000000000E+00  0.000000000E+00  6.075529301E+02  6.075529301E+02  0.000000000E+00  0.00000E+00  9.000E+00
      21    -1     0     0   511   502  0.000000000E+00  0.000000000E+00 -3.739547291E+02  3.739547291E+02  0.000000000E+00  0.00000E+00  9.000E+00
      25     1     1     2     0     0  1.611436043E+02  3.148777532E+02 -1.375079304E+02  3.995606232E+02  1.250000000E+02  0.00000E+00  9.000E+00
      25     1     1     2     0     0 -1.208153741E+02 -3.206986061E+02  3.925711512E+02  5.358927686E+02  1.250000000E+02  0.00000E+00  9.000E+00
      21     1     1     2   511   501 -4.032823017E+01  5.820852941E+00 -2.146501979E+01  4.605426747E+01  9.233911863E-07  0.00000E+00  9.000E+00
#rwgt            1           1  0.16121645366263704                4       17133           0
</event>
<event>
      5   9999  3.79277E-02  1.62646E+01 -1.00000E+00  1.74135E-01
      21    -1     0     0   502   501  0.000000000E+00  0.000000000E+00  9.167351444E+01  9.167351444E+01  0.000000000E+00  0.00000E+00  9.000E+00
      21    -1     0     0   512   502  0.000000000E+00  0.000000000E+00 -3.921769164E+02  3.921769164E+02  0.000000000E+00  0.00000E+00  9.000E+00
      25     1     1     2     0     0  6.670659632E+01 -7.028719758E+01 -3.326709339E+01  1.616222746E+02  1.250000000E+02  0.00000E+00  9.000E+00
      25     1     1     2     0     0 -8.230758533E+01  6.568856325E+01 -2.482891506E+02  2.972575117E+02  1.250000000E+02  0.00000E+00  9.000E+00
      21     1     1     2   512   501  1.560098901E+01  4.598634331E+00 -1.894715794E+01  2.497064456E+01  0.000000000E+00  0.00000E+00  9.000E+00
#rwgt            1           1   4.6811716539273261E-002           4       17280           0
</event>
<event>
      5   9999  3.79277E-02  1.25012E+01 -1.00000E+00  1.85179E-01
      21    -1     0     0   502   501  0.000000000E+00  0.000000000E+00  1.644152957E+02  1.644152957E+02  0.000000000E+00  0.00000E+00  9.000E+00
      21    -1     0     0   511   502  0.000000000E+00  0.000000000E+00 -3.085193114E+02  3.085193114E+02  0.000000000E+00  0.00000E+00  9.000E+00
      25     1     1     2     0     0 -1.771204189E+02  2.032455882E+01 -7.868682224E+01  2.315196460E+02  1.250000000E+02  0.00000E+00  9.000E+00
      25     1     1     2     0     0  1.740830148E+02 -8.198007209E+00 -4.766405476E+01  2.197019924E+02  1.250000000E+02  0.00000E+00  9.000E+00
      21     1     1     2   511   501  3.037404125E+00 -1.212655161E+01 -1.775313867E+01  2.171296872E+01  2.384185791E-07  0.00000E+00  9.000E+00
#rwgt            1           1   3.9308819541620375E-002           4       17457           0
</event>
<event>
      5   9999  3.79277E-02  1.29754E+01 -1.00000E+00  1.83529E-01
      21    -1     0     0   502   512  0.000000000E+00  0.000000000E+00  7.048539172E+02  7.048539172E+02  0.000000000E+00  0.00000E+00  9.000E+00
      21    -1     0     0   501   502  0.000000000E+00  0.000000000E+00 -7.068254143E+01  7.068254143E+01  0.000000000E+00  0.00000E+00  9.000E+00
      25     1     1     2     0     0  1.495741150E+02  4.290515868E+00  2.096092391E+02  2.862723485E+02  1.250000000E+02  0.00000E+00  9.000E+00
      25     1     1     2     0     0 -1.393282252E+02  3.670884844E+00  2.406689222E+02  3.049136924E+02  1.250000000E+02  0.00000E+00  9.000E+00
      21     1     1     2   501   512 -1.024588990E+01 -7.961400711E+00  1.838932145E+02  1.843504177E+02  2.697398305E-06  0.00000E+00  9.000E+00
#rwgt            1           1   3.6485228030912795E-002           4       17793           0
</event>
<event>
      5   9999  3.79277E-02  1.04195E+02 -1.00000E+00  1.23031E-01
      21    -1     0     0   502   501  0.000000000E+00  0.000000000E+00  1.420621766E+03  1.420621766E+03  0.000000000E+00  0.00000E+00  9.000E+00
      21    -1     0     0   511   502  0.000000000E+00  0.000000000E+00 -1.085083377E+02  1.085083377E+02  0.000000000E+00  0.00000E+00  9.000E+00
      25     1     1     2     0     0  2.327486318E+02  1.762138372E+01  6.900198204E+02  7.390769861E+02  1.250000000E+02  0.00000E+00  9.000E+00
      25     1     1     2     0     0 -2.993163505E+02  6.253644335E+01  5.978961625E+02  6.830855771E+02  1.250000000E+02  0.00000E+00  9.000E+00
      21     1     1     2   511   501  6.656771865E+01 -8.015782706E+01  2.419744559E+01  1.069675408E+02  1.877309769E-06  0.00000E+00  9.000E+00
#rwgt            1           1   3.9496274183606184E-002           4       18059           0
</event>
<event>
      5   9999  3.79277E-02  7.05721E+01 -1.00000E+00  1.31042E-01
      21    -1     0     0   502   501  0.000000000E+00  0.000000000E+00  1.349821882E+03  1.349821882E+03  0.000000000E+00  0.00000E+00  9.000E+00
      21    -1     0     0   512   502  0.000000000E+00  0.000000000E+00 -4.802375823E+01  4.802375823E+01  0.000000000E+00  0.00000E+00  9.000E+00
      25     1     1     2     0     0  1.045226147E+02  1.302939733E+01  3.832302507E+02  4.166355328E+02  1.250000000E+02  0.00000E+00  9.000E+00
      25     1     1     2     0     0 -1.435546461E+02 -7.182499466E+01  8.748477255E+02  8.981928017E+02  1.250000000E+02  0.00000E+00  9.000E+00
      21     1     1     2   512   501  3.903203142E+01  5.879559733E+01  4.372014767E+01  8.301730576E+01  1.907348633E-06  0.00000E+00  9.000E+00
#rwgt            1           1   4.8248069097849455E-002           4       18219           0
</event>
<event>
      5   9999  3.79277E-02  5.59066E+01 -1.00000E+00  1.36364E-01
      21    -1     0     0   502   511  0.000000000E+00  0.000000000E+00  1.953847516E+02  1.953847516E+02  0.000000000E+00  0.00000E+00  9.000E+00
      21    -1     0     0   501   502  0.000000000E+00  0.000000000E+00 -8.132820545E+02  8.132820545E+02  0.000000000E+00  0.00000E+00  9.000E+00
      25     1     1     2     0     0 -1.368727088E+02  1.402057151E+01 -7.183914806E+02  7.420525818E+02  1.250000000E+02  0.00000E+00  9.000E+00
      25     1     1     2     0     0  1.133410725E+02  3.669249545E+01  2.778873583E+01  1.748992618E+02  1.250000000E+02  0.00000E+00  9.000E+00
      21     1     1     2   501   511  2.353163634E+01 -5.071306696E+01  7.270544180E+01  9.171496245E+01  9.536743164E-07  0.00000E+00  9.000E+00
#rwgt            1           1   1.8605563578958203E-002           4       18270           0
</event>
<event>
      5   9999  3.79277E-02  1.37343E+02 -1.00000E+00  1.17931E-01
      21    -1     0     0   502   512  0.000000000E+00  0.000000000E+00  3.752909050E+02  3.752909050E+02  0.000000000E+00  0.00000E+00  9.000E+00
      21    -1     0     0   501   502  0.000000000E+00  0.000000000E+00 -7.223779142E+02  7.223779142E+02  0.000000000E+00  0.00000E+00  9.000E+00
      25     1     1     2     0     0  1.967334384E+02  1.618333543E+02  1.738940696E+02  3.328035874E+02  1.250000000E+02  0.00000E+00  9.000E+00
      25     1     1     2     0     0 -6.168358768E+01 -1.368383618E+02 -5.824962995E+02  6.143749191E+02  1.250000000E+02  0.00000E+00  9.000E+00
      21     1     1     2   501   512 -1.350498507E+02 -2.499499255E+01  6.151522078E+01  1.504903127E+02  3.303624740E-06  0.00000E+00  9.000E+00
#rwgt            1           1   3.2879425851906577E-002           4       18383           0
</event>
<event>
      5   9999  3.79277E-02  1.15541E+02 -1.00000E+00  1.21071E-01
      21    -1     0     0   502   511  0.000000000E+00  0.000000000E+00  4.094373738E+02  4.094373738E+02  0.000000000E+00  0.00000E+00  9.000E+00
      21    -1     0     0   501   502  0.000000000E+00  0.000000000E+00 -3.773902173E+02  3.773902173E+02  0.000000000E+00  0.00000E+00  9.000E+00
      25     1     1     2     0     0 -9.624064698E+01 -9.498367272E+01  6.581317232E+01  1.955518700E+02  1.250000000E+02  0.00000E+00  9.000E+00
      25     1     1     2     0     0  1.474070204E+02 -8.610085788E+00 -2.677437234E+02  3.303250893E+02  1.250000000E+02  0.00000E+00  9.000E+00
      21     1     1     2   501   511 -5.116637343E+01  1.035937585E+02  2.339777076E+02  2.609506318E+02  4.672030912E-06  0.00000E+00  9.000E+00
#rwgt            1           1   3.8442640556172997E-002           4       18447           0
</event>
<event>
      5   9999  3.79277E-02  4.47566E+01 -1.00000E+00  1.41877E-01
      21    -1     0     0   512   501  0.000000000E+00  0.000000000E+00  1.651010702E+02  1.651010702E+02  0.000000000E+00  0.00000E+00  9.000E+00
      21    -1     0     0   501   502  0.000000000E+00  0.000000000E+00 -3.401257764E+02  3.401257764E+02  0.000000000E+00  0.00000E+00  9.000E+00
      25     1     1     2     0     0 -5.580148812E+01  1.420994007E+02 -1.035706710E+02  2.228405924E+02  1.250000000E+02  0.00000E+00  9.000E+00
      25     1     1     2     0     0  1.451385746E+01 -1.593762078E+02 -1.029353756E+02  2.276666845E+02  1.250000000E+02  0.00000E+00  9.000E+00
      21     1     1     2   512   502  4.128763067E+01  1.727680714E+01  3.148134046E+01  5.471956970E+01  8.920806376E-07  0.00000E+00  9.000E+00
#rwgt            1           1   3.4573207567592246E-002           4       18511           0
</event>
<event>
      5   9999  3.79277E-02  2.97426E+01 -1.00000E+00  1.53300E-01
      21    -1     0     0   511   501  0.000000000E+00  0.000000000E+00  2.499956306E+01  2.499956306E+01  0.000000000E+00  0.00000E+00  9.000E+00
      21    -1     0     0   501   502  0.000000000E+00  0.000000000E+00 -2.885009547E+03  2.885009547E+03  0.000000000E+00  0.00000E+00  9.000E+00
      25     1     1     2     0     0  7.503609405E+01 -1.864350409E+01 -3.582128279E+02  3.871942997E+02  1.250000000E+02  0.00000E+00  9.000E+00
      25     1     1     2     0     0 -4.588026753E+01  2.452218813E+01 -2.484943089E+03  2.488628838E+03  1.250000000E+02  0.00000E+00  9.000E+00
      21     1     1     2   511   502 -2.915582652E+01 -5.878684048E+00 -1.685406709E+01  3.418597262E+01  1.450243599E-06  0.00000E+00  9.000E+00
#rwgt            1           1   4.5515129866826230E-002           4       18717           0
</event>
<event>
      5   9999  3.79277E-02  1.31149E+01 -1.00000E+00  1.83061E-01
      21    -1     0     0   512   501  0.000000000E+00  0.000000000E+00  9.297373987E+02  9.297373987E+02  0.000000000E+00  0.00000E+00  9.000E+00
      21    -1     0     0   501   502  0.000000000E+00  0.000000000E+00 -1.268672742E+02  1.268672742E+02  0.000000000E+00  0.00000E+00  9.000E+00
      25     1     1     2     0     0  6.455095741E+01 -1.692339185E+02  1.691342642E+02  2.775578220E+02  1.250000000E+02  0.00000E+00  9.000E+00
      25     1     1     2     0     0 -5.157962020E+01  1.711689622E+02  9.133511925E+01  2.364875786E+02  1.250000000E+02  0.00000E+00  9.000E+00
      21     1     1     2   512   502 -1.297133721E+01 -1.935043736E+00  5.424007411E+02  5.425592723E+02  7.629394531E-06  0.00000E+00  9.000E+00
#rwgt            1           1   3.4195461803912100E-002           4       19080           0
</event>
<event>
      5   9999  3.79277E-02  1.40303E+01 -1.00000E+00  1.80162E-01
      21    -1     0     0   502   501  0.000000000E+00  0.000000000E+00  1.188297652E+03  1.188297652E+03  0.000000000E+00  0.00000E+00  9.000E+00
      21    -1     0     0   501   511  0.000000000E+00  0.000000000E+00 -4.117366252E+01  4.117366252E+01  0.000000000E+00  0.00000E+00  9.000E+00
      25     1     1     2     0     0 -5.770443239E+01 -1.561967992E+02  7.401174330E+02  7.688472255E+02  1.250000000E+02  0.00000E+00  9.000E+00
      25     1     1     2     0     0  4.435061447E+01  1.518928445E+02  3.798804360E+02  4.300843625E+02  1.250000000E+02  0.00000E+00  9.000E+00
      21     1     1     2   502   511  1.335381792E+01  4.303954755E+00  2.712612031E+01  3.053972630E+01  6.743495762E-07  0.00000E+00  9.000E+00
#rwgt            1           1  0.16210139037027493                4       19310           0
</event>
<event>
      5   9999  3.79277E-02  2.63805E+01 -1.00000E+00  1.57022E-01
      21    -1     0     0   502   501  0.000000000E+00  0.000000000E+00  2.134046551E+01  2.134046551E+01  0.000000000E+00  0.00000E+00  9.000E+00
      21    -1     0     0   501   512  0.000000000E+00  0.000000000E+00 -1.357668780E+03  1.357668780E+03  0.000000000E+00  0.00000E+00  9.000E+00
      25     1     1     2     0     0 -7.949754710E+00 -6.002996832E+01 -4.955587724E+02  5.146555086E+02  1.250000000E+02  0.00000E+00  9.000E+00
      25     1     1     2     0     0 -1.827192763E+01  6.292035478E+01 -4.264754758E+02  4.492206205E+02  1.250000000E+02  0.00000E+00  9.000E+00
      21     1     1     2   502   512  2.622168234E+01 -2.890386458E+00 -4.142940668E+02  4.151331169E+02  0.000000000E+00  0.00000E+00  9.000E+00
#rwgt            1           1   3.8874013289825815E-002           4       19615           0
</event>
<event>
      5   9999  3.79277E-02  2.17553E+01 -1.00000E+00  1.63410E-01
      21    -1     0     0   511   501  0.000000000E+00  0.000000000E+00  5.053860660E+01  5.053860660E+01  0.000000000E+00  0.00000E+00  9.000E+00
      21    -1     0     0   501   502  0.000000000E+00  0.000000000E+00 -1.727782572E+03  1.727782572E+03  0.000000000E+00  0.00000E+00  9.000E+00
      25     1     1     2     0     0  4.603927752E+01  3.014118259E+01 -1.194874026E+02  1.814672018E+02  1.250000000E+02  0.00000E+00  9.000E+00
      25     1     1     2     0     0 -2.445511607E+01 -3.286475626E+01 -1.567504819E+03  1.573014464E+03  1.250000000E+02  0.00000E+00  9.000E+00
      21     1     1     2   511   502 -2.158416145E+01  2.723573668E+00  9.748256380E+00  2.383951303E+01  1.039242493E-06  0.00000E+00  9.000E+00
#rwgt            1           1   4.4819411794818832E-002           4       20010           0
</event>
<event>
      5   9999  3.79277E-02  1.01922E+02 -1.00000E+00  1.23457E-01
      21    -1     0     0   502   512  0.000000000E+00  0.000000000E+00  7.260681104E+01  7.260681104E+01  0.000000000E+00  0.00000E+00  9.000E+00
      21    -1     0     0   501   502  0.000000000E+00  0.000000000E+00 -1.039488734E+03  1.039488734E+03  0.000000000E+00  0.00000E+00  9.000E+00
      25     1     1     2     0     0 -1.369163092E+02 -1.510291849E+02 -3.967148665E+02  4.632100773E+02  1.250000000E+02  0.00000E+00  9.000E+00
      25     1     1     2     0     0  5.187061016E+01  9.485626783E+01 -4.960698673E+02  5.228753054E+02  1.250000000E+02  0.00000E+00  9.000E+00
      21     1     1     2   501   512  8.504569902E+01  5.617291705E+01 -7.409718871E+01  1.260101619E+02  9.536743164E-07  0.00000E+00  9.000E+00
#rwgt            1           1   3.3426579773258649E-002           4       20168           0
</event>
<event>
      5   9999  3.79277E-02  1.08122E+02 -1.00000E+00  1.22322E-01
      21    -1     0     0   502   501  0.000000000E+00  0.000000000E+00  6.011407038E+02  6.011407038E+02  0.000000000E+00  0.00000E+00  9.000E+00
      21    -1     0     0   501   511  0.000000000E+00  0.000000000E+00 -1.474433729E+02  1.474433729E+02  0.000000000E+00  0.00000E+00  9.000E+00
      25     1     1     2     0     0 -6.629832075E+01 -3.661974360E+01  4.444582403E+02  4.678724188E+02  1.250000000E+02  0.00000E+00  9.000E+00
      25     1     1     2     0     0  9.504037200E+01 -6.761166670E+01  1.964740260E+01  1.720901805E+02  1.250000000E+02  0.00000E+00  9.000E+00
      21     1     1     2   502   511 -2.874205126E+01  1.042314103E+02 -1.040831201E+01  1.086214774E+02  2.185142372E-06  0.00000E+00  9.000E+00
#rwgt            1           1   4.6367197431907398E-002           4       20259           0
</event>
<event>
      5   9999  3.79277E-02  1.16117E+02 -1.00000E+00  1.20978E-01
      21    -1     0     0   512   501  0.000000000E+00  0.000000000E+00  9.897671765E+02  9.897671765E+02  0.000000000E+00  0.00000E+00  9.000E+00
      21    -1     0     0   501   502  0.000000000E+00  0.000000000E+00 -8.900398921E+01  8.900398921E+01  0.000000000E+00  0.00000E+00  9.000E+00
      25     1     1     2     0     0  2.165578280E+00  1.911551561E+02  2.255310198E+02  3.209894459E+02  1.250000000E+02  0.00000E+00  9.000E+00
      25     1     1     2     0     0 -6.337381004E+01 -9.248066359E+01  1.683599855E+02  2.377793045E+02  1.250000000E+02  0.00000E+00  9.000E+00
      21     1     1     2   512   502  6.120823176E+01 -9.867449253E+01  5.068721820E+02  5.200024154E+02  5.394796609E-06  0.00000E+00  9.000E+00
#rwgt            1           1   3.2256008705458826E-002           4       20382           0
</event>
<event>
      5   9999  3.79277E-02  6.22237E+01 -1.00000E+00  1.33864E-01
      21    -1     0     0   502   501  0.000000000E+00  0.000000000E+00  1.292351715E+02  1.292351715E+02  0.000000000E+00  0.00000E+00  9.000E+00
      21    -1     0     0   511   502  0.000000000E+00  0.000000000E+00 -8.331524434E+02  8.331524434E+02  0.000000000E+00  0.00000E+00  9.000E+00
      25     1     1     2     0     0 -1.689345256E+02 -1.403333868E+02 -5.499859642E+01  2.586158908E+02  1.250000000E+02  0.00000E+00  9.000E+00
      25     1     1     2     0     0  1.236682602E+02  9.763969324E+01 -4.070683431E+02  4.540451346E+02  1.250000000E+02  0.00000E+00  9.000E+00
      21     1     1     2   511   501  4.526626536E+01  4.269369355E+01 -2.418503324E+02  2.497265895E+02  0.000000000E+00  0.00000E+00  9.000E+00
#rwgt            1           1   4.4215505672140387E-002           4       20457           0
</event>
<event>
      5   9999  3.79277E-02  8.54812E+00  7.55638E-03  2.03977E-01
       2    -1     0     0   501     0  0.000000000E+00  0.000000000E+00  1.275517374E+03  1.275517374E+03  0.000000000E+00  0.00000E+00  9.000E+00
      -2    -1     0     0     0   502  0.000000000E+00  0.000000000E+00 -5.859367344E+01  5.859367344E+01  0.000000000E+00  0.00000E+00  9.000E+00
      25     1     1     2     0     0  5.630086688E+01 -1.340261521E+02  7.333368626E+02  7.579846642E+02  1.250000000E+02  0.00000E+00  9.000E+00
      25     1     1     2     0     0 -5.827041935E+01  1.423442814E+02  5.106399164E+02  5.477549274E+02  1.250000000E+02  0.00000E+00  9.000E+00
      21     1     1     2   501   502  1.969552469E+00 -8.318129333E+00 -2.705307885E+01  2.837145551E+01  1.651812370E-06  0.00000E+00  9.000E+00
#rwgt            3           7   4.0323357252593082E-005           4       20610           0
</event>
<event>
      5   9999 -3.79277E-02  2.91399E+01 -1.00000E+00  1.53922E-01
      21    -1     0     0   502   501  0.000000000E+00  0.000000000E+00  6.302913921E+02  6.302913921E+02  0.000000000E+00  0.00000E+00  9.000E+00
      21    -1     0     0   501   511  0.000000000E+00  0.000000000E+00 -8.208884773E+01  8.208884773E+01  0.000000000E+00  0.00000E+00  9.000E+00
      25     1     1     2     0     0 -6.197481617E+01 -1.431443278E+02  2.231470650E+02  2.995843605E+02  1.250000000E+02  0.00000E+00  9.000E+00
      25     1     1     2     0     0  7.254922479E+01  1.702979169E+02  3.020745298E+02  3.756844315E+02  1.250000000E+02  0.00000E+00  9.000E+00
      21     1     1     2   502   511 -1.057440862E+01 -2.715358914E+01  2.298094954E+01  3.711144786E+01  4.768371582E-07  0.00000E+00  9.000E+00
#rwgt            1           1  -5.1276561123788061E-002           4       20644           0
</event>
<event>
      5   9999  3.79277E-02  4.25690E+01 -1.00000E+00  1.43183E-01
      21    -1     0     0   512   501  0.000000000E+00  0.000000000E+00  2.331635105E+02  2.331635105E+02  0.000000000E+00  0.00000E+00  9.000E+00
      21    -1     0     0   501   502  0.000000000E+00  0.000000000E+00 -3.970572902E+02  3.970572902E+02  0.000000000E+00  0.00000E+00  9.000E+00
      25     1     1     2     0     0  3.090376962E+01  7.007613851E+00 -3.115394175E+02  3.371734840E+02  1.250000000E+02  0.00000E+00  9.000E+00
      25     1     1     2     0     0 -6.895069634E+01 -2.610081947E+01  6.112341990E+00  1.452508590E+02  1.250000000E+02  0.00000E+00  9.000E+00
      21     1     1     2   512   502  3.804692671E+01  1.909320562E+01  1.415332957E+02  1.477964578E+02  1.907348633E-06  0.00000E+00  9.000E+00
#rwgt            1           1   3.6614188500461012E-002           4       20808           0
</event>
<event>
      5   9999  3.79277E-02  7.61841E+01 -1.00000E+00  1.29385E-01
      21    -1     0     0   502   501  0.000000000E+00  0.000000000E+00  1.140283744E+02  1.140283744E+02  0.000000000E+00  0.00000E+00  9.000E+00
      21    -1     0     0   501   511  0.000000000E+00  0.000000000E+00 -8.032998817E+02  8.032998817E+02  0.000000000E+00  0.00000E+00  9.000E+00
      25     1     1     2     0     0  9.109206444E+01 -1.817867405E+02 -7.698881196E+01  2.507916673E+02  1.250000000E+02  0.00000E+00  9.000E+00
      25     1     1     2     0     0 -9.032100622E+01  1.056065019E+02 -4.492964711E+02  4.866240195E+02  1.250000000E+02  0.00000E+00  9.000E+00
      21     1     1     2   502   511 -7.710582132E-01  7.618023860E+01 -1.629862242E+02  1.799125692E+02  1.907348633E-06  0.00000E+00  9.000E+00
#rwgt            1           1   3.3936648027645254E-002           4       20936           0
</event>
<event>
      5   9999  3.79277E-02  1.95249E+01 -1.00000E+00  1.67235E-01
      21    -1     0     0   502   501  0.000000000E+00  0.000000000E+00  7.971871760E+01  7.971871760E+01  0.000000000E+00  0.00000E+00  9.000E+00
      21    -1     0     0   501   512  0.000000000E+00  0.000000000E+00 -3.520478237E+02  3.520478237E+02  0.000000000E+00  0.00000E+00  9.000E+00
      25     1     1     2     0     0 -5.661633685E+01 -6.707863136E+01 -8.825685339E+01  1.764064187E+02  1.250000000E+02  0.00000E+00  9.000E+00
      25     1     1     2     0     0  4.583603796E+01  8.335764624E+01 -1.581046337E+02  2.228710721E+02  1.250000000E+02  0.00000E+00  9.000E+00
      21     1     1     2   502   512  1.078029889E+01 -1.627901488E+01 -2.596761902E+01  3.248905058E+01  4.768371582E-07  0.00000E+00  9.000E+00
#rwgt            1           1   3.5033548842944608E-002           4       21088           0
</event>
<event>
      5   9999  3.79277E-02  1.33432E+01 -1.00000E+00  1.82310E-01
      21    -1     0     0   502   501  0.000000000E+00  0.000000000E+00  1.365231451E+02  1.365231451E+02  0.000000000E+00  0.00000E+00  9.000E+00
      21    -1     0     0   501   511  0.000000000E+00  0.000000000E+00 -4.400469683E+02  4.400469683E+02  0.000000000E+00  0.00000E+00  9.000E+00
      25     1     1     2     0     0 -5.822184988E+00 -1.253973069E+02 -4.541039960E+01  1.828810729E+02  1.250000000E+02  0.00000E+00  9.000E+00
      25     1     1     2     0     0 -7.592395621E-01  1.137902156E+02 -3.810900773E+01  1.732803684E+02  1.250000000E+02  0.00000E+00  9.000E+00
      21     1     1     2   502   511  6.581424550E+00  1.160709132E+01 -2.200044159E+02  2.204086720E+02  2.697398305E-06  0.00000E+00  9.000E+00
#rwgt            1           1   4.4611653221790747E-002           4       21267           0
</event>
<event>
      5   9999  3.79277E-02  1.68733E+02 -1.00000E+00  1.14403E-01
      21    -1     0     0   502   501  0.000000000E+00  0.000000000E+00  1.415765387E+02  1.415765387E+02  0.000000000E+00  0.00000E+00  9.000E+00
       2    -1     0     0   501     0  0.000000000E+00  0.000000000E+00 -1.267681747E+03  1.267681747E+03  0.000000000E+00  0.00000E+00  9.000E+00
      25     1     1     2     0     0 -2.270699719E+02 -1.891069877E+02 -2.837452747E+02  4.283206811E+02  1.250000000E+02  0.00000E+00  9.000E+00
      25     1     1     2     0     0  2.869784200E+02  3.136743079E+01 -4.097443941E+02  5.165810660E+02  1.250000000E+02  0.00000E+00  9.000E+00
       2     1     1     2   502     0 -5.990844803E+01  1.577395569E+02 -4.326155397E+02  4.643565389E+02  5.394796609E-06  0.00000E+00  9.000E+00
#rwgt            1           1   4.2108488683612770E-002           4       21484           0
</event>
<event>
      5   9999  3.79277E-02  4.44216E+01 -1.00000E+00  1.42072E-01
      21    -1     0     0   511   501  0.000000000E+00  0.000000000E+00  1.952767267E+02  1.952767267E+02  0.000000000E+00  0.00000E+00  9.000E+00
      21    -1     0     0   501   502  0.000000000E+00  0.000000000E+00 -3.881837145E+02  3.881837145E+02  0.000000000E+00  0.00000E+00  9.000E+00
      25     1     1     2     0     0 -1.393975408E+02 -9.436252471E+01 -1.063519738E+02  2.350993467E+02  1.250000000E+02  0.00000E+00  9.000E+00
      25     1     1     2     0     0  1.191259123E+02  1.338889974E+02 -1.542017042E+02  2.674330050E+02  1.250000000E+02  0.00000E+00  9.000E+00
      21     1     1     2   511   502  2.027162852E+01 -3.952647265E+01  6.764669027E+01  8.092808948E+01  1.651812370E-06  0.00000E+00  9.000E+00
#rwgt            1           1   4.0332486270983743E-002           4       21527           0
</event>
<event>
      5   9999  3.79277E-02  4.43587E+01 -1.00000E+00  1.42108E-01
      21    -1     0     0   502   501  0.000000000E+00  0.000000000E+00  1.489532552E+02  1.489532552E+02  0.000000000E+00  0.00000E+00  9.000E+00
      21    -1     0     0   512   502  0.000000000E+00  0.000000000E+00 -7.818366333E+02  7.818366333E+02  0.000000000E+00  0.00000E+00  9.000E+00
      25     1     1     2     0     0  2.002870617E+02  2.096726309E+02 -3.284244113E+02  4.555931444E+02  1.250000000E+02  0.00000E+00  9.000E+00
      25     1     1     2     0     0 -2.141473580E+02 -1.675348737E+02 -1.952319428E+02  3.573059422E+02  1.250000000E+02  0.00000E+00  9.000E+00
      21     1     1     2   512   501  1.386029632E+01 -4.213775727E+01 -1.092270241E+02  1.178908020E+02  1.348699152E-06  0.00000E+00  9.000E+00
#rwgt            1           1   3.7135511682139834E-002           4       21662           0
</event>
<event>
      5   9999  3.79277E-02  8.75668E+01 -1.00000E+00  1.26478E-01
      21    -1     0     0   511   501  0.000000000E+00  0.000000000E+00  1.053491759E+03  1.053491759E+03  0.000000000E+00  0.00000E+00  9.000E+00
      21    -1     0     0   501   502  0.000000000E+00  0.000000000E+00 -7.499418427E+01  7.499418427E+01  0.000000000E+00  0.00000E+00  9.000E+00
      25     1     1     2     0     0 -5.490322525E+01 -6.921313942E+01  5.820760786E+02  6.018657526E+02  1.250000000E+02  0.00000E+00  9.000E+00
      25     1     1     2     0     0  1.128321994E+02  3.545933704E+00  5.969787148E+01  1.786967116E+02  1.250000000E+02  0.00000E+00  9.000E+00
      21     1     1     2   511   502 -5.792897416E+01  6.566720572E+01  3.367236249E+02  3.479234794E+02  3.814697266E-06  0.00000E+00  9.000E+00
#rwgt            1           1   3.7661199683357738E-002           4       21763           0
</event>
<event>
      5   9999  3.79277E-02  2.37223E+01 -1.00000E+00  1.60477E-01
      21    -1     0     0   502   501  0.000000000E+00  0.000000000E+00  3.581088116E+01  3.581088116E+01  0.000000000E+00  0.00000E+00  9.000E+00
      21    -1     0     0   501   512  0.000000000E+00  0.000000000E+00 -1.175760937E+03  1.175760937E+03  0.000000000E+00  0.00000E+00  9.000E+00
      25     1     1     2     0     0  4.765527919E+00  1.061952908E+02 -8.400551953E+02  8.559310026E+02  1.250000000E+02  0.00000E+00  9.000E+00
      25     1     1     2     0     0  9.768970313E+00 -8.744713027E+01 -1.933056389E+02  2.464437125E+02  1.250000000E+02  0.00000E+00  9.000E+00
      21     1     1     2   502   512 -1.453449823E+01 -1.874816053E+01 -1.065892221E+02  1.091971035E+02  1.348699152E-06  0.00000E+00  9.000E+00
#rwgt            1           1   2.8275833143746584E-002           4       21849           0
</event>
<event>
      5   9999  3.79277E-02  2.42277E+01 -1.00000E+00  1.59778E-01
      21    -1     0     0   502   501  0.000000000E+00  0.000000000E+00  3.296175379E+02  3.296175379E+02  0.000000000E+00  0.00000E+00  9.000E+00
      21    -1     0     0   501   511  0.000000000E+00  0.000000000E+00 -4.286728202E+02  4.286728202E+02  0.000000000E+00  0.00000E+00  9.000E+00
      25     1     1     2     0     0 -1.135548349E+02 -1.990223947E+02  1.283566698E+02  2.908694703E+02  1.250000000E+02  0.00000E+00  9.000E+00
      25     1     1     2     0     0  1.376019866E+02  2.019750671E+02 -3.877033922E+01  2.772298210E+02  1.250000000E+02  0.00000E+00  9.000E+00
      21     1     1     2   502   511 -2.404715171E+01 -2.952672454E+00 -1.886416129E+02  1.901910668E+02  2.697398305E-06  0.00000E+00  9.000E+00
#rwgt            1           1   5.1269401972330007E-002           4       22231           0
</event>
<event>
      5   9999  3.79277E-02  3.28903E+01 -1.00000E+00  1.50316E-01
       2    -1     0     0   502     0  0.000000000E+00  0.000000000E+00  3.093247236E+03  3.093247236E+03  0.000000000E+00  0.00000E+00  9.000E+00
      21    -1     0     0   501   502  0.000000000E+00  0.000000000E+00 -1.610989542E+01  1.610989542E+01  0.000000000E+00  0.00000E+00  9.000E+00
      25     1     1     2     0     0  2.421052606E+01  6.783938931E+00  2.834737123E+02  3.108287583E+02  1.250000000E+02  0.00000E+00  9.000E+00
      25     1     1     2     0     0 -1.546484254E+01 -3.849020369E+01  2.159494051E+03  2.163506463E+03  1.250000000E+02  0.00000E+00  9.000E+00
       2     1     1     2   501     0 -8.745683520E+00  3.170626476E+01  6.341695770E+02  6.350219103E+02  0.000000000E+00  0.00000E+00  9.000E+00
#rwgt            1           1   6.9939576599292383E-002           4       22608           0
</event>
<event>
      5   9999  3.79277E-02  1.34072E+01 -1.00000E+00  1.82103E-01
      21    -1     0     0   511   501  0.000000000E+00  0.000000000E+00  3.400761075E+02  3.400761075E+02  0.000000000E+00  0.00000E+00  9.000E+00
      21    -1     0     0   501   502  0.000000000E+00  0.000000000E+00 -1.255344449E+02  1.255344449E+02  0.000000000E+00  0.00000E+00  9.000E+00
      25     1     1     2     0     0 -1.373265488E+02 -5.196020689E+01  5.293998512E+01  1.999652123E+02  1.250000000E+02  0.00000E+00  9.000E+00
      25     1     1     2     0     0  1.431628115E+02  3.988994446E+01  1.370974075E+02  2.377130569E+02  1.250000000E+02  0.00000E+00  9.000E+00
      21     1     1     2   511   502 -5.836262708E+00  1.207026243E+01  2.450427000E+01  2.793228321E+01  5.840038640E-07  0.00000E+00  9.000E+00
#rwgt            1           1   3.8766141091158619E-002           4       22800           0
</event>
<event>
      5   9999  3.79277E-02  4.11801E+01 -1.00000E+00  1.44061E-01
      21    -1     0     0   502   501  0.000000000E+00  0.000000000E+00  1.966870050E+02  1.966870050E+02  0.000000000E+00  0.00000E+00  9.000E+00
      21    -1     0     0   512   502  0.000000000E+00  0.000000000E+00 -4.059022393E+02  4.059022393E+02  0.000000000E+00  0.00000E+00  9.000E+00
      25     1     1     2     0     0 -1.648344460E+02  1.723279905E+02 -5.685420190E+01  2.751812697E+02  1.250000000E+02  0.00000E+00  9.000E+00
      25     1     1     2     0     0  1.357600687E+02 -1.431649757E+02 -8.518242858E+01  2.486122536E+02  1.250000000E+02  0.00000E+00  9.000E+00
      21     1     1     2   512   501  2.907437734E+01 -2.916301475E+01 -6.717860380E+01  7.879572104E+01  1.348699152E-06  0.00000E+00  9.000E+00
#rwgt            1           1  0.16402623833126256                4       23282           0
</event>
<event>
      5   9999  3.79277E-02  5.30570E+01 -1.00000E+00  1.37621E-01
      21    -1     0     0   502   501  0.000000000E+00  0.000000000E+00  2.857442090E+02  2.857442090E+02  0.000000000E+00  0.00000E+00  9.000E+00
       2    -1     0     0   501     0  0.000000000E+00  0.000000000E+00 -1.776258399E+03  1.776258399E+03  0.000000000E+00  0.00000E+00  9.000E+00
      25     1     1     2     0     0  3.432270296E+01 -7.328804445E+01  2.158932989E+02  2.622672337E+02  1.250000000E+02  0.00000E+00  9.000E+00
      25     1     1     2     0     0  1.575481558E+01  5.575855580E+01 -5.639678112E+01  1.488718499E+02  1.250000000E+02  0.00000E+00  9.000E+00
       2     1     1     2   502     0 -5.007751854E+01  1.752948866E+01 -1.650010708E+03  1.650863525E+03  2.157918644E-05  0.00000E+00  9.000E+00
#rwgt            1           1   3.8282508148825202E-002           4       23477           0
</event>
<event>
      5   9999  3.79277E-02  1.49332E+02 -1.00000E+00  1.16471E-01
      21    -1     0     0   502   501  0.000000000E+00  0.000000000E+00  4.300773726E+02  4.300773726E+02  0.000000000E+00  0.00000E+00  9.000E+00
      21    -1     0     0   511   502  0.000000000E+00  0.000000000E+00 -2.205450790E+02  2.205450790E+02  0.000000000E+00  0.00000E+00  9.000E+00
      25     1     1     2     0     0 -2.018018286E+02  1.366441421E+02  2.073614618E+02  3.435394816E+02  1.250000000E+02  0.00000E+00  9.000E+00
      25     1     1     2     0     0  7.657023347E+01 -5.529919891E+01  1.392592629E+01  1.572893305E+02  1.250000000E+02  0.00000E+00  9.000E+00
      21     1     1     2   511   501  1.252315951E+02 -8.134494316E+01 -1.175509452E+01  1.497936395E+02  2.744403942E-06  0.00000E+00  9.000E+00
#rwgt            1           1   4.6214958055709694E-002           4       23614           0
</event>
<event>
      5   9999  3.79277E-02  5.21040E+01 -1.00000E+00  1.38062E-01
      21    -1     0     0   512   501  0.000000000E+00  0.000000000E+00  6.708620107E+02  6.708620107E+02  0.000000000E+00  0.00000E+00  9.000E+00
      21    -1     0     0   501   502  0.000000000E+00  0.000000000E+00 -7.524229596E+01  7.524229596E+01  0.000000000E+00  0.00000E+00  9.000E+00
      25     1     1     2     0     0 -1.315302568E+02  2.398289220E+01  2.848435759E+02  3.385797547E+02  1.250000000E+02  0.00000E+00  9.000E+00
      25     1     1     2     0     0  1.018724723E+02 -6.682265949E+01  1.252984376E+02  2.148673239E+02  1.250000000E+02  0.00000E+00  9.000E+00
      21     1     1     2   512   502  2.965778448E+01  4.283976729E+01  1.854777012E+02  1.926572280E+02  3.814697266E-06  0.00000E+00  9.000E+00
#rwgt            2          11   1.5334663686916931E-003           4       23760           0
</event>
<event>
      5   9999  3.79277E-02  3.92157E+01 -1.00000E+00  1.45376E-01
       1    -1     0     0   502     0  0.000000000E+00  0.000000000E+00  1.380582598E+02  1.380582598E+02  0.000000000E+00  0.00000E+00  9.000E+00
      21    -1     0     0   501   502  0.000000000E+00  0.000000000E+00 -1.055549503E+03  1.055549503E+03  0.000000000E+00  0.00000E+00  9.000E+00
      25     1     1     2     0     0 -2.055347454E+02  3.657121164E+01 -7.715335283E+02  8.089938012E+02  1.250000000E+02  0.00000E+00  9.000E+00
      25     1     1     2     0     0  1.750031590E+02 -1.196042870E+01 -2.155565406E+02  3.047273859E+02  1.250000000E+02  0.00000E+00  9.000E+00
       1     1     1     2   501     0  3.053158640E+01 -2.461078295E+01  6.959882577E+01  7.988657556E+01  2.132480600E-06  0.00000E+00  9.000E+00
#rwgt            1           1   3.6257953652234748E-002           4       23810           0
</event>
<event>
      5   9999  3.79277E-02  1.17985E+02 -1.00000E+00  1.20681E-01
      21    -1     0     0   502   501  0.000000000E+00  0.000000000E+00  3.982369377E+01  3.982369377E+01  0.000000000E+00  0.00000E+00  9.000E+00
      21    -1     0     0   501   511  0.000000000E+00  0.000000000E+00 -1.530324334E+03  1.530324334E+03  0.000000000E+00  0.00000E+00  9.000E+00
      25     1     1     2     0     0 -1.776115073E+01 -8.129486294E+00 -8.851991365E+02  8.941946422E+02  1.250000000E+02  0.00000E+00  9.000E+00
      25     1     1     2     0     0 -8.944010873E+01 -4.114986936E+01 -2.103276368E+02  2.637338803E+02  1.250000000E+02  0.00000E+00  9.000E+00
      21     1     1     2   502   511  1.072012595E+02  4.927935565E+01 -3.949738665E+02  4.122195048E+02  5.394796609E-06  0.00000E+00  9.000E+00
#rwgt            1           1   4.4702013844266211E-002           4       23907           0
</event>
<event>
      5   9999  3.79277E-02  3.99623E+01 -1.00000E+00  1.44866E-01
      21    -1     0     0   512   501  0.000000000E+00  0.000000000E+00  1.514157324E+01  1.514157324E+01  0.000000000E+00  0.00000E+00  9.000E+00
      21    -1     0     0   501   502  0.000000000E+00  0.000000000E+00 -2.877734367E+03  2.877734367E+03  0.000000000E+00  0.00000E+00  9.000E+00
      25     1     1     2     0     0  9.578989636E+01  3.877828167E+01 -7.163304438E+02  7.344615470E+02  1.250000000E+02  0.00000E+00  9.000E+00
      25     1     1     2     0     0 -1.305803382E+02 -1.911577752E+01 -1.925778607E+03  1.934338358E+03  1.250000000E+02  0.00000E+00  9.000E+00
      21     1     1     2   512   502  3.479044182E+01 -1.966250415E+01 -2.204837423E+02  2.240760352E+02  3.814697266E-06  0.00000E+00  9.000E+00
#rwgt            1           1   4.9855123397559820E-002           4       24016           0
</event>
<event>
      5   9999  3.79277E-02  4.45786E+01 -1.00000E+00  1.41980E-01
      21    -1     0     0   502   501  0.000000000E+00  0.000000000E+00  5.828907124E+02  5.828907124E+02  0.000000000E+00  0.00000E+00  9.000E+00
      21    -1     0     0   511   502  0.000000000E+00  0.000000000E+00 -1.317973754E+02  1.317973754E+02  0.000000000E+00  0.00000E+00  9.000E+00
      25     1     1     2     0     0  1.331935286E+01 -2.284715866E+02  2.403120010E+02  3.546146202E+02  1.250000000E+02  0.00000E+00  9.000E+00
      25     1     1     2     0     0 -2.304140084E+01  1.849660563E+02  2.203061353E+02  3.144886984E+02  1.250000000E+02  0.00000E+00  9.000E+00
      21     1     1     2   511   501  9.722047980E+00  4.350553028E+01 -9.524799356E+00  4.558476922E+01  1.072883606E-06  0.00000E+00  9.000E+00
#rwgt            1           1   3.7011842130277382E-002           4       24166           0
</event>
<event>
      5   9999  3.79277E-02  1.11338E+02 -1.00000E+00  1.21766E-01
       2    -1     0     0   502     0  0.000000000E+00  0.000000000E+00  2.103979750E+03  2.103979750E+03  0.000000000E+00  0.00000E+00  9.000E+00
      21    -1     0     0   501   502  0.000000000E+00  0.000000000E+00 -1.538335311E+02  1.538335311E+02  0.000000000E+00  0.00000E+00  9.000E+00
      25     1     1     2     0     0 -7.488044455E+01  2.129673251E+01  1.434907476E+02  2.056094026E+02  1.250000000E+02  0.00000E+00  9.000E+00
      25     1     1     2     0     0  1.741523156E+02 -7.170656624E+01 -1.557064700E+01  2.265795792E+02  1.250000000E+02  0.00000E+00  9.000E+00
       2     1     1     2   501     0 -9.927187104E+01  5.040983372E+01  1.822226118E+03  1.825624299E+03  0.000000000E+00  0.00000E+00  9.000E+00
#rwgt            1           1   4.8133160735634117E-002           4       24240           0
</event>
<event>
      5   9999  3.79277E-02  7.82308E+01 -1.00000E+00  1.28821E-01
      21    -1     0     0   502   501  0.000000000E+00  0.000000000E+00  1.086622238E+02  1.086622238E+02  0.000000000E+00  0.00000E+00  9.000E+00
      21    -1     0     0   511   502  0.000000000E+00  0.000000000E+00 -1.039714284E+03  1.039714284E+03  0.000000000E+00  0.00000E+00  9.000E+00
      25     1     1     2     0     0 -1.252253555E+02  3.668494027E+01 -1.444201359E+02  2.313208814E+02  1.250000000E+02  0.00000E+00  9.000E+00
      25     1     1     2     0     0  8.075589072E+01  2.767748745E+01 -2.743054281E+01  1.538343001E+02  1.250000000E+02  0.00000E+00  9.000E+00
      21     1     1     2   511   501  4.446946482E+01 -6.436242772E+01 -7.592013814E+02  7.632213263E+02  0.000000000E+00  0.00000E+00  9.000E+00
#rwgt            1           1   3.8367026557444964E-002           4       24301           0
</event>
<event>
      5   9999  3.79277E-02  5.40600E+01 -1.00000E+00  1.37168E-01
      21    -1     0     0   512   501  0.000000000E+00  0.000000000E+00  6.520875098E+02  6.520875098E+02  0.000000000E+00  0.00000E+00  9.000E+00
      21    -1     0     0   501   502  0.000000000E+00  0.000000000E+00 -2.925829284E+02  2.925829284E+02  0.000000000E+00  0.00000E+00  9.000E+00
      25     1     1     2     0     0  2.096128520E+02 -3.375848172E+01 -1.450483090E+02  2.859041706E+02  1.250000000E+02  0.00000E+00  9.000E+00
      25     1     1     2     0     0 -1.573092404E+02  4.742639411E+01  6.577711364E+01  2.166727686E+02  1.250000000E+02  0.00000E+00  9.000E+00
      21     1     1     2   512   502 -5.230361158E+01 -1.366791239E+01  4.387757767E+02  4.420934990E+02  0.000000000E+00  0.00000E+00  9.000E+00
#rwgt            1           1   7.0184203408359125E-002           4       24363           0
</event>
<event>
      5   9999  3.79277E-02  1.13076E+02 -1.00000E+00  1.21474E-01
      21    -1     0     0   502   501  0.000000000E+00  0.000000000E+00  3.533954977E+02  3.533954977E+02  0.000000000E+00  0.00000E+00  9.000E+00
      21    -1     0     0   511   502  0.000000000E+00  0.000000000E+00 -4.642634530E+02  4.642634530E+02  0.000000000E+00  0.00000E+00  9.000E+00
      25     1     1     2     0     0 -9.146097471E+00 -2.854068707E+01  2.752091298E+02  3.037487235E+02  1.250000000E+02  0.00000E+00  9.000E+00
      25     1     1     2     0     0  6.656489495E+00 -8.450808935E+01 -4.964353942E+01  1.589824111E+02  1.250000000E+02  0.00000E+00  9.000E+00
      21     1     1     2   511   501  2.489607976E+00  1.130487764E+02 -3.364335456E+02  3.549278161E+02  5.394796609E-06  0.00000E+00  9.000E+00
#rwgt            2          11   2.5065532429800067E-003           4       24495           0
</event>
<event>
      5   9999  3.79277E-02  9.28708E+01 -1.00000E+00  1.25290E-01
      21    -1     0     0   502   501  0.000000000E+00  0.000000000E+00  2.856752109E+02  2.856752109E+02  0.000000000E+00  0.00000E+00  9.000E+00
      21    -1     0     0   501   512  0.000000000E+00  0.000000000E+00 -1.219727859E+03  1.219727859E+03  0.000000000E+00  0.00000E+00  9.000E+00
      25     1     1     2     0     0  8.642498533E+01 -1.690941503E+02  1.879943849E+02  2.950067771E+02  1.250000000E+02  0.00000E+00  9.000E+00
      25     1     1     2     0     0  5.592576562E-01  1.365559563E+02 -1.623982474E+02  2.462641523E+02  1.250000000E+02  0.00000E+00  9.000E+00
      21     1     1     2   502   512 -8.698424299E+01  3.253819402E+01 -9.596487854E+02  9.641321403E+02  1.868812365E-05  0.00000E+00  9.000E+00
#rwgt            1           1   4.1541515702837054E-002           4       24605           0
</event>
<event>
      5   9999  3.79277E-02  1.26670E+01 -1.00000E+00  1.84592E-01
      21    -1     0     0   502   501  0.000000000E+00  0.000000000E+00  5.420033142E+02  5.420033142E+02  0.000000000E+00  0.00000E+00  9.000E+00
      21    -1     0     0   511   502  0.000000000E+00  0.000000000E+00 -7.893120583E+01  7.893120583E+01  0.000000000E+00  0.00000E+00  9.000E+00
      25     1     1     2     0     0  1.007889437E+02 -1.127425888E+02  1.812632134E+02  2.671154339E+02  1.250000000E+02  0.00000E+00  9.000E+00
      25     1     1     2     0     0 -1.034702623E+02  1.003626777E+02  2.827656282E+02  3.411160547E+02  1.250000000E+02  0.00000E+00  9.000E+00
      21     1     1     2   511   501  2.681318623E+00  1.237991112E+01 -9.567332369E-01  1.270303142E+01  1.273155770E-07  0.00000E+00  9.000E+00
#rwgt            1           1   3.2987655707494505E-002           4       24824           0
</event>
<event>
      5   9999  3.79277E-02  3.39659E+01 -1.00000E+00  1.49387E-01
      21    -1     0     0   502   501  0.000000000E+00  0.000000000E+00  7.306558307E+01  7.306558307E+01  0.000000000E+00  0.00000E+00  9.000E+00
      21    -1     0     0   501   512  0.000000000E+00  0.000000000E+00 -1.032801323E+03  1.032801323E+03  0.000000000E+00  0.00000E+00  9.000E+00
      25     1     1     2     0     0 -1.246338802E+01  2.134531113E+02 -5.746877348E+02  6.257863528E+02  1.250000000E+02  0.00000E+00  9.000E+00
      25     1     1     2     0     0  4.094920753E+01 -1.949532858E+02 -2.603657715E+02  3.508546084E+02  1.250000000E+02  0.00000E+00  9.000E+00
      21     1     1     2   502   512 -2.848581951E+01 -1.849982549E+01 -1.246822339E+02  1.292259452E+02  2.336015456E-06  0.00000E+00  9.000E+00
#rwgt            1           1   3.4194502838551799E-002           4       25004           0
</event>
<event>
      5   9999  3.79277E-02  5.39180E+01 -1.00000E+00  1.37232E-01
      21    -1     0     0   502   511  0.000000000E+00  0.000000000E+00  1.014727324E+03  1.014727324E+03  0.000000000E+00  0.00000E+00  9.000E+00
      21    -1     0     0   501   502  0.000000000E+00  0.000000000E+00 -1.108586897E+02  1.108586897E+02  0.000000000E+00  0.00000E+00  9.000E+00
      25     1     1     2     0     0  4.383279835E+00 -8.307363392E+00  2.480885365E+02  2.779588951E+02  1.250000000E+02  0.00000E+00  9.000E+00
      25     1     1     2     0     0 -7.243491011E+00 -4.553473220E+01 -4.812676037E+01  1.416582686E+02  1.250000000E+02  0.00000E+00  9.000E+00
      21     1     1     2   501   511  2.860211176E+00  5.384209559E+01  7.039068581E+02  7.059688499E+02  7.629394531E-06  0.00000E+00  9.000E+00
#rwgt            1           1   4.6979552615530107E-002           4       25202           0
</event>
<event>
      5   9999  3.79277E-02  3.01960E+01 -1.00000E+00  1.52844E-01
      21    -1     0     0   512   501  0.000000000E+00  0.000000000E+00  5.474909540E+02  5.474909540E+02  0.000000000E+00  0.00000E+00  9.000E+00
      21    -1     0     0   501   502  0.000000000E+00  0.000000000E+00 -1.510879915E+02  1.510879915E+02  0.000000000E+00  0.00000E+00  9.000E+00
      25     1     1     2     0     0 -1.518080403E+02 -6.919654922E+01  3.365968445E+02  3.959245878E+02  1.250000000E+02  0.00000E+00  9.000E+00
      25     1     1     2     0     0  1.433369636E+02  4.021307623E+01 -3.992865416E+01  1.984486686E+02  1.250000000E+02  0.00000E+00  9.000E+00
      21     1     1     2   512   502  8.471076637E+00  2.898347300E+01  9.973477216E+01  1.042056890E+02  1.348699152E-06  0.00000E+00  9.000E+00
#rwgt            1           1   3.5647125096588614E-002           4       25280           0
</event>
<event>
      5   9999  3.79277E-02  5.57124E+01 -1.00000E+00  1.36447E-01
      21    -1     0     0   502   501  0.000000000E+00  0.000000000E+00  7.705006045E+02  7.705006045E+02  0.000000000E+00  0.00000E+00  9.000E+00
      21    -1     0     0   501   511  0.000000000E+00  0.000000000E+00 -8.196570079E+01  8.196570079E+01  0.000000000E+00  0.00000E+00  9.000E+00
      25     1     1     2     0     0  1.511038343E+02 -1.411730196E+02  3.775449113E+02  4.482492056E+02  1.250000000E+02  0.00000E+00  9.000E+00
      25     1     1     2     0     0 -9.752853681E+01  1.258903431E+02  2.403159931E+02  3.142243952E+02  1.250000000E+02  0.00000E+00  9.000E+00
      21     1     1     2   502   511 -5.357529747E+01  1.528267647E+01  7.067399929E+01  8.999270457E+01  0.000000000E+00  0.00000E+00  9.000E+00
#rwgt            2          11   2.9900057609356830E-003           4       25414           0
</event>
<event>
      5   9999  3.79277E-02  2.91502E+02 -1.00000E+00  1.05999E-01
      21    -1     0     0   512   501  0.000000000E+00  0.000000000E+00  1.897801871E+02  1.897801871E+02  0.000000000E+00  0.00000E+00  9.000E+00
      21    -1     0     0   501   502  0.000000000E+00  0.000000000E+00 -1.716134104E+03  1.716134104E+03  0.000000000E+00  0.00000E+00  9.000E+00
      25     1     1     2     0     0 -1.488689278E+02  2.651019173E+02 -8.145057767E+02  8.783425553E+02  1.250000000E+02  0.00000E+00  9.000E+00
      25     1     1     2     0     0 -1.169512193E+02 -1.454651149E+02 -7.007312738E+02  7.358580063E+02  1.250000000E+02  0.00000E+00  9.000E+00
      21     1     1     2   512   502  2.658201470E+02 -1.196368024E+02 -1.111686604E+01  2.917137291E+02  3.662655710E-06  0.00000E+00  9.000E+00
#rwgt            2          11   2.5103932378425448E-003           4       25524           0
</event>
<event>
      5   9999  3.79277E-02  2.57346E+01 -1.00000E+00  1.57815E-01
      21    -1     0     0   502   501  0.000000000E+00  0.000000000E+00  2.723086339E+02  2.723086339E+02  0.000000000E+00  0.00000E+00  9.000E+00
      21    -1     0     0   501   511  0.000000000E+00  0.000000000E+00 -9.053180854E+02  9.053180854E+02  0.000000000E+00  0.00000E+00  9.000E+00
      25     1     1     2     0     0 -7.227145802E+01  4.671294130E+02 -3.305131897E+02  5.901669431E+02  1.250000000E+02  0.00000E+00  9.000E+00
      25     1     1     2     0     0  5.108581507E+01 -4.525198401E+02 -2.636179930E+02  5.408358461E+02  1.250000000E+02  0.00000E+00  9.000E+00
      21     1     1     2   502   511  2.118564295E+01 -1.460957288E+01 -3.887826873E+01  4.662393019E+01  4.768371582E-07  0.00000E+00  9.000E+00
#rwgt            1           1  0.12523357654693199                4       25544           0
</event>
<event>
      5   9999  3.79277E-02  8.29586E+01 -1.00000E+00  1.27591E-01
      21    -1     0     0   502   512  0.000000000E+00  0.000000000E+00  1.544509169E+02  1.544509169E+02  0.000000000E+00  0.00000E+00  9.000E+00
      21    -1     0     0   501   502  0.000000000E+00  0.000000000E+00 -7.359461078E+02  7.359461078E+02  0.000000000E+00  0.00000E+00  9.000E+00
      25     1     1     2     0     0  1.596989766E+02 -2.063649057E+00 -6.104172238E+02  6.432279603E+02  1.250000000E+02  0.00000E+00  9.000E+00
      25     1     1     2     0     0 -8.538043725E+01  3.892663638E+01  4.503551528E+01  1.626600741E+02  1.250000000E+02  0.00000E+00  9.000E+00
      21     1     1     2   501   512 -7.431853935E+01 -3.686298732E+01 -1.611348242E+01  8.450899030E+01  1.877309769E-06  0.00000E+00  9.000E+00
#rwgt            1           1   3.1987038610665840E-002           4       25790           0
</event>
<event>
      5   9999  3.79277E-02  3.77385E+01 -1.00000E+00  1.46425E-01
      21    -1     0     0   502   501  0.000000000E+00  0.000000000E+00  2.672516886E+02  2.672516886E+02  0.000000000E+00  0.00000E+00  9.000E+00
      21    -1     0     0   501   511  0.000000000E+00  0.000000000E+00 -3.182073952E+03  3.182073952E+03  0.000000000E+00  0.00000E+00  9.000E+00
      25     1     1     2     0     0 -5.572292863E+01 -1.171681333E+02  2.007987431E+02  2.697750015E+02  1.250000000E+02  0.00000E+00  9.000E+00
      25     1     1     2     0     0  1.799053966E+01  1.178477217E+02 -2.024091735E+02  2.660943791E+02  1.250000000E+02  0.00000E+00  9.000E+00
      21     1     1     2   502   511  3.773238897E+01 -6.795884456E-01 -2.913211833E+03  2.913456260E+03  0.000000000E+00  0.00000E+00  9.000E+00
#rwgt            1           1   3.1130695729624937E-002           4       25875           0
</event>
<event>
      5   9999  3.79277E-02  7.37159E+01 -1.00000E+00  1.30093E-01
      21    -1     0     0   502   501  0.000000000E+00  0.000000000E+00  2.824247336E+02  2.824247336E+02  0.000000000E+00  0.00000E+00  9.000E+00
      21    -1     0     0   501   512  0.000000000E+00  0.000000000E+00 -2.695149825E+02  2.695149825E+02  0.000000000E+00  0.00000E+00  9.000E+00
      25     1     1     2     0     0  7.690888989E+01  1.113774766E+02  1.807630418E+02  2.581088858E+02  1.250000000E+02  0.00000E+00  9.000E+00
      25     1     1     2     0     0 -1.686241080E+01 -6.861711527E+01 -4.485016900E+01  1.504300072E+02  1.250000000E+02  0.00000E+00  9.000E+00
      21     1     1     2   502   512 -6.004647909E+01 -4.276036130E+01 -1.230031216E+02  1.434008231E+02  2.697398305E-06  0.00000E+00  9.000E+00
#rwgt            1           1   4.0655721654716225E-002           4       26124           0
</event>
<event>
      5   9999  3.79277E-02  1.99474E+01 -1.00000E+00  1.66463E-01
      21    -1     0     0   511   501  0.000000000E+00  0.000000000E+00  2.696036728E+02  2.696036728E+02  0.000000000E+00  0.00000E+00  9.000E+00
      21    -1     0     0   501   502  0.000000000E+00  0.000000000E+00 -2.122300972E+02  2.122300972E+02  0.000000000E+00  0.00000E+00  9.000E+00
      25     1     1     2     0     0  1.162662552E+02 -1.359775317E+02  1.485273727E+01  2.187540514E+02  1.250000000E+02  0.00000E+00  9.000E+00
      25     1     1     2     0     0 -1.274187798E+02  1.525159893E+02  2.424957479E+01  2.360290540E+02  1.250000000E+02  0.00000E+00  9.000E+00
      21     1     1     2   511   502  1.115252463E+01 -1.653845765E+01  1.827126352E+01  2.705066465E+01  4.129530925E-07  0.00000E+00  9.000E+00
#rwgt            1           1   3.5910771899703126E-002           4       26299           0
</event>
<event>
      5   9999  3.79277E-02  8.84836E+00 -1.00000E+00  2.02107E-01
      21    -1     0     0   502   501  0.000000000E+00  0.000000000E+00  1.515813089E+02  1.515813089E+02  0.000000000E+00  0.00000E+00  9.000E+00
      21    -1     0     0   501   512  0.000000000E+00  0.000000000E+00 -2.267631606E+02  2.267631606E+02  0.000000000E+00  0.00000E+00  9.000E+00
      25     1     1     2     0     0  1.089636900E+02 -9.498577595E+00 -9.640375799E+01  1.920468518E+02  1.250000000E+02  0.00000E+00  9.000E+00
      25     1     1     2     0     0 -1.008066856E+02  1.292738030E+01  3.960176533E+01  1.658987789E+02  1.250000000E+02  0.00000E+00  9.000E+00
      21     1     1     2   502   512 -8.157004412E+00 -3.428802700E+00 -1.837985902E+01  2.039883885E+01  3.371747881E-07  0.00000E+00  9.000E+00
#rwgt            1           1   3.6031718806227520E-002           4       26479           0
</event>
<event>
      5   9999  3.79277E-02  8.12405E+01 -1.00000E+00  1.28027E-01
      21    -1     0     0   502   501  0.000000000E+00  0.000000000E+00  4.550513569E+02  4.550513569E+02  0.000000000E+00  0.00000E+00  9.000E+00
      21    -1     0     0   501   511  0.000000000E+00  0.000000000E+00 -1.895216696E+02  1.895216696E+02  0.000000000E+00  0.00000E+00  9.000E+00
      25     1     1     2     0     0 -1.264405939E+01  5.210088188E+01  3.776794010E+02  4.014238460E+02  1.250000000E+02  0.00000E+00  9.000E+00
      25     1     1     2     0     0  1.651535401E+01  2.904728833E+01 -4.265016141E+01  1.362370660E+02  1.250000000E+02  0.00000E+00  9.000E+00
      21     1     1     2   502   511 -3.871294620E+00 -8.114817021E+01 -6.949955236E+01  1.069121145E+02  2.336015456E-06  0.00000E+00  9.000E+00
#rwgt            1           1   3.7148445806431937E-002           4       26691           0
</event>
<event>
      5   9999  3.79277E-02  7.13835E+01 -1.00000E+00  1.30792E-01
      21    -1     0     0   502   512  0.000000000E+00  0.000000000E+00  2.162873362E+02  2.162873362E+02  0.000000000E+00  0.00000E+00  9.000E+00
      21    -1     0     0   501   502  0.000000000E+00  0.000000000E+00 -6.011136474E+02  6.011136474E+02  0.000000000E+00  0.00000E+00  9.000E+00
      25     1     1     2     0     0  8.513293438E+00  2.479191516E+02  5.026068472E+00  2.778248428E+02  1.250000000E+02  0.00000E+00  9.000E+00
      25     1     1     2     0     0  5.153050661E+01 -2.093142255E+02 -3.960552267E+02  4.679236911E+02  1.250000000E+02  0.00000E+00  9.000E+00
      21     1     1     2   501   512 -6.004380004E+01 -3.860492612E+01  6.202847027E+00  7.165244975E+01  5.527507362E-07  0.00000E+00  9.000E+00
#rwgt            1           1   3.2172385400798469E-002           4       26856           0
</event>
<event>
      5   9999  3.79277E-02  3.05062E+01 -1.00000E+00  1.52537E-01
      21    -1     0     0   502   511  0.000000000E+00  0.000000000E+00  3.241578966E+01  3.241578966E+01  0.000000000E+00  0.00000E+00  9.000E+00
      21    -1     0     0   501   502  0.000000000E+00  0.000000000E+00 -3.158023089E+03  3.158023089E+03  0.000000000E+00  0.00000E+00  9.000E+00
      25     1     1     2     0     0  1.870554236E+02 -2.135390102E+02 -1.241015351E+03  1.279192222E+03  1.250000000E+02  0.00000E+00  9.000E+00
      25     1     1     2     0     0 -1.809260890E+02  1.836549056E+02 -1.744548762E+03  1.767919330E+03  1.250000000E+02  0.00000E+00  9.000E+00
      21     1     1     2   501   511 -6.129334593E+00  2.988410455E+01 -1.400431872E+02  1.433273272E+02  2.697398305E-06  0.00000E+00  9.000E+00
#rwgt            1           1   4.2634610856189505E-002           4       27080           0
</event>
<event>
      5   9999  3.79277E-02  4.38654E+01 -1.00000E+00  1.42399E-01
      21    -1     0     0   502   501  0.000000000E+00  0.000000000E+00  1.008862133E+02  1.008862133E+02  0.000000000E+00  0.00000E+00  9.000E+00
      21    -1     0     0   501   512  0.000000000E+00  0.000000000E+00 -1.452295192E+03  1.452295192E+03  0.000000000E+00  0.00000E+00  9.000E+00
      25     1     1     2     0     0 -2.470491040E+02  1.641323028E+02 -4.690466565E+02  5.688606495E+02  1.250000000E+02  0.00000E+00  9.000E+00
      25     1     1     2     0     0  2.605152614E+02 -2.058795807E+02 -5.883054852E+02  6.870101506E+02  1.250000000E+02  0.00000E+00  9.000E+00
      21     1     1     2   502   512 -1.346615742E+01  4.174727789E+01 -2.940568371E+02  2.973106054E+02  5.394796609E-06  0.00000E+00  9.000E+00
#rwgt            1           1   3.5268148335895269E-002           4       27216           0
</event>
<event>
      5   9999  3.79277E-02  4.70549E+01 -1.00000E+00  1.40597E-01
      21    -1     0     0   502   511  0.000000000E+00  0.000000000E+00  1.460551162E+03  1.460551162E+03  0.000000000E+00  0.00000E+00  9.000E+00
      21    -1     0     0   501   502  0.000000000E+00  0.000000000E+00 -1.356979576E+02  1.356979576E+02  0.000000000E+00  0.00000E+00  9.000E+00
      25     1     1     2     0     0  3.813362130E+02  5.432213296E+01  4.476955833E+02  6.036758541E+02  1.250000000E+02  0.00000E+00  9.000E+00
      25     1     1     2     0     0 -3.417770587E+02 -2.884208840E+01  5.379778173E+02  6.501450268E+02  1.250000000E+02  0.00000E+00  9.000E+00
      21     1     1     2   501   511 -3.955915426E+01 -2.548004456E+01  3.391798040E+02  3.424282389E+02  0.000000000E+00  0.00000E+00  9.000E+00
#rwgt            1           1   3.8533974219344701E-002           4       27561           0
</event>
<event>
      5   9999  3.79277E-02  7.52044E+01 -1.00000E+00  1.29663E-01
      21    -1     0     0   512   501  0.000000000E+00  0.000000000E+00  4.404341447E+02  4.404341447E+02  0.000000000E+00  0.00000E+00  9.000E+00
      21    -1     0     0   501   502  0.000000000E+00  0.000000000E+00 -2.968012228E+02  2.968012228E+02  0.000000000E+00  0.00000E+00  9.000E+00
      25     1     1     2     0     0  7.309590191E+01  5.226237293E+01 -2.107364379E+02  2.609774181E+02  1.250000000E+02  0.00000E+00  9.000E+00
      25     1     1     2     0     0 -1.389970978E+02 -1.603076577E+01  1.033267330E+02  2.141928860E+02  1.250000000E+02  0.00000E+00  9.000E+00
      21     1     1     2   512   502  6.590119594E+01 -3.623160716E+01  2.510426268E+02  2.620650634E+02  2.697398305E-06  0.00000E+00  9.000E+00
#rwgt            1           1   2.5947969137769832E-002           4       27724           0
</event>
<event>
      5   9999  3.79277E-02  1.63975E+01 -1.00000E+00  1.73815E-01
      21    -1     0     0   502   501  0.000000000E+00  0.000000000E+00  3.286216621E+02  3.286216621E+02  0.000000000E+00  0.00000E+00  9.000E+00
      21    -1     0     0   501   511  0.000000000E+00  0.000000000E+00 -3.360218146E+02  3.360218146E+02  0.000000000E+00  0.00000E+00  9.000E+00
      25     1     1     2     0     0 -1.848557493E+02  1.027415993E+02 -4.244654086E+01  2.493074269E+02  1.250000000E+02  0.00000E+00  9.000E+00
      25     1     1     2     0     0  1.891522595E+02 -8.691702294E+01  1.590407644E+02  2.902621416E+02  1.250000000E+02  0.00000E+00  9.000E+00
      21     1     1     2   502   511 -4.296510162E+00 -1.582457632E+01 -1.239943760E+02  1.250739082E+02  1.348699152E-06  0.00000E+00  9.000E+00
#rwgt            1           1   3.2144295113881734E-002           4       27844           0
</event>
<event>
      5   9999  3.79277E-02  4.19655E+00 -1.00000E+00  2.58656E-01
      21    -1     0     0   502   501  0.000000000E+00  0.000000000E+00  8.289887277E+01  8.289887277E+01  0.000000000E+00  0.00000E+00  9.000E+00
      21    -1     0     0   512   502  0.000000000E+00  0.000000000E+00 -1.043696298E+03  1.043696298E+03  0.000000000E+00  0.00000E+00  9.000E+00
      25     1     1     2     0     0 -2.567862237E+02 -5.893651586E+00 -4.344769605E+02  5.199703155E+02  1.250000000E+02  0.00000E+00  9.000E+00
      25     1     1     2     0     0  2.577446883E+02  1.808024137E+00 -4.718931360E+02  5.520359817E+02  1.250000000E+02  0.00000E+00  9.000E+00
      21     1     1     2   512   501 -9.584645813E-01  4.085627449E+00 -5.442732879E+01  5.458887364E+01  0.000000000E+00  0.00000E+00  9.000E+00
#rwgt            1           1   2.3402906659938355E-002           4       28004           0
</event>
<event>
      5   9999  3.79277E-02  2.60239E+02 -1.00000E+00  1.07638E-01
      21    -1     0     0   502   501  0.000000000E+00  0.000000000E+00  1.629154177E+03  1.629154177E+03  0.000000000E+00  0.00000E+00  9.000E+00
      21    -1     0     0   511   502  0.000000000E+00  0.000000000E+00 -3.204630305E+02  3.204630305E+02  0.000000000E+00  0.00000E+00  9.000E+00
      25     1     1     2     0     0 -4.321116979E+02 -4.170386333E+02  1.128672883E+03  1.284589124E+03  1.250000000E+02  0.00000E+00  9.000E+00
      25     1     1     2     0     0  2.013655133E+02  2.967025951E+02  1.152975163E+02  3.968614584E+02  1.250000000E+02  0.00000E+00  9.000E+00
      21     1     1     2   511   501  2.307461845E+02  1.203360383E+02  6.472074762E+01  2.681666254E+02  4.955437110E-06  0.00000E+00  9.000E+00
#rwgt            2          11   7.3623892782297045E-003           4       28453           0
</event>
<event>
      5   9999  3.79277E-02  4.09188E+01 -1.00000E+00  1.44231E-01
      21    -1     0     0   502   501  0.000000000E+00  0.000000000E+00  4.199088646E+02  4.199088646E+02  0.000000000E+00  0.00000E+00  9.000E+00
      21    -1     0     0   501   512  0.000000000E+00  0.000000000E+00 -1.368704181E+02  1.368704181E+02  0.000000000E+00  0.00000E+00  9.000E+00
      25     1     1     2     0     0 -1.073392360E+01  1.339649651E+02  2.529411757E+02  3.125157074E+02  1.250000000E+02  0.00000E+00  9.000E+00
      25     1     1     2     0     0 -2.904992772E+01 -1.243944491E+02  6.530470837E+01  1.902829005E+02  1.250000000E+02  0.00000E+00  9.000E+00
      21     1     1     2   502   512  3.978385133E+01 -9.570515972E+00 -3.520743755E+01  5.398067489E+01  6.743495762E-07  0.00000E+00  9.000E+00
#rwgt            1           1   4.5093612771519340E-002           4       28473           0
</event>
<event>
      5   9999 -3.79277E-02  9.67543E+01 -1.00000E+00  1.24476E-01
      21    -1     0     0   511   501  0.000000000E+00  0.000000000E+00  3.596211912E+02  3.596211912E+02  0.000000000E+00  0.00000E+00  9.000E+00
      21    -1     0     0   501   502  0.000000000E+00  0.000000000E+00 -3.924777403E+02  3.924777403E+02  0.000000000E+00  0.00000E+00  9.000E+00
      25     1     1     2     0     0  2.794749399E+02  1.546606443E+02 -2.229605348E+01  3.437270297E+02  1.250000000E+02  0.00000E+00  9.000E+00
      25     1     1     2     0     0 -2.117817349E+02 -8.553021613E+01 -9.776473444E+01  2.781184360E+02  1.250000000E+02  0.00000E+00  9.000E+00
      21     1     1     2   511   502 -6.769320493E+01 -6.913042822E+01  8.720423889E+01  1.302534659E+02  1.348699152E-06  0.00000E+00  9.000E+00
#rwgt            1           1 -0.17884771239092065                4       28564           0
</event>
<event>
      5   9999  3.79277E-02  1.74039E+01 -1.00000E+00  1.71510E-01
      21    -1     0     0   512   501  0.000000000E+00  0.000000000E+00  1.762004475E+01  1.762004475E+01  0.000000000E+00  0.00000E+00  9.000E+00
      21    -1     0     0   501   502  0.000000000E+00  0.000000000E+00 -2.460363930E+03  2.460363930E+03  0.000000000E+00  0.00000E+00  9.000E+00
      25     1     1     2     0     0 -6.725933721E+01  4.402497665E+01 -4.643642329E+02  4.875665675E+02  1.250000000E+02  0.00000E+00  9.000E+00
      25     1     1     2     0     0  5.431873770E+01 -3.238719483E+01 -1.960383049E+03  1.965381936E+03  1.250000000E+02  0.00000E+00  9.000E+00
      21     1     1     2   512   502  1.294059951E+01 -1.163778182E+01 -1.799660317E+01  2.503547098E+01  1.238859277E-06  0.00000E+00  9.000E+00
#rwgt            1           1   7.5350101131802724E-002           4       28619           0
</event>
<event>
      5   9999  3.79277E-02  1.07641E+01 -1.00000E+00  1.92132E-01
      21    -1     0     0   502   501  0.000000000E+00  0.000000000E+00  1.828876829E+02  1.828876829E+02  0.000000000E+00  0.00000E+00  9.000E+00
      21    -1     0     0   511   502  0.000000000E+00  0.000000000E+00 -1.571376753E+02  1.571376753E+02  0.000000000E+00  0.00000E+00  9.000E+00
      25     1     1     2     0     0  4.566549387E+01 -1.436434619E+01 -8.180014386E+01  1.568691662E+02  1.250000000E+02  0.00000E+00  9.000E+00
      25     1     1     2     0     0 -4.164922309E+01  4.377600030E+00  1.104784555E+02  1.720009020E+02  1.250000000E+02  0.00000E+00  9.000E+00
      21     1     1     2   511   501 -4.016270783E+00  9.986746159E+00 -2.928304073E+00  1.115528998E+01  3.068336886E-07  0.00000E+00  9.000E+00
#rwgt            1           1   4.0530291982092008E-002           4       28798           0
</event>
<event>
      5   9999  3.79277E-02  6.09885E+01 -1.00000E+00  1.34325E-01
      21    -1     0     0   512   501  0.000000000E+00  0.000000000E+00  2.999889654E+02  2.999889654E+02  0.000000000E+00  0.00000E+00  9.000E+00
      21    -1     0     0   501   502  0.000000000E+00  0.000000000E+00 -6.097370093E+02  6.097370093E+02  0.000000000E+00  0.00000E+00  9.000E+00
      25     1     1     2     0     0 -3.442434028E+01 -1.246250311E+02 -4.486954632E+02  4.833932687E+02  1.250000000E+02  0.00000E+00  9.000E+00
      25     1     1     2     0     0 -2.317301861E+01  1.446785045E+02 -7.286074474E+01  2.059187864E+02  1.250000000E+02  0.00000E+00  9.000E+00
      21     1     1     2   512   502  5.759735889E+01 -2.005347348E+01  2.118081640E+02  2.204139195E+02  3.814697266E-06  0.00000E+00  9.000E+00
#rwgt            1           1   3.6806565840241293E-002           4       29228           0
</event>
<event>
      5   9999  3.79277E-02  1.43055E+02 -1.00000E+00  1.17215E-01
      21    -1     0     0   511   501  0.000000000E+00  0.000000000E+00  3.113455261E+02  3.113455261E+02  0.000000000E+00  0.00000E+00  9.000E+00
      21    -1     0     0   501   502  0.000000000E+00  0.000000000E+00 -6.058659680E+02  6.058659680E+02  0.000000000E+00  0.00000E+00  9.000E+00
      25     1     1     2     0     0 -2.878206951E+02  1.769670763E+02  1.686209520E+01  3.606486224E+02  1.250000000E+02  0.00000E+00  9.000E+00
      25     1     1     2     0     0  1.906445640E+02 -7.198345804E+01 -3.350174066E+02  4.115685007E+02  1.250000000E+02  0.00000E+00  9.000E+00
      21     1     1     2   511   502  9.717613107E+01 -1.049836183E+02  2.363486955E+01  1.449943710E+02  1.617033478E-06  0.00000E+00  9.000E+00
#rwgt            1           1   3.5447759896062282E-002           4       29335           0
</event>
<event>
      5   9999  3.79277E-02  1.76921E+02 -1.00000E+00  1.13622E-01
      21    -1     0     0   502   501  0.000000000E+00  0.000000000E+00  3.908202867E+02  3.908202867E+02  0.000000000E+00  0.00000E+00  9.000E+00
      21    -1     0     0   512   502  0.000000000E+00  0.000000000E+00 -2.566262625E+02  2.566262625E+02  0.000000000E+00  0.00000E+00  9.000E+00
      25     1     1     2     0     0 -1.932145391E+02 -8.043358894E+01  3.821544103E+01  2.467525892E+02  1.250000000E+02  0.00000E+00  9.000E+00
      25     1     1     2     0     0  1.361401272E+02 -8.702880700E+01  9.116915326E+01  2.237073132E+02  1.250000000E+02  0.00000E+00  9.000E+00
      21     1     1     2   512   501  5.707441185E+01  1.674623959E+02  4.809429899E+00  1.769866468E+02  1.400392070E-06  0.00000E+00  9.000E+00
#rwgt            1           1   3.9458333353445570E-002           4       29397           0
</event>
<event>
      5   9999  3.79277E-02  6.92779E+01 -1.00000E+00  1.31449E-01
      21    -1     0     0   502   511  0.000000000E+00  0.000000000E+00  4.785624646E+02  4.785624646E+02  0.000000000E+00  0.00000E+00  9.000E+00
      21    -1     0     0   501   502  0.000000000E+00  0.000000000E+00 -1.037186952E+02  1.037186952E+02  0.000000000E+00  0.00000E+00  9.000E+00
      25     1     1     2     0     0  2.126430835E+00  4.323872377E+01  3.164088064E+02  3.429484534E+02  1.250000000E+02  0.00000E+00  9.000E+00
      25     1     1     2     0     0 -4.410678427E+01  1.187099102E+01 -2.011691112E+01  1.345957613E+02  1.250000000E+02  0.00000E+00  9.000E+00
      21     1     1     2   501   511  4.198035344E+01 -5.510971480E+01  7.855187412E+01  1.047369451E+02  0.000000000E+00  0.00000E+00  9.000E+00
#rwgt            1           1   2.2080610313425349E-002           4       29546           0
</event>
<event>
      5   9999  3.79277E-02  2.94573E+01 -1.00000E+00  1.53593E-01
      21    -1     0     0   502   501  0.000000000E+00  0.000000000E+00  1.269162460E+02  1.269162460E+02  0.000000000E+00  0.00000E+00  9.000E+00
       1    -1     0     0   501     0  0.000000000E+00  0.000000000E+00 -1.189608521E+03  1.189608521E+03  0.000000000E+00  0.00000E+00  9.000E+00
      25     1     1     2     0     0 -1.248136828E+02 -4.736019881E+01 -4.235403926E+02  4.613381710E+02  1.250000000E+02  0.00000E+00  9.000E+00
      25     1     1     2     0     0  9.934326916E+01  3.256186289E+01  4.606178496E+01  1.693400368E+02  1.250000000E+02  0.00000E+00  9.000E+00
       1     1     1     2   502     0  2.547041360E+01  1.479833592E+01 -6.852136677E+02  6.858465595E+02  7.629394531E-06  0.00000E+00  9.000E+00
#rwgt            1           1   3.4268945047854438E-002           4       29649           0
</event>
<event>
      5   9999 -3.79277E-02  3.63600E+01 -1.00000E+00  1.47458E-01
      21    -1     0     0   502   501  0.000000000E+00  0.000000000E+00  2.477016765E+02  2.477016765E+02  0.000000000E+00  0.00000E+00  9.000E+00
      21    -1     0     0   511   502  0.000000000E+00  0.000000000E+00 -2.065923861E+02  2.065923861E+02  0.000000000E+00  0.00000E+00  9.000E+00
      25     1     1     2     0     0  6.138941772E+01  1.276847343E+02 -8.904951576E+00  1.891463723E+02  1.250000000E+02  0.00000E+00  9.000E+00
      25     1     1     2     0     0 -8.257108072E+01 -1.572378245E+02  6.365145429E+01  2.263144371E+02  1.250000000E+02  0.00000E+00  9.000E+00
      21     1     1     2   511   501  2.118166300E+01  2.955309019E+01 -1.363721232E+01  3.883325311E+01  2.384185791E-07  0.00000E+00  9.000E+00
#rwgt            1           1 -0.22429392222910527                4       29757           0
</event>
<event>
      5   9999 -3.79277E-02  9.85150E+01 -1.00000E+00  1.24121E-01
      21    -1     0     0   502   501  0.000000000E+00  0.000000000E+00  4.886746753E+02  4.886746753E+02  0.000000000E+00  0.00000E+00  9.000E+00
      21    -1     0     0   501   512  0.000000000E+00  0.000000000E+00 -2.930342708E+02  2.930342708E+02  0.000000000E+00  0.00000E+00  9.000E+00
      25     1     1     2     0     0  1.399330552E+02  7.721761864E+01  1.919352695E+02  2.792990660E+02  1.250000000E+02  0.00000E+00  9.000E+00
      25     1     1     2     0     0 -1.280617212E+02 -1.750146917E+02  1.745752674E+02  3.051744923E+02  1.250000000E+02  0.00000E+00  9.000E+00
      21     1     1     2   502   512 -1.187133403E+01  9.779707308E+01 -1.708701324E+02  1.972353879E+02  0.000000000E+00  0.00000E+00  9.000E+00
#rwgt            1           1  -7.4791987441069116E-002           4       29917           0
</event>
<event>
      5   9999  3.79277E-02  9.57365E+01 -1.00000E+00  1.24685E-01
      -4    -1     0     0     0   501  0.000000000E+00  0.000000000E+00  9.966593991E+02  9.966593991E+02  0.000000000E+00  0.00000E+00  9.000E+00
      21    -1     0     0   501   502  0.000000000E+00  0.000000000E+00 -2.222956900E+02  2.222956900E+02  0.000000000E+00  0.00000E+00  9.000E+00
      25     1     1     2     0     0  4.844430868E+01 -1.592485602E+02 -1.177799876E+02  2.391737453E+02  1.250000000E+02  0.00000E+00  9.000E+00
      25     1     1     2     0     0 -2.889214088E+00  7.504512243E+01  8.876230371E+01  1.707157419E+02  1.250000000E+02  0.00000E+00  9.000E+00
      -4     1     1     2     0   502 -4.555509459E+01  8.420343777E+01  8.033813930E+02  8.090656019E+02  1.078959322E-05  0.00000E+00  9.000E+00
#rwgt            1           1   5.0571124403172851E-002           4       30133           0
</event>
<event>
      5   9999  3.79277E-02  6.50375E+01 -1.00000E+00  1.32859E-01
      21    -1     0     0   502   511  0.000000000E+00  0.000000000E+00  2.233285199E+02  2.233285199E+02  0.000000000E+00  0.00000E+00  9.000E+00
      21    -1     0     0   501   502  0.000000000E+00  0.000000000E+00 -7.409781999E+02  7.409781999E+02  0.000000000E+00  0.00000E+00  9.000E+00
      25     1     1     2     0     0  5.212683349E+01 -1.088720379E+02  1.343946676E+02  2.196753379E+02  1.250000000E+02  0.00000E+00  9.000E+00
      25     1     1     2     0     0 -1.134346624E+02  1.305798228E+02 -6.447918763E+02  6.791907512E+02  1.250000000E+02  0.00000E+00  9.000E+00
      21     1     1     2   501   511  6.130782889E+01 -2.170778499E+01 -7.252471341E+00  6.544063075E+01  7.001960352E-07  0.00000E+00  9.000E+00
#rwgt            1           1   2.8542729378390311E-002           4       30258           0
</event>
<event>
      5   9999  3.79277E-02  9.37957E+01 -1.00000E+00  1.25092E-01
      21    -1     0     0   512   501  0.000000000E+00  0.000000000E+00  6.892961933E+02  6.892961933E+02  0.000000000E+00  0.00000E+00  9.000E+00
      21    -1     0     0   501   502  0.000000000E+00  0.000000000E+00 -1.172951946E+02  1.172951946E+02  0.000000000E+00  0.00000E+00  9.000E+00
      25     1     1     2     0     0  4.131295547E+00  8.164006403E+01 -7.920959714E+00  1.495657356E+02  1.250000000E+02  0.00000E+00  9.000E+00
      25     1     1     2     0     0  1.206650580E+01 -1.740265339E+02  3.874054188E+02  4.428755961E+02  1.250000000E+02  0.00000E+00  9.000E+00
      21     1     1     2   512   502 -1.619780134E+01  9.238646988E+01  1.925165395E+02  2.141500562E+02  2.697398305E-06  0.00000E+00  9.000E+00
#rwgt            1           1   3.8236518996121516E-002           4       30357           0
</event>
<event>
      5   9999  3.79277E-02  3.32940E+02 -1.00000E+00  1.04142E-01
      21    -1     0     0   511   501  0.000000000E+00  0.000000000E+00  1.578882302E+03  1.578882302E+03  0.000000000E+00  0.00000E+00  9.000E+00
      21    -1     0     0   501   502  0.000000000E+00  0.000000000E+00 -1.323032939E+02  1.323032939E+02  0.000000000E+00  0.00000E+00  9.000E+00
      25     1     1     2     0     0 -5.985173498E+01  1.580654043E+02  5.654147169E+01  2.176897798E+02  1.250000000E+02  0.00000E+00  9.000E+00
      25     1     1     2     0     0  1.303233040E+01  1.715660075E+02  5.756765555E+02  6.137045161E+02  1.250000000E+02  0.00000E+00  9.000E+00
      21     1     1     2   511   502  4.681940459E+01 -3.296314118E+02  8.143609811E+02  8.797913002E+02  0.000000000E+00  0.00000E+00  9.000E+00
#rwgt            1           1   5.2160632460630629E-002           4       30441           0
</event>
<event>
      5   9999  3.79277E-02  3.14850E+01 -1.00000E+00  1.51597E-01
      21    -1     0     0   502   501  0.000000000E+00  0.000000000E+00  3.182541617E+02  3.182541617E+02  0.000000000E+00  0.00000E+00  9.000E+00
      21    -1     0     0   512   502  0.000000000E+00  0.000000000E+00 -3.929826872E+02  3.929826872E+02  0.000000000E+00  0.00000E+00  9.000E+00
      25     1     1     2     0     0 -1.373085605E+02  2.611915193E+02 -7.636561836E+01  3.294409783E+02  1.250000000E+02  0.00000E+00  9.000E+00
      25     1     1     2     0     0  1.461184258E+02 -2.914188173E+02  9.763640550E+00  3.492790433E+02  1.250000000E+02  0.00000E+00  9.000E+00
      21     1     1     2   512   501 -8.809865280E+00  3.022729803E+01 -8.126547647E+00  3.251682717E+01  1.685873940E-07  0.00000E+00  9.000E+00
#rwgt            1           1   4.1794122162965193E-002           4       30514           0
</event>
<event>
      5   9999  3.79277E-02  5.71027E+01 -1.00000E+00  1.35862E-01
      21    -1     0     0   502   511  0.000000000E+00  0.000000000E+00  1.687801576E+03  1.687801576E+03  0.000000000E+00  0.00000E+00  9.000E+00
      21    -1     0     0   501   502  0.000000000E+00  0.000000000E+00 -8.043083754E+01  8.043083754E+01  0.000000000E+00  0.00000E+00  9.000E+00
      25     1     1     2     0     0  1.109414751E+02 -2.230091535E+02  3.801611200E+02  4.713688265E+02  1.250000000E+02  0.00000E+00  9.000E+00
      25     1     1     2     0     0 -1.668369942E+02  2.113298959E+02  6.245797486E+02  6.915343592E+02  1.250000000E+02  0.00000E+00  9.000E+00
      21     1     1     2   501   511  5.589551906E+01  1.167925761E+01  6.026298700E+02  6.053292280E+02  1.078959322E-05  0.00000E+00  9.000E+00
#rwgt            1           1   3.9889215913350096E-002           4       30688           0
</event>
<event>
      5   9999  3.79277E-02  1.25758E+02 -1.00000E+00  1.19511E-01
      21    -1     0     0   502   512  0.000000000E+00  0.000000000E+00  2.597178350E+02  2.597178350E+02  0.000000000E+00  0.00000E+00  9.000E+00
      21    -1     0     0   501   502  0.000000000E+00  0.000000000E+00 -3.466235655E+02  3.466235655E+02  0.000000000E+00  0.00000E+00  9.000E+00
      25     1     1     2     0     0 -1.839368483E+02 -9.388634812E+00 -1.285982834E+02  2.570669740E+02  1.250000000E+02  0.00000E+00  9.000E+00
      25     1     1     2     0     0  1.281858581E+02  1.221140265E+02 -1.992094086E-01  2.167221478E+02  1.250000000E+02  0.00000E+00  9.000E+00
      21     1     1     2   501   512  5.575099023E+01 -1.127253917E+02  4.189176234E+01  1.325522787E+02  0.000000000E+00  0.00000E+00  9.000E+00
#rwgt            1           1   3.1328933928741996E-002           4       30852           0
</event>
<event>
      5   9999  3.79277E-02  6.18900E+01 -1.00000E+00  1.33988E-01
      21    -1     0     0   502   501  0.000000000E+00  0.000000000E+00  8.113145184E+02  8.113145184E+02  0.000000000E+00  0.00000E+00  9.000E+00
      21    -1     0     0   511   502  0.000000000E+00  0.000000000E+00 -7.103294766E+01  7.103294766E+01  0.000000000E+00  0.00000E+00  9.000E+00
      25     1     1     2     0     0 -8.768404241E+01  7.276786284E+01  1.365364252E+02  2.173726031E+02  1.250000000E+02  0.00000E+00  9.000E+00
      25     1     1     2     0     0  1.329340644E+02 -3.054449598E+01  5.583980636E+02  5.882498016E+02  1.250000000E+02  0.00000E+00  9.000E+00
      21     1     1     2   511   501 -4.525002199E+01 -4.222336686E+01  4.534708195E+01  7.672506136E+01  1.348699152E-06  0.00000E+00  9.000E+00
#rwgt            2          11   2.6365587120609859E-003           4       30987           0
</event>
<event>
      5   9999  3.79277E-02  9.50030E+00 -1.00000E+00  1.98366E-01
      21    -1     0     0   502   501  0.000000000E+00  0.000000000E+00  1.740178076E+02  1.740178076E+02  0.000000000E+00  0.00000E+00  9.000E+00
      21    -1     0     0   501   512  0.000000000E+00  0.000000000E+00 -5.594936176E+02  5.594936176E+02  0.000000000E+00  0.00000E+00  9.000E+00
      25     1     1     2     0     0 -1.529401378E+02  1.753683857E+02 -3.172376566E+02  4.128068401E+02  1.250000000E+02  0.00000E+00  9.000E+00
      25     1     1     2     0     0  1.474033316E+02 -1.830884554E+02 -1.502022988E+01  2.666453299E+02  1.250000000E+02  0.00000E+00  9.000E+00
      21     1     1     2   502   512  5.536806181E+00  7.720069626E+00 -5.321792345E+01  5.405925521E+01  0.000000000E+00  0.00000E+00  9.000E+00
#rwgt            1           1   2.6123351949498629E-002           4       31022           0
</event>
<event>
      5   9999  3.79277E-02  6.18932E+01 -1.00000E+00  1.33986E-01
      21    -1     0     0   502   511  0.000000000E+00  0.000000000E+00  1.229033502E+02  1.229033502E+02  0.000000000E+00  0.00000E+00  9.000E+00
      21    -1     0     0   501   502  0.000000000E+00  0.000000000E+00 -6.424749390E+02  6.424749390E+02  0.000000000E+00  0.00000E+00  9.000E+00
      25     1     1     2     0     0  1.645065077E+02  1.268050143E+01 -3.620777923E+02  4.170713534E+02  1.250000000E+02  0.00000E+00  9.000E+00
      25     1     1     2     0     0 -1.393928779E+02  4.388873493E+01 -1.966637293E+02  2.750603895E+02  1.250000000E+02  0.00000E+00  9.000E+00
      21     1     1     2   501   511 -2.511362976E+01 -5.656923636E+01  3.916993282E+01  7.324654626E+01  1.066240300E-06  0.00000E+00  9.000E+00
#rwgt            1           1   4.3800031358213323E-002           4       31396           0
</event>
<event>
      5   9999  3.79277E-02  1.05603E+02 -1.00000E+00  1.22772E-01
      21    -1     0     0   502   512  0.000000000E+00  0.000000000E+00  3.470219232E+02  3.470219232E+02  0.000000000E+00  0.00000E+00  9.000E+00
      21    -1     0     0   501   502  0.000000000E+00  0.000000000E+00 -3.100535145E+02  3.100535145E+02  0.000000000E+00  0.00000E+00  9.000E+00
      25     1     1     2     0     0 -9.959810450E+00  1.210504801E+02 -4.897635252E+01  1.810417070E+02  1.250000000E+02  0.00000E+00  9.000E+00
      25     1     1     2     0     0  1.656550267E+01 -2.264465969E+02 -8.699866147E+01  2.733975937E+02  1.250000000E+02  0.00000E+00  9.000E+00
      21     1     1     2   501   512 -6.605692220E+00  1.053961168E+02  1.729434226E+02  2.026361370E+02  0.000000000E+00  0.00000E+00  9.000E+00
#rwgt            1           1   3.7097197994626047E-002           4       31501           0
</event>
<event>
      5   9999  3.79277E-02  2.82828E+01 -1.00000E+00  1.54839E-01
      21    -1     0     0   502   501  0.000000000E+00  0.000000000E+00  1.338257415E+03  1.338257415E+03  0.000000000E+00  0.00000E+00  9.000E+00
      21    -1     0     0   511   502  0.000000000E+00  0.000000000E+00 -3.856595289E+01  3.856595289E+01  0.000000000E+00  0.00000E+00  9.000E+00
      25     1     1     2     0     0 -7.286487629E+00 -6.080229899E+01  1.744937922E+02  2.232108778E+02  1.250000000E+02  0.00000E+00  9.000E+00
      25     1     1     2     0     0  2.768261911E+01  4.120851298E+01  1.115699997E+03  1.123777537E+03  1.250000000E+02  0.00000E+00  9.000E+00
      21     1     1     2   511   501 -2.039613148E+01  1.959378601E+01  9.497672545E+00  2.983495288E+01  7.817075878E-07  0.00000E+00  9.000E+00
#rwgt            1           1   5.5468248528464638E-002           4       31585           0
</event>
<event>
      5   9999  3.79277E-02  9.42350E+01 -1.00000E+00  1.24999E-01
      21    -1     0     0   512   501  0.000000000E+00  0.000000000E+00  1.612868529E+03  1.612868529E+03  0.000000000E+00  0.00000E+00  9.000E+00
      21    -1     0     0   501   502  0.000000000E+00  0.000000000E+00 -3.687943143E+02  3.687943143E+02  0.000000000E+00  0.00000E+00  9.000E+00
      25     1     1     2     0     0  9.902359973E+01  1.141712969E+02  2.142076454E+01  1.972932019E+02  1.250000000E+02  0.00000E+00  9.000E+00
      25     1     1     2     0     0 -7.452786952E+01 -2.051669110E+02 -2.226933110E+02  3.359541270E+02  1.250000000E+02  0.00000E+00  9.000E+00
      21     1     1     2   512   502 -2.449573021E+01  9.099561408E+01  1.445346762E+03  1.448415515E+03  1.525878906E-05  0.00000E+00  9.000E+00
#rwgt            1           1   3.2308273450841862E-002           4       31728           0
</event>
<event>
      5   9999  3.79277E-02  5.80393E+01 -1.00000E+00  1.35479E-01
      21    -1     0     0   502   501  0.000000000E+00  0.000000000E+00  1.606442230E+02  1.606442230E+02  0.000000000E+00  0.00000E+00  9.000E+00
      21    -1     0     0   511   502  0.000000000E+00  0.000000000E+00 -5.645344790E+02  5.645344790E+02  0.000000000E+00  0.00000E+00  9.000E+00
      25     1     1     2     0     0 -2.279797544E+02 -5.170452464E+01 -2.349980581E+02  3.542558589E+02  1.250000000E+02  0.00000E+00  9.000E+00
      25     1     1     2     0     0  2.114064843E+02  1.073272839E+02 -1.147655648E+02  2.915612840E+02  1.250000000E+02  0.00000E+00  9.000E+00
      21     1     1     2   511   501  1.657327011E+01 -5.562275925E+01 -5.412663318E+01  7.936155901E+01  1.907348633E-06  0.00000E+00  9.000E+00
#rwgt            1           1   4.4973645906815116E-002           4       31796           0
</event>
<event>
      5   9999  3.79277E-02  9.95087E+00 -1.00000E+00  1.96005E-01
      21    -1     0     0   502   501  0.000000000E+00  0.000000000E+00  1.294638358E+03  1.294638358E+03  0.000000000E+00  0.00000E+00  9.000E+00
      21    -1     0     0   501   512  0.000000000E+00  0.000000000E+00 -9.520817421E+01  9.520817421E+01  0.000000000E+00  0.00000E+00  9.000E+00
      25     1     1     2     0     0 -2.241769027E+02  8.392046714E+01  8.414409681E+02  8.837113960E+02  1.250000000E+02  0.00000E+00  9.000E+00
      25     1     1     2     0     0  2.194596274E+02 -7.515877694E+01  3.910849086E+02  4.715758428E+02  1.250000000E+02  0.00000E+00  9.000E+00
      21     1     1     2   502   512  4.717275285E+00 -8.761690203E+00 -3.309569272E+01  3.455929365E+01  9.536743164E-07  0.00000E+00  9.000E+00
#rwgt            1           1   3.2874321650028029E-002           4       31884           0
</event>
<event>
      5   9999  3.79277E-02  1.51806E+01 -1.00000E+00  1.76895E-01
      21    -1     0     0   502   501  0.000000000E+00  0.000000000E+00  4.165208164E+02  4.165208164E+02  0.000000000E+00  0.00000E+00  9.000E+00
       2    -1     0     0   501     0  0.000000000E+00  0.000000000E+00 -1.189142121E+03  1.189142121E+03  0.000000000E+00  0.00000E+00  9.000E+00
      25     1     1     2     0     0 -9.450941585E+01  9.797191544E+01  1.473401561E+02  2.363570340E+02  1.250000000E+02  0.00000E+00  9.000E+00
      25     1     1     2     0     0  8.491198553E+01 -1.097336576E+02  1.858028952E+02  2.634373488E+02  1.250000000E+02  0.00000E+00  9.000E+00
       2     1     1     2   502     0  9.597430320E+00  1.176174217E+01 -1.105764356E+03  1.105868555E+03  2.642899792E-05  0.00000E+00  9.000E+00
#rwgt            1           1   3.1617126640631051E-002           4       32152           0
</event>
<event>
      5   9999  3.79277E-02  1.00095E+01 -1.00000E+00  1.95710E-01
      21    -1     0     0   502   501  0.000000000E+00  0.000000000E+00  2.079752096E+02  2.079752096E+02  0.000000000E+00  0.00000E+00  9.000E+00
      21    -1     0     0   501   511  0.000000000E+00  0.000000000E+00 -2.024874943E+02  2.024874943E+02  0.000000000E+00  0.00000E+00  9.000E+00
      25     1     1     2     0     0  1.307232086E+02  5.095017828E+01 -4.797753035E+01  1.939363848E+02  1.250000000E+02  0.00000E+00  9.000E+00
      25     1     1     2     0     0 -1.306154669E+02 -4.094128957E+01  6.921131471E+01  1.978681265E+02  1.250000000E+02  0.00000E+00  9.000E+00
      21     1     1     2   502   511 -1.077416693E-01 -1.000888871E+01 -1.574606914E+01  1.865819270E+01  3.371747881E-07  0.00000E+00  9.000E+00
#rwgt            1           1   3.3486491886633989E-002           4       32407           0
</event>
<event>
      5   9999  3.79277E-02  1.07940E+02 -1.00000E+00  1.22354E-01
      21    -1     0     0   502   512  0.000000000E+00  0.000000000E+00  7.768054924E+01  7.768054924E+01  0.000000000E+00  0.00000E+00  9.000E+00
      21    -1     0     0   501   502  0.000000000E+00  0.000000000E+00 -7.356856276E+02  7.356856276E+02  0.000000000E+00  0.00000E+00  9.000E+00
      25     1     1     2     0     0 -1.114270865E+02 -9.772841717E+00 -3.400106441E+02  3.791355195E+02  1.250000000E+02  0.00000E+00  9.000E+00
      25     1     1     2     0     0  7.837917484E+01  1.125288065E+02 -1.749137987E+02  2.550016947E+02  1.250000000E+02  0.00000E+00  9.000E+00
      21     1     1     2   501   512  3.304791162E+01 -1.027559648E+02 -1.430806355E+02  1.792289626E+02  0.000000000E+00  0.00000E+00  9.000E+00
#rwgt            2          11   2.6790442556214595E-003           4       32744           0
</event>
<event>
      5   9999  3.79277E-02  1.96636E+01 -1.00000E+00  1.66979E-01
      21    -1     0     0   511   501  0.000000000E+00  0.000000000E+00  5.858554230E+01  5.858554230E+01  0.000000000E+00  0.00000E+00  9.000E+00
      21    -1     0     0   501   502  0.000000000E+00  0.000000000E+00 -1.309184466E+03  1.309184466E+03  0.000000000E+00  0.00000E+00  9.000E+00
      25     1     1     2     0     0  1.322629059E+02 -1.711152344E+02 -4.550647075E+02  5.191173160E+02  1.250000000E+02  0.00000E+00  9.000E+00
      25     1     1     2     0     0 -1.333735866E+02  1.907474559E+02 -7.801987464E+02  8.237160854E+02  1.250000000E+02  0.00000E+00  9.000E+00
      21     1     1     2   511   502  1.110680683E+00 -1.963222150E+01 -1.533546991E+01  2.493660702E+01  3.371747881E-07  0.00000E+00  9.000E+00
#rwgt            1           1   9.2487423033808004E-003           4       32824           0
</event>
<event>
      5   9999  3.79277E-02  2.11375E+01 -1.00000E+00  1.64411E-01
      21    -1     0     0   502   512  0.000000000E+00  0.000000000E+00  2.944826676E+02  2.944826676E+02  0.000000000E+00  0.00000E+00  9.000E+00
      21    -1     0     0   501   502  0.000000000E+00  0.000000000E+00 -6.865574988E+02  6.865574988E+02  0.000000000E+00  0.00000E+00  9.000E+00
      25     1     1     2     0     0 -1.955996025E+02  1.310241807E+02  1.744621490E+02  3.185727262E+02  1.250000000E+02  0.00000E+00  9.000E+00
      25     1     1     2     0     0  2.133534630E+02 -1.195526578E+02 -5.768857846E+02  6.389325056E+02  1.250000000E+02  0.00000E+00  9.000E+00
      21     1     1     2   501   512 -1.775386047E+01 -1.147152289E+01  1.034880444E+01  2.353493472E+01  4.129530925E-07  0.00000E+00  9.000E+00
#rwgt            1           1   4.1401812708237395E-002           4       33026           0
</event>
<event>
      5   9999  3.79277E-02  1.29811E+02 -1.00000E+00  1.18937E-01
      21    -1     0     0   502   511  0.000000000E+00  0.000000000E+00  1.689911185E+02  1.689911185E+02  0.000000000E+00  0.00000E+00  9.000E+00
      21    -1     0     0   501   502  0.000000000E+00  0.000000000E+00 -3.032199334E+03  3.032199334E+03  0.000000000E+00  0.00000E+00  9.000E+00
      25     1     1     2     0     0 -5.823409821E+01 -1.724393083E+02 -2.613420126E+03  2.622730692E+03  1.250000000E+02  0.00000E+00  9.000E+00
      25     1     1     2     0     0  3.219641857E+01  4.526626438E+01 -3.743465771E+02  3.985548944E+02  1.250000000E+02  0.00000E+00  9.000E+00
      21     1     1     2   501   511  2.603767964E+01  1.271730439E+02  1.245584881E+02  1.799048661E+02  7.262967211E-06  0.00000E+00  9.000E+00
#rwgt            1           1   3.7596904026916386E-002           4       33277           0
</event>
<event>
      5   9999  3.79277E-02  2.73621E+01 -1.00000E+00  1.55869E-01
      21    -1     0     0   512   501  0.000000000E+00  0.000000000E+00  6.401979009E+02  6.401979009E+02  0.000000000E+00  0.00000E+00  9.000E+00
      21    -1     0     0   501   502  0.000000000E+00  0.000000000E+00 -1.191771892E+02  1.191771892E+02  0.000000000E+00  0.00000E+00  9.000E+00
      25     1     1     2     0     0 -1.541709343E+02 -1.284961371E+02  2.720671943E+02  3.604517894E+02  1.250000000E+02  0.00000E+00  9.000E+00
      25     1     1     2     0     0  1.461927715E+02  1.546692649E+02  1.341824089E+02  2.809356275E+02  1.250000000E+02  0.00000E+00  9.000E+00
      21     1     1     2   512   502  7.978162863E+00 -2.617312778E+01  1.147711084E+02  1.179876732E+02  1.348699152E-06  0.00000E+00  9.000E+00
#rwgt            1           1   2.4016542695877104E-002           4       33344           0
</event>
<event>
      5   9999  3.79277E-02  1.15555E+02 -1.00000E+00  1.21068E-01
      21    -1     0     0   502   501  0.000000000E+00  0.000000000E+00  1.428907542E+03  1.428907542E+03  0.000000000E+00  0.00000E+00  9.000E+00
      21    -1     0     0   511   502  0.000000000E+00  0.000000000E+00 -2.246244153E+02  2.246244153E+02  0.000000000E+00  0.00000E+00  9.000E+00
      25     1     1     2     0     0  3.359427098E+01  2.209923933E+02  1.198440854E+03  1.225500589E+03  1.250000000E+02  0.00000E+00  9.000E+00
      25     1     1     2     0     0  2.987690588E+01 -1.244295390E+02  1.568300090E+02  2.378991202E+02  1.250000000E+02  0.00000E+00  9.000E+00
      21     1     1     2   511   501 -6.347117686E+01 -9.656285438E+01 -1.509877365E+02  1.901322480E+02  5.394796609E-06  0.00000E+00  9.000E+00
#rwgt            1           1   4.5616881837836742E-002           4       33499           0
</event>
<event>
      5   9999  3.79277E-02  1.15592E+02 -1.00000E+00  1.21062E-01
       2    -1     0     0   502     0  0.000000000E+00  0.000000000E+00  6.245927486E+02  6.245927486E+02  0.000000000E+00  0.00000E+00  9.000E+00
      21    -1     0     0   501   502  0.000000000E+00  0.000000000E+00 -3.289891922E+02  3.289891922E+02  0.000000000E+00  0.00000E+00  9.000E+00
      25     1     1     2     0     0 -9.458656479E+01 -9.765437684E+01  3.871664579E+02  4.289590443E+02  1.250000000E+02  0.00000E+00  9.000E+00
      25     1     1     2     0     0  1.890862257E+02  3.108578617E+01 -2.432322355E+02  3.339264099E+02  1.250000000E+02  0.00000E+00  9.000E+00
       2     1     1     2   501     0 -9.449966092E+01  6.656859067E+01  1.516693339E+02  1.906964867E+02  1.907348633E-06  0.00000E+00  9.000E+00
#rwgt            1           1   3.4130628299154885E-002           4       33579           0
</event>
<event>
      5   9999  3.79277E-02  5.14610E+01 -1.00000E+00  1.38366E-01
      21    -1     0     0   511   501  0.000000000E+00  0.000000000E+00  4.199111816E+02  4.199111816E+02  0.000000000E+00  0.00000E+00  9.000E+00
      21    -1     0     0   501   502  0.000000000E+00  0.000000000E+00 -6.636772709E+02  6.636772709E+02  0.000000000E+00  0.00000E+00  9.000E+00
      25     1     1     2     0     0  1.440000151E+02  3.981127376E+01  4.592777769E+00  1.948513163E+02  1.250000000E+02  0.00000E+00  9.000E+00
      25     1     1     2     0     0 -9.265546884E+01 -4.327109874E+01 -5.548908705E+02  5.779154800E+02  1.250000000E+02  0.00000E+00  9.000E+00
      21     1     1     2   511   502 -5.134454625E+01  3.459824974E+00  3.065320034E+02  3.108216562E+02  7.629394531E-06  0.00000E+00  9.000E+00
#rwgt            2          11   1.9708807291734590E-003           4       33909           0
</event>
<event>
      5   9999  3.79277E-02  3.78953E+01 -1.00000E+00  1.46311E-01
      21    -1     0     0   502   501  0.000000000E+00  0.000000000E+00  3.678181293E+02  3.678181293E+02  0.000000000E+00  0.00000E+00  9.000E+00
      21    -1     0     0   501   512  0.000000000E+00  0.000000000E+00 -1.562951516E+02  1.562951516E+02  0.000000000E+00  0.00000E+00  9.000E+00
      25     1     1     2     0     0 -1.479219835E+02  7.061038135E+01  7.206117601E+01  2.183679286E+02  1.250000000E+02  0.00000E+00  9.000E+00
      25     1     1     2     0     0  1.846498593E+02 -6.127686253E+01  1.345241434E+02  2.675297546E+02  1.250000000E+02  0.00000E+00  9.000E+00
      21     1     1     2   502   512 -3.672787586E+01 -9.333518823E+00  4.937658274E+00  3.821559770E+01  1.192092896E-07  0.00000E+00  9.000E+00
#rwgt            1           1   8.0276420641286025E-002           4       34079           0
</event>
<event>
      5   9999  3.79277E-02  8.27782E+01 -1.00000E+00  1.27636E-01
      21    -1     0     0   511   501  0.000000000E+00  0.000000000E+00  9.042126199E+01  9.042126199E+01  0.000000000E+00  0.00000E+00  9.000E+00
      21    -1     0     0   501   502  0.000000000E+00  0.000000000E+00 -6.961682554E+02  6.961682554E+02  0.000000000E+00  0.00000E+00  9.000E+00
      25     1     1     2     0     0  2.898212839E+01 -1.014593985E+02 -5.154230362E+02  5.407586148E+02  1.250000000E+02  0.00000E+00  9.000E+00
      25     1     1     2     0     0  2.778478521E+01  4.121200788E+01 -1.763967737E+01  1.356708594E+02  1.250000000E+02  0.00000E+00  9.000E+00
      21     1     1     2   511   502 -5.676691360E+01  6.024739063E+01 -7.268427987E+01  1.101600431E+02  0.000000000E+00  0.00000E+00  9.000E+00
#rwgt            1           1   4.0168963004439999E-002           4       34201           0
</event>
<event>
      5   9999  3.79277E-02  2.80000E+01 -1.00000E+00  1.55151E-01
      21    -1     0     0   502   501  0.000000000E+00  0.000000000E+00  1.139563991E+02  1.139563991E+02  0.000000000E+00  0.00000E+00  9.000E+00
      21    -1     0     0   501   512  0.000000000E+00  0.000000000E+00 -8.360835926E+02  8.360835926E+02  0.000000000E+00  0.00000E+00  9.000E+00
      25     1     1     2     0     0 -3.442434071E+01 -8.974684655E+01 -4.281228675E+01  1.633934625E+02  1.250000000E+02  0.00000E+00  9.000E+00
      25     1     1     2     0     0  4.370700246E+01  1.161633220E+02 -9.212031564E+01  1.987847378E+02  1.250000000E+02  0.00000E+00  9.000E+00
      21     1     1     2   502   512 -9.282661753E+00 -2.641647540E+01 -5.871945911E+02  5.878617914E+02  7.629394531E-06  0.00000E+00  9.000E+00
#rwgt            1           1   4.2995925212134037E-002           4       34279           0
</event>
<event>
      5   9999  3.79277E-02  1.66246E+02 -1.00000E+00  1.14651E-01
      21    -1     0     0   502   511  0.000000000E+00  0.000000000E+00  5.714103345E+02  5.714103345E+02  0.000000000E+00  0.00000E+00  9.000E+00
      21    -1     0     0   501   502  0.000000000E+00  0.000000000E+00 -3.850716221E+02  3.850716221E+02  0.000000000E+00  0.00000E+00  9.000E+00
      25     1     1     2     0     0 -2.717452583E+02  1.826634479E+02 -2.853944814E+01  3.516403286E+02  1.250000000E+02  0.00000E+00  9.000E+00
      25     1     1     2     0     0  2.151490454E+02 -2.634806306E+01 -8.307499553E+01  2.636470881E+02  1.250000000E+02  0.00000E+00  9.000E+00
      21     1     1     2   501   511  5.659621287E+01 -1.563153849E+02  2.979531560E+02  3.411945399E+02  0.000000000E+00  0.00000E+00  9.000E+00
#rwgt            2          11   1.7790908213667273E-003           4       34377           0
</event>
<event>
      5   9999  3.79277E-02  4.65307E+01 -1.00000E+00  1.40881E-01
      21    -1     0     0   502   501  0.000000000E+00  0.000000000E+00  9.853585873E+02  9.853585873E+02  0.000000000E+00  0.00000E+00  9.000E+00
      21    -1     0     0   501   512  0.000000000E+00  0.000000000E+00 -5.692720164E+01  5.692720164E+01  0.000000000E+00  0.00000E+00  9.000E+00
      25     1     1     2     0     0  1.094925717E+02 -5.224480048E+00  4.806945600E+02  5.086336387E+02  1.250000000E+02  0.00000E+00  9.000E+00
      25     1     1     2     0     0 -1.304280464E+02 -3.633045245E+01  4.508126043E+02  4.870198982E+02  1.250000000E+02  0.00000E+00  9.000E+00
      21     1     1     2   502   512  2.093547475E+01  4.155493250E+01 -3.075778559E+00  4.663225206E+01  1.075364265E-06  0.00000E+00  9.000E+00
#rwgt            1           1   4.8606562591569445E-002           4       34412           0
</event>
<event>
      5   9999  3.79277E-02  8.86519E+01 -1.00000E+00  1.26227E-01
      21    -1     0     0   502   501  0.000000000E+00  0.000000000E+00  1.633635094E+02  1.633635094E+02  0.000000000E+00  0.00000E+00  9.000E+00
       2    -1     0     0   501     0  0.000000000E+00  0.000000000E+00 -9.171869162E+02  9.171869162E+02  0.000000000E+00  0.00000E+00  9.000E+00
      25     1     1     2     0     0 -1.376333960E+02  2.071451680E+02 -1.352249588E+02  3.094557509E+02  1.250000000E+02  0.00000E+00  9.000E+00
      25     1     1     2     0     0  1.370804685E+02 -1.184950301E+02 -9.450896691E+01  2.395601632E+02  1.250000000E+02  0.00000E+00  9.000E+00
       2     1     1     2   502     0  5.529275569E-01 -8.865013793E+01 -5.240894811E+02  5.315345115E+02  0.000000000E+00  0.00000E+00  9.000E+00
#rwgt            1           1   3.7108801156244167E-002           4       34465           0
</event>
<event>
      5   9999  3.79277E-02  5.48189E+01 -1.00000E+00  1.36833E-01
      21    -1     0     0   511   501  0.000000000E+00  0.000000000E+00  2.426289701E+02  2.426289701E+02  0.000000000E+00  0.00000E+00  9.000E+00
      21    -1     0     0   501   502  0.000000000E+00  0.000000000E+00 -2.450122995E+02  2.450122995E+02  0.000000000E+00  0.00000E+00  9.000E+00
      25     1     1     2     0     0  1.261296801E+02  7.186638299E+01 -6.293402520E+01  2.016411782E+02  1.250000000E+02  0.00000E+00  9.000E+00
      25     1     1     2     0     0 -1.367054266E+02 -1.256554794E+02  5.746188406E+01  2.310942260E+02  1.250000000E+02  0.00000E+00  9.000E+00
      21     1     1     2   511   502  1.057574651E+01  5.378909641E+01  3.088811761E+00  5.490586549E+01  3.625608999E-07  0.00000E+00  9.000E+00
#rwgt            1           1   3.8532879994593677E-002           4       34590           0
</event>
<event>
      5   9999  3.79277E-02  5.16150E+01 -1.00000E+00  1.38292E-01
      21    -1     0     0   502   501  0.000000000E+00  0.000000000E+00  1.450704284E+02  1.450704284E+02  0.000000000E+00  0.00000E+00  9.000E+00
      21    -1     0     0   512   502  0.000000000E+00  0.000000000E+00 -8.543309627E+02  8.543309627E+02  0.000000000E+00  0.00000E+00  9.000E+00
      25     1     1     2     0     0  1.983175477E+02 -4.362072341E+01 -7.713777190E+01  2.506149498E+02  1.250000000E+02  0.00000E+00  9.000E+00
      25     1     1     2     0     0 -2.496792294E+02  3.851339483E+01 -2.960411016E+02  4.087643980E+02  1.250000000E+02  0.00000E+00  9.000E+00
      21     1     1     2   512   501  5.136168175E+01  5.107328585E+00 -3.360816608E+02  3.400220432E+02  0.000000000E+00  0.00000E+00  9.000E+00
#rwgt            1           1   3.3910567915356300E-002           4       34914           0
</event>
<event>
      5   9999  3.79277E-02  1.70909E+01 -1.00000E+00  1.72206E-01
      21    -1     0     0   511   501  0.000000000E+00  0.000000000E+00  7.340820600E+02  7.340820600E+02  0.000000000E+00  0.00000E+00  9.000E+00
      21    -1     0     0   501   502  0.000000000E+00  0.000000000E+00 -8.051790546E+02  8.051790546E+02  0.000000000E+00  0.00000E+00  9.000E+00
      25     1     1     2     0     0 -3.063551981E+00  1.903273627E+02 -5.875506005E+02  6.301385550E+02  1.250000000E+02  0.00000E+00  9.000E+00
      25     1     1     2     0     0 -1.362576075E+01 -1.940107349E+02 -1.281209876E+02  2.643214219E+02  1.250000000E+02  0.00000E+00  9.000E+00
      21     1     1     2   511   502  1.668931274E+01  3.683372145E+00  6.445745936E+02  6.448011377E+02  1.321449896E-05  0.00000E+00  9.000E+00
#rwgt            1           1   5.0049802448909185E-002           4       35002           0
</event>
<event>
      5   9999  3.79277E-02  6.34042E+01 -1.00000E+00  1.33435E-01
      21    -1     0     0   502   512  0.000000000E+00  0.000000000E+00  1.915608441E+02  1.915608441E+02  0.000000000E+00  0.00000E+00  9.000E+00
      21    -1     0     0   501   502  0.000000000E+00  0.000000000E+00 -9.349039020E+02  9.349039020E+02  0.000000000E+00  0.00000E+00  9.000E+00
      25     1     1     2     0     0  4.687372091E+01 -1.330587304E+02 -8.431242578E+02  8.639359268E+02  1.250000000E+02  0.00000E+00  9.000E+00
      25     1     1     2     0     0 -8.826999754E+01  8.503334265E+01  5.043169991E+01  1.821829251E+02  1.250000000E+02  0.00000E+00  9.000E+00
      21     1     1     2   501   512  4.139627663E+01  4.802538771E+01  4.934949999E+01  8.034589431E+01  1.168007728E-06  0.00000E+00  9.000E+00
#rwgt            1           1   6.1491317048978915E-002           4       35185           0
</event>
<event>
      5   9999  3.79277E-02  9.26931E+00 -1.00000E+00  1.99645E-01
      21    -1     0     0   502   501  0.000000000E+00  0.000000000E+00  7.731490482E+02  7.731490482E+02  0.000000000E+00  0.00000E+00  9.000E+00
      -3    -1     0     0     0   502  0.000000000E+00  0.000000000E+00 -6.268687585E+01  6.268687585E+01  0.000000000E+00  0.00000E+00  9.000E+00
      25     1     1     2     0     0  6.565539062E+01 -2.506594455E+01  9.019459284E+01  1.694077816E+02  1.250000000E+02  0.00000E+00  9.000E+00
      25     1     1     2     0     0 -6.631213797E+01  1.581992641E+01  6.340381962E+02  6.498284420E+02  1.250000000E+02  0.00000E+00  9.000E+00
      -3     1     1     2     0   501  6.567473463E-01  9.246018145E+00 -1.377061676E+01  1.659970043E+01  8.760057960E-07  0.00000E+00  9.000E+00
#rwgt            1           1   3.9872760282481490E-002           4       35453           0
</event>
<event>
      5   9999  3.79277E-02  1.23121E+02 -1.00000E+00  1.19897E-01
      21    -1     0     0   502   511  0.000000000E+00  0.000000000E+00  4.184181785E+01  4.184181785E+01  0.000000000E+00  0.00000E+00  9.000E+00
      21    -1     0     0   501   502  0.000000000E+00  0.000000000E+00 -1.576426701E+03  1.576426701E+03  0.000000000E+00  0.00000E+00  9.000E+00
      25     1     1     2     0     0  3.253242633E+01  6.888641599E+01 -2.075550752E+02  2.539838702E+02  1.250000000E+02  0.00000E+00  9.000E+00
      25     1     1     2     0     0 -9.303490911E+00  5.202380041E+01 -1.077709131E+03  1.086220513E+03  1.250000000E+02  0.00000E+00  9.000E+00
      21     1     1     2   501   511 -2.322893542E+01 -1.209102164E+02 -2.493206770E+02  2.780641362E+02  6.031565972E-06  0.00000E+00  9.000E+00
#rwgt            1           1   5.3127089397771957E-002           4       35738           0
</event>
<event>
      5   9999  3.79277E-02  1.85311E+02 -1.00000E+00  1.12868E-01
      21    -1     0     0   502   512  0.000000000E+00  0.000000000E+00  2.839835401E+02  2.839835401E+02  0.000000000E+00  0.00000E+00  9.000E+00
      21    -1     0     0   501   502  0.000000000E+00  0.000000000E+00 -1.747484836E+03  1.747484836E+03  0.000000000E+00  0.00000E+00  9.000E+00
      25     1     1     2     0     0 -2.250459061E+02 -5.170376071E+01 -1.556211413E+03  1.578207180E+03  1.250000000E+02  0.00000E+00  9.000E+00
      25     1     1     2     0     0  4.618308848E+01  1.001611827E+02 -9.301620827E+01  1.908982849E+02  1.250000000E+02  0.00000E+00  9.000E+00
      21     1     1     2   501   512  1.788628177E+02 -4.845742198E+01  1.857263258E+02  2.623629116E+02  6.031565972E-06  0.00000E+00  9.000E+00
#rwgt            1           1   3.5979729926160761E-002           4       35798           0
</event>
<event>
      5   9999  3.79277E-02  4.33306E+01 -1.00000E+00  1.42718E-01
      21    -1     0     0   502   501  0.000000000E+00  0.000000000E+00  4.304005133E+01  4.304005133E+01  0.000000000E+00  0.00000E+00  9.000E+00
      21    -1     0     0   511   502  0.000000000E+00  0.000000000E+00 -1.403274294E+03  1.403274294E+03  0.000000000E+00  0.00000E+00  9.000E+00
      25     1     1     2     0     0 -1.681099726E+02 -4.970178856E+00 -3.222299750E+02  3.843732852E+02  1.250000000E+02  0.00000E+00  9.000E+00
      25     1     1     2     0     0  1.276017534E+02  2.035268461E+01 -7.918739731E+02  8.120257561E+02  1.250000000E+02  0.00000E+00  9.000E+00
      21     1     1     2   511   501  4.050821925E+01 -1.538250575E+01 -2.461302950E+02  2.499153045E+02  3.814697266E-06  0.00000E+00  9.000E+00
#rwgt            1           1   3.8994233885654137E-002           4       35889           0
</event>
<event>
      5   9999  3.79277E-02  6.53460E+01 -1.00000E+00  1.32752E-01
      21    -1     0     0   512   501  0.000000000E+00  0.000000000E+00  1.675039544E+03  1.675039544E+03  0.000000000E+00  0.00000E+00  9.000E+00
      21    -1     0     0   501   502  0.000000000E+00  0.000000000E+00 -7.688863898E+01  7.688863898E+01  0.000000000E+00  0.00000E+00  9.000E+00
      25     1     1     2     0     0  2.359633962E+01 -1.351021207E+02  1.592184529E+02  2.445094804E+02  1.250000000E+02  0.00000E+00  9.000E+00
      25     1     1     2     0     0 -8.853000434E+01  1.424310496E+02  2.950314779E+02  3.616527872E+02  1.250000000E+02  0.00000E+00  9.000E+00
      21     1     1     2   512   502  6.493366472E+01 -7.328928864E+00  1.143900974E+03  1.145765915E+03  1.525878906E-05  0.00000E+00  9.000E+00
#rwgt            1           1   4.5006804035598674E-002           4       36056           0
</event>
<event>
      5   9999  3.79277E-02  2.79226E+01 -1.00000E+00  1.55236E-01
      21    -1     0     0   511   501  0.000000000E+00  0.000000000E+00  4.146859509E+02  4.146859509E+02  0.000000000E+00  0.00000E+00  9.000E+00
      21    -1     0     0   501   502  0.000000000E+00  0.000000000E+00 -2.718987895E+02  2.718987895E+02  0.000000000E+00  0.00000E+00  9.000E+00
      25     1     1     2     0     0  2.849278891E+01 -1.460125496E+02  1.939480749E+01  1.952758619E+02  1.250000000E+02  0.00000E+00  9.000E+00
      25     1     1     2     0     0 -1.422090929E+00  1.528572741E+02 -1.299786428E+02  2.364039259E+02  1.250000000E+02  0.00000E+00  9.000E+00
      21     1     1     2   511   502 -2.707069798E+01 -6.844724459E+00  2.533709967E+02  2.549049527E+02  3.814697266E-06  0.00000E+00  9.000E+00
#rwgt            2          11   9.4482120980852893E-004           4       36291           0
</event>
<event>
      5   9999  3.79277E-02  1.99394E+01 -1.00000E+00  1.66478E-01
      21    -1     0     0   512   501  0.000000000E+00  0.000000000E+00  1.102003019E+02  1.102003019E+02  0.000000000E+00  0.00000E+00  9.000E+00
      21    -1     0     0   501   502  0.000000000E+00  0.000000000E+00 -5.000228131E+02  5.000228131E+02  0.000000000E+00  0.00000E+00  9.000E+00
      25     1     1     2     0     0  1.543735954E+01 -1.690290475E+02 -1.834231665E+02  2.794247466E+02  1.250000000E+02  0.00000E+00  9.000E+00
      25     1     1     2     0     0 -3.004916871E+01  1.825964648E+02 -2.141533008E+02  3.094043596E+02  1.250000000E+02  0.00000E+00  9.000E+00
      21     1     1     2   512   502  1.461180918E+01 -1.356741730E+01  7.753956084E+00  2.139400884E+01  3.371747881E-07  0.00000E+00  9.000E+00
#rwgt            1           1   3.6011440728173201E-002           4       36386           0
</event>
<event>
      5   9999  3.79277E-02  1.04244E+01 -1.00000E+00  1.93693E-01
      21    -1     0     0   502   501  0.000000000E+00  0.000000000E+00  1.179373657E+02  1.179373657E+02  0.000000000E+00  0.00000E+00  9.000E+00
      21    -1     0     0   501   511  0.000000000E+00  0.000000000E+00 -5.157521783E+02  5.157521783E+02  0.000000000E+00  0.00000E+00  9.000E+00
      25     1     1     2     0     0 -4.878398122E-01  1.129603008E+02 -5.682586611E+00  1.685750852E+02  1.250000000E+02  0.00000E+00  9.000E+00
      25     1     1     2     0     0 -9.828865246E+00 -1.144546921E+02 -1.617219461E+02  2.344684861E+02  1.250000000E+02  0.00000E+00  9.000E+00
      21     1     1     2   502   511  1.031670506E+01  1.494391256E+00 -2.304102799E+02  2.306459726E+02  4.672030912E-06  0.00000E+00  9.000E+00
#rwgt            1           1   3.2147538916837193E-002           4       36655           0
</event>
<event>
      5   9999  3.79277E-02  2.03492E+01 -1.00000E+00  1.65751E-01
      21    -1     0     0   502   501  0.000000000E+00  0.000000000E+00  5.350366756E+01  5.350366756E+01  0.000000000E+00  0.00000E+00  9.000E+00
      21    -1     0     0   512   502  0.000000000E+00  0.000000000E+00 -1.489468946E+03  1.489468946E+03  0.000000000E+00  0.00000E+00  9.000E+00
      25     1     1     2     0     0 -4.240343871E+00 -1.802049044E+02 -4.013575860E+02  4.573890028E+02  1.250000000E+02  0.00000E+00  9.000E+00
      25     1     1     2     0     0 -1.498715599E+01  1.735419446E+02 -4.285881914E+02  4.792225570E+02  1.250000000E+02  0.00000E+00  9.000E+00
      21     1     1     2   512   501  1.922749986E+01  6.662959796E+00 -6.060195011E+02  6.063610537E+02  0.000000000E+00  0.00000E+00  9.000E+00
#rwgt            1           1   3.3883822918405436E-002           4       36870           0
</event>
<event>
      5   9999  3.79277E-02  3.79799E+01 -1.00000E+00  1.46250E-01
      21    -1     0     0   511   501  0.000000000E+00  0.000000000E+00  2.828677617E+02  2.828677617E+02  0.000000000E+00  0.00000E+00  9.000E+00
      21    -1     0     0   501   502  0.000000000E+00  0.000000000E+00 -2.876626574E+02  2.876626574E+02  0.000000000E+00  0.00000E+00  9.000E+00
      25     1     1     2     0     0 -1.943624412E+02 -1.015942810E+02 -8.510577701E+01  2.663947254E+02  1.250000000E+02  0.00000E+00  9.000E+00
      25     1     1     2     0     0  1.866349721E+02  6.440879714E+01  2.222354649E+01  2.347338748E+02  1.250000000E+02  0.00000E+00  9.000E+00
      21     1     1     2   511   502  7.727469089E+00  3.718548382E+01  5.808733481E+01  6.940181878E+01  6.743495762E-07  0.00000E+00  9.000E+00
#rwgt            1           1   3.7029628368043362E-002           4       37001           0
</event>
<event>
      5   9999  3.79277E-02  1.29154E+01 -1.00000E+00  1.83733E-01
      21    -1     0     0   502   512  0.000000000E+00  0.000000000E+00  1.456620395E+02  1.456620395E+02  0.000000000E+00  0.00000E+00  9.000E+00
      21    -1     0     0   501   502  0.000000000E+00  0.000000000E+00 -6.784924340E+02  6.784924340E+02  0.000000000E+00  0.00000E+00  9.000E+00
      25     1     1     2     0     0  1.427673798E+02 -2.122098286E+02 -2.339070088E+02  3.684467734E+02  1.250000000E+02  0.00000E+00  9.000E+00
      25     1     1     2     0     0 -1.532660657E+02  2.197321274E+02 -3.170208687E+02  4.334742506E+02  1.250000000E+02  0.00000E+00  9.000E+00
      21     1     1     2   501   512  1.049868588E+01 -7.522298847E+00  1.809748304E+01  2.223344952E+01  6.307962682E-07  0.00000E+00  9.000E+00
#rwgt            1           1   4.0165699988635201E-002           4       37389           0
</event>
<event>
      5   9999  3.79277E-02  1.57072E+02 -1.00000E+00  1.15606E-01
      21    -1     0     0   511   501  0.000000000E+00  0.000000000E+00  7.496806714E+02  7.496806714E+02  0.000000000E+00  0.00000E+00  9.000E+00
      21    -1     0     0   501   502  0.000000000E+00  0.000000000E+00 -4.800003175E+02  4.800003175E+02  0.000000000E+00  0.00000E+00  9.000E+00
      25     1     1     2     0     0  9.367778908E+01  2.230681465E+02 -2.670300648E+02  3.813987174E+02  1.250000000E+02  0.00000E+00  9.000E+00
      25     1     1     2     0     0  2.542354824E+01 -1.206652869E+02 -9.340369171E+01  1.988861933E+02  1.250000000E+02  0.00000E+00  9.000E+00
      21     1     1     2   511   502 -1.191013373E+02 -1.024028595E+02  6.301141104E+02  6.493960782E+02  7.629394531E-06  0.00000E+00  9.000E+00
#rwgt            1           1   3.3371156099109754E-002           4       37585           0
</event>
<event>
      5   9999  3.79277E-02  1.13563E+02 -1.00000E+00  1.21394E-01
      21    -1     0     0   502   501  0.000000000E+00  0.000000000E+00  1.778819991E+02  1.778819991E+02  0.000000000E+00  0.00000E+00  9.000E+00
      21    -1     0     0   501   512  0.000000000E+00  0.000000000E+00 -1.010587076E+03  1.010587076E+03  0.000000000E+00  0.00000E+00  9.000E+00
      25     1     1     2     0     0 -2.127770194E+02 -1.667495065E+02 -2.178616093E+02  3.690096730E+02  1.250000000E+02  0.00000E+00  9.000E+00
      25     1     1     2     0     0  1.153079897E+02  2.250268458E+02 -1.112284431E+02  3.031992420E+02  1.250000000E+02  0.00000E+00  9.000E+00
      21     1     1     2   502   512  9.746902967E+01 -5.827733926E+01 -5.036150246E+02  5.162601602E+02  9.344061824E-06  0.00000E+00  9.000E+00
#rwgt            1           1   3.8143169324223181E-002           4       37743           0
</event>
<event>
      5   9999  3.79277E-02  5.95151E+01 -1.00000E+00  1.34892E-01
      21    -1     0     0   502   511  0.000000000E+00  0.000000000E+00  8.045489371E+02  8.045489371E+02  0.000000000E+00  0.00000E+00  9.000E+00
      21    -1     0     0   501   502  0.000000000E+00  0.000000000E+00 -4.906855361E+02  4.906855361E+02  0.000000000E+00  0.00000E+00  9.000E+00
      25     1     1     2     0     0  6.525351485E+01 -4.338913553E+02 -4.440485149E+01  4.583846858E+02  1.250000000E+02  0.00000E+00  9.000E+00
      25     1     1     2     0     0 -8.503800128E+00  4.518221906E+02 -4.839852566E+00  4.688966098E+02  1.250000000E+02  0.00000E+00  9.000E+00
      21     1     1     2   501   511 -5.674971472E+01 -1.793083533E+01  3.631081050E+02  3.679531776E+02  0.000000000E+00  0.00000E+00  9.000E+00
#rwgt            1           1  0.43485368361213600                4       37829           0
</event>
<event>
      5   9999  3.79277E-02  1.53497E+01 -1.00000E+00  1.76446E-01
      21    -1     0     0   502   512  0.000000000E+00  0.000000000E+00  9.988105822E+01  9.988105822E+01  0.000000000E+00  0.00000E+00  9.000E+00
      21    -1     0     0   501   502  0.000000000E+00  0.000000000E+00 -3.180532529E+02  3.180532529E+02  0.000000000E+00  0.00000E+00  9.000E+00
      25     1     1     2     0     0  9.725910659E+01  4.330042524E+01 -1.325822280E+02  2.110386406E+02  1.250000000E+02  0.00000E+00  9.000E+00
      25     1     1     2     0     0 -8.918489400E+01 -3.024588577E+01 -1.000954902E+02  1.857763873E+02  1.250000000E+02  0.00000E+00  9.000E+00
      21     1     1     2   501   512 -8.074212586E+00 -1.305453947E+01  1.450552355E+01  2.111928320E+01  3.371747881E-07  0.00000E+00  9.000E+00
#rwgt            1           1   3.9654418331459398E-002           4       37882           0
</event>
<event>
      5   9999  3.79277E-02  1.83574E+02 -1.00000E+00  1.13020E-01
      21    -1     0     0   502   501  0.000000000E+00  0.000000000E+00  8.048824578E+02  8.048824578E+02  0.000000000E+00  0.00000E+00  9.000E+00
       2    -1     0     0   501     0  0.000000000E+00  0.000000000E+00 -1.633688389E+03  1.633688389E+03  0.000000000E+00  0.00000E+00  9.000E+00
      25     1     1     2     0     0  1.254342724E+02 -1.258547664E+02  6.669118371E+02  7.014054301E+02  1.250000000E+02  0.00000E+00  9.000E+00
      25     1     1     2     0     0 -8.049384470E+01 -5.213308729E+01  6.152679958E+01  1.691380055E+02  1.250000000E+02  0.00000E+00  9.000E+00
       2     1     1     2   502     0 -4.494042768E+01  1.779878537E+02 -1.557244568E+03  1.568027411E+03  2.157918644E-05  0.00000E+00  9.000E+00
#rwgt            1           1   4.1810842854288294E-002           4       38090           0
</event>
<event>
      5   9999  3.79277E-02  6.16499E+01 -1.00000E+00  1.34077E-01
      21    -1     0     0   511   501  0.000000000E+00  0.000000000E+00  1.074125441E+02  1.074125441E+02  0.000000000E+00  0.00000E+00  9.000E+00
      21    -1     0     0   501   502  0.000000000E+00  0.000000000E+00 -9.147892588E+02  9.147892588E+02  0.000000000E+00  0.00000E+00  9.000E+00
      25     1     1     2     0     0 -4.083434318E+01  2.560325306E+02 -2.631081629E+02  3.899628260E+02  1.250000000E+02  0.00000E+00  9.000E+00
      25     1     1     2     0     0 -1.035480286E+01 -2.216758227E+02 -4.786841256E+02  5.422277053E+02  1.250000000E+02  0.00000E+00  9.000E+00
      21     1     1     2   511   502  5.118914604E+01 -3.435670791E+01 -6.558442613E+01  9.001127152E+01  0.000000000E+00  0.00000E+00  9.000E+00
#rwgt            1           1   4.0560708575158817E-002           4       38219           0
</event>
<event>
      5   9999  3.79277E-02  3.70409E+01 -1.00000E+00  1.46941E-01
      21    -1     0     0   502   501  0.000000000E+00  0.000000000E+00  2.701595568E+03  2.701595568E+03  0.000000000E+00  0.00000E+00  9.000E+00
      21    -1     0     0   512   502  0.000000000E+00  0.000000000E+00 -3.245443575E+01  3.245443575E+01  0.000000000E+00  0.00000E+00  9.000E+00
      25     1     1     2     0     0 -1.635024327E+02 -1.638872542E+02  1.849162270E+03  1.867784296E+03  1.250000000E+02  0.00000E+00  9.000E+00
      25     1     1     2     0     0  1.539929025E+02  1.280878162E+02  7.594283554E+02  7.952840560E+02  1.250000000E+02  0.00000E+00  9.000E+00
      21     1     1     2   512   501  9.509530223E+00  3.579943805E+01  6.055050659E+01  7.098165100E+01  9.536743164E-07  0.00000E+00  9.000E+00
#rwgt            1           1  0.10600831889817142                4       38359           0
</event>
<event>
      5   9999  3.79277E-02  9.44779E+01 -1.00000E+00  1.24948E-01
      21    -1     0     0   502   501  0.000000000E+00  0.000000000E+00  1.957428794E+02  1.957428794E+02  0.000000000E+00  0.00000E+00  9.000E+00
       1    -1     0     0   501     0  0.000000000E+00  0.000000000E+00 -1.242212803E+03  1.242212803E+03  0.000000000E+00  0.00000E+00  9.000E+00
      25     1     1     2     0     0 -1.289301017E+02  2.657568237E+02 -3.184959707E+02  4.520114421E+02  1.250000000E+02  0.00000E+00  9.000E+00
      25     1     1     2     0     0  4.546275547E+01 -3.100205615E+02 -1.013598308E+02  3.522476771E+02  1.250000000E+02  0.00000E+00  9.000E+00
       1     1     1     2   502     0  8.346734620E+01  4.426373784E+01 -6.266141216E+02  6.336965628E+02  0.000000000E+00  0.00000E+00  9.000E+00
#rwgt            1           1   3.0509070680258821E-002           4       38457           0
</event>
<event>
      5   9999  3.79277E-02  1.07041E+02 -1.00000E+00  1.22513E-01
      21    -1     0     0   511   501  0.000000000E+00  0.000000000E+00  8.591400295E+02  8.591400295E+02  0.000000000E+00  0.00000E+00  9.000E+00
      21    -1     0     0   501   502  0.000000000E+00  0.000000000E+00 -7.048519703E+01  7.048519703E+01  0.000000000E+00  0.00000E+00  9.000E+00
      25     1     1     2     0     0  1.413982223E+01 -1.216787293E+02  2.986185945E+02  3.461267293E+02  1.250000000E+02  0.00000E+00  9.000E+00
      25     1     1     2     0     0 -1.145185310E+02  8.450420952E+01  2.054445518E+02  2.794421572E+02  1.250000000E+02  0.00000E+00  9.000E+00
      21     1     1     2   511   502  1.003787087E+02  3.717451980E+01  2.845916862E+02  3.040563401E+02  6.607249480E-06  0.00000E+00  9.000E+00
#rwgt            1           1   4.3821392332870676E-002           4       38590           0
</event>
<event>
      5   9999 -3.79277E-02  5.80237E+01 -1.00000E+00  1.35485E-01
      21    -1     0     0   502   512  0.000000000E+00  0.000000000E+00  2.139435369E+02  2.139435369E+02  0.000000000E+00  0.00000E+00  9.000E+00
      21    -1     0     0   501   502  0.000000000E+00  0.000000000E+00 -6.579040746E+02  6.579040746E+02  0.000000000E+00  0.00000E+00  9.000E+00
      25     1     1     2     0     0  2.564843315E+02  1.804979880E+02 -1.126845569E+02  3.559305344E+02  1.250000000E+02  0.00000E+00  9.000E+00
      25     1     1     2     0     0 -2.510571089E+02 -1.227286749E+02 -3.396957382E+02  4.572856811E+02  1.250000000E+02  0.00000E+00  9.000E+00
      21     1     1     2   501   512 -5.427222603E+00 -5.776931310E+01  8.419757524E+00  5.863139601E+01  2.665600750E-07  0.00000E+00  9.000E+00
#rwgt            1           1  -5.5837539536369885E-002           4       38695           0
</event>
<event>
      5   9999  3.79277E-02  2.15558E+02 -1.00000E+00  1.10476E-01
      21    -1     0     0   502   511  0.000000000E+00  0.000000000E+00  1.688420543E+03  1.688420543E+03  0.000000000E+00  0.00000E+00  9.000E+00
      21    -1     0     0   501   502  0.000000000E+00  0.000000000E+00 -1.439608503E+02  1.439608503E+02  0.000000000E+00  0.00000E+00  9.000E+00
      25     1     1     2     0     0 -1.132457359E+02  1.805884491E+02 -1.907845837E+00  2.471141933E+02  1.250000000E+02  0.00000E+00  9.000E+00
      25     1     1     2     0     0 -2.955966547E+01 -1.911996311E+01  4.751524030E+02  4.925790828E+02  1.250000000E+02  0.00000E+00  9.000E+00
      21     1     1     2   501   511  1.428054014E+02 -1.614684860E+02  1.071215135E+03  1.092688117E+03  0.000000000E+00  0.00000E+00  9.000E+00
#rwgt            1           1   2.7705711203290455E-002           4       38782           0
</event>
<event>
      5   9999  3.79277E-02  1.00615E+01 -1.00000E+00  1.95450E-01
      21    -1     0     0   502   512  0.000000000E+00  0.000000000E+00  5.576816492E+01  5.576816492E+01  0.000000000E+00  0.00000E+00  9.000E+00
      21    -1     0     0   501   502  0.000000000E+00  0.000000000E+00 -1.391379555E+03  1.391379555E+03  0.000000000E+00  0.00000E+00  9.000E+00
      25     1     1     2     0     0 -1.041538901E+02 -6.428530649E+01 -1.135852435E+02  2.085838944E+02  1.250000000E+02  0.00000E+00  9.000E+00
      25     1     1     2     0     0  9.483568583E+01  6.808074882E+01 -1.213147049E+03  1.225144709E+03  1.250000000E+02  0.00000E+00  9.000E+00
      21     1     1     2   501   512  9.318204302E+00 -3.795442328E+00 -8.879097696E+00  1.341911658E+01  2.665600750E-07  0.00000E+00  9.000E+00
#rwgt            1           1   4.6998996884212677E-002           4       38830           0
</event>
<event>
      5   9999  3.79277E-02  2.29005E+01 -1.00000E+00  1.61658E-01
      21    -1     0     0   502   501  0.000000000E+00  0.000000000E+00  7.194842054E+02  7.194842054E+02  0.000000000E+00  0.00000E+00  9.000E+00
      21    -1     0     0   501   511  0.000000000E+00  0.000000000E+00 -5.978401395E+01  5.978401395E+01  0.000000000E+00  0.00000E+00  9.000E+00
      25     1     1     2     0     0  4.375829467E+01  1.822599670E+01  4.918092395E+02  5.096550827E+02  1.250000000E+02  0.00000E+00  9.000E+00
      25     1     1     2     0     0 -2.818113505E+01 -3.501238575E+01  1.938507395E+02  2.349960696E+02  1.250000000E+02  0.00000E+00  9.000E+00
      21     1     1     2   502   511 -1.557715961E+01  1.678638905E+01 -2.595978753E+01  3.461706700E+01  8.259061849E-07  0.00000E+00  9.000E+00
#rwgt            1           1   6.7977404812834527E-002           4       39185           0
</event>
<event>
      5   9999  3.79277E-02  4.28739E+01 -1.00000E+00  1.42996E-01
      21    -1     0     0   502   501  0.000000000E+00  0.000000000E+00  5.197971941E+02  5.197971941E+02  0.000000000E+00  0.00000E+00  9.000E+00
      21    -1     0     0   501   512  0.000000000E+00  0.000000000E+00 -4.607481663E+02  4.607481663E+02  0.000000000E+00  0.00000E+00  9.000E+00
      25     1     1     2     0     0 -4.179490323E+02 -1.121840719E+01  1.708708254E+02  4.686460127E+02  1.250000000E+02  0.00000E+00  9.000E+00
      25     1     1     2     0     0  3.760857064E+02  1.964466747E+00 -4.516015613E+00  3.963454454E+02  1.250000000E+02  0.00000E+00  9.000E+00
      21     1     1     2   502   512  4.186332587E+01  9.253940447E+00 -1.073057820E+02  1.155539023E+02  1.348699152E-06  0.00000E+00  9.000E+00
#rwgt            1           1   1.9275010538382407E-002           4       39374           0
</event>
<event>
      5   9999  3.79277E-02  4.46028E+01 -1.00000E+00  1.41966E-01
      21    -1     0     0   502   501  0.000000000E+00  0.000000000E+00  2.361216523E+02  2.361216523E+02  0.000000000E+00  0.00000E+00  9.000E+00
      21    -1     0     0   501   511  0.000000000E+00  0.000000000E+00 -9.675281994E+02  9.675281994E+02  0.000000000E+00  0.00000E+00  9.000E+00
      25     1     1     2     0     0  1.943296608E+02  4.023114935E+02 -2.691952632E+02  5.363857237E+02  1.250000000E+02  0.00000E+00  9.000E+00
      25     1     1     2     0     0 -1.646478089E+02 -3.690188387E+02 -3.588543128E+02  5.546938093E+02  1.250000000E+02  0.00000E+00  9.000E+00
      21     1     1     2   502   511 -2.968185185E+01 -3.329265480E+01 -1.033569711E+02  1.125703187E+02  1.348699152E-06  0.00000E+00  9.000E+00
#rwgt            1           1   9.8559948758090554E-003           4       39510           0
</event>
<event>
      5   9999  3.79277E-02  9.33032E+01 -1.00000E+00  1.25197E-01
      21    -1     0     0   512   501  0.000000000E+00  0.000000000E+00  3.222724345E+02  3.222724345E+02  0.000000000E+00  0.00000E+00  9.000E+00
      21    -1     0     0   501   502  0.000000000E+00  0.000000000E+00 -1.915437112E+02  1.915437112E+02  0.000000000E+00  0.00000E+00  9.000E+00
      25     1     1     2     0     0 -1.144604583E+02 -9.454606784E+01 -3.588466885E+01  1.973648016E+02  1.250000000E+02  0.00000E+00  9.000E+00
      25     1     1     2     0     0  1.223197222E+02  1.574479972E+00  9.661739102E+01  1.998111951E+02  1.250000000E+02  0.00000E+00  9.000E+00
      21     1     1     2   512   502 -7.859263958E+00  9.297158787E+01  6.999600110E+01  1.166401490E+02  1.348699152E-06  0.00000E+00  9.000E+00
#rwgt            1           1   3.4601172658300254E-002           4       39623           0
</event>
<event>
      5   9999  3.79277E-02  8.94484E+01 -1.00000E+00  1.26046E-01
      21    -1     0     0   511   501  0.000000000E+00  0.000000000E+00  9.966240826E+02  9.966240826E+02  0.000000000E+00  0.00000E+00  9.000E+00
      21    -1     0     0   501   502  0.000000000E+00  0.000000000E+00 -2.679346943E+02  2.679346943E+02  0.000000000E+00  0.00000E+00  9.000E+00
      25     1     1     2     0     0  2.299084221E+02  1.052525840E+01  4.044891855E+01  2.650090161E+02  1.250000000E+02  0.00000E+00  9.000E+00
      25     1     1     2     0     0 -2.233124099E+02 -9.973014298E+01 -2.951342513E+01  2.762436897E+02  1.250000000E+02  0.00000E+00  9.000E+00
      21     1     1     2   511   502 -6.596012176E+00  8.920488458E+01  7.177538948E+02  7.233060710E+02  0.000000000E+00  0.00000E+00  9.000E+00
#rwgt            1           1   4.1438084821745991E-002           4       39711           0
</event>
<event>
      5   9999  3.79277E-02  1.30223E+02 -1.00000E+00  1.18880E-01
       2    -1     0     0   502     0  0.000000000E+00  0.000000000E+00  1.627368337E+03  1.627368337E+03  0.000000000E+00  0.00000E+00  9.000E+00
      21    -1     0     0   501   502  0.000000000E+00  0.000000000E+00 -7.512484114E+01  7.512484114E+01  0.000000000E+00  0.00000E+00  9.000E+00
      25     1     1     2     0     0  1.497220015E+02  1.526997726E+02  5.217812727E+02  5.775937974E+02  1.250000000E+02  0.00000E+00  9.000E+00
      25     1     1     2     0     0 -2.891551209E+01 -1.040800748E+02  1.175849933E+02  2.027806684E+02  1.250000000E+02  0.00000E+00  9.000E+00
       2     1     1     2   501     0 -1.208064894E+02 -4.861969784E+01  9.128772301E+02  9.221187126E+02  0.000000000E+00  0.00000E+00  9.000E+00
#rwgt            1           1   3.8708168116037139E-002           4       39839           0
</event>
<event>
      5   9999  3.79277E-02  9.08394E+01 -1.00000E+00  1.25734E-01
      21    -1     0     0   511   501  0.000000000E+00  0.000000000E+00  1.127556471E+03  1.127556471E+03  0.000000000E+00  0.00000E+00  9.000E+00
      21    -1     0     0   501   502  0.000000000E+00  0.000000000E+00 -2.357911939E+02  2.357911939E+02  0.000000000E+00  0.00000E+00  9.000E+00
      25     1     1     2     0     0 -6.641664653E+01  1.856683399E+02 -1.477541433E+02  2.762972860E+02  1.250000000E+02  0.00000E+00  9.000E+00
      25     1     1     2     0     0  1.369532399E+02 -1.284286614E+02  7.872248749E+02  8.189005524E+02  1.250000000E+02  0.00000E+00  9.000E+00
      21     1     1     2   511   502 -7.053659341E+01 -5.723967850E+01  2.522945451E+02  2.681498262E+02  5.394796609E-06  0.00000E+00  9.000E+00
#rwgt            1           1   4.2411716045485687E-002           4       39952           0
</event>
<event>
      5   9999  3.79277E-02  8.28336E+01 -1.00000E+00  1.27622E-01
      21    -1     0     0   502   501  0.000000000E+00  0.000000000E+00  1.118125615E+03  1.118125615E+03  0.000000000E+00  0.00000E+00  9.000E+00
      21    -1     0     0   501   512  0.000000000E+00  0.000000000E+00 -5.248440634E+01  5.248440634E+01  0.000000000E+00  0.00000E+00  9.000E+00
      25     1     1     2     0     0  1.409492259E+02  4.955629740E+01  5.165168306E+02  5.520300238E+02  1.250000000E+02  0.00000E+00  9.000E+00
      25     1     1     2     0     0 -6.596475213E+01 -1.436073169E+01  5.052529158E+02  5.248457755E+02  1.250000000E+02  0.00000E+00  9.000E+00
      21     1     1     2   502   512 -7.498447377E+01 -3.519556572E+01  4.387146201E+01  9.373422177E+01  6.743495762E-07  0.00000E+00  9.000E+00
#rwgt            1           1   3.5002304057891155E-002           4       40054           0
</event>
<event>
      5   9999  3.79277E-02  1.08732E+01 -1.00000E+00  1.91646E-01
      21    -1     0     0   502   511  0.000000000E+00  0.000000000E+00  6.965303315E+02  6.965303315E+02  0.000000000E+00  0.00000E+00  9.000E+00
      21    -1     0     0   501   502  0.000000000E+00  0.000000000E+00 -5.793445621E+01  5.793445621E+01  0.000000000E+00  0.00000E+00  9.000E+00
      25     1     1     2     0     0  1.164027478E+02 -8.605601053E+01  2.628037228E+02  3.250323574E+02  1.250000000E+02  0.00000E+00  9.000E+00
      25     1     1     2     0     0 -1.173835161E+02  9.688488852E+01  3.564991624E+02  4.072864155E+02  1.250000000E+02  0.00000E+00  9.000E+00
      21     1     1     2   501   511  9.807682642E-01 -1.082887798E+01  1.929299004E+01  2.214601475E+01  2.384185791E-07  0.00000E+00  9.000E+00
#rwgt            1           1   4.1703855857431305E-002           4       40153           0
</event>
<event>
      5   9999  3.79277E-02  5.70389E+01 -1.00000E+00  1.35889E-01
      21    -1     0     0   502   501  0.000000000E+00  0.000000000E+00  7.239022395E+02  7.239022395E+02  0.000000000E+00  0.00000E+00  9.000E+00
      21    -1     0     0   501   512  0.000000000E+00  0.000000000E+00 -3.226944914E+02  3.226944914E+02  0.000000000E+00  0.00000E+00  9.000E+00
      25     1     1     2     0     0  6.939713501E+01 -1.387111667E+02  9.491720803E+01  2.206604326E+02  1.250000000E+02  0.00000E+00  9.000E+00
      25     1     1     2     0     0 -1.122374665E+02  1.010529604E+02  5.456890264E+02  5.798365832E+02  1.250000000E+02  0.00000E+00  9.000E+00
      21     1     1     2   502   512  4.284033150E+01  3.765820630E+01 -2.393984863E+02  2.460997151E+02  6.031565972E-06  0.00000E+00  9.000E+00
#rwgt            1           1   3.6050822097637381E-002           4       40415           0
</event>
<event>
      5   9999  3.79277E-02  3.88223E+01 -1.00000E+00  1.45650E-01
      21    -1     0     0   502   511  0.000000000E+00  0.000000000E+00  2.150141853E+02  2.150141853E+02  0.000000000E+00  0.00000E+00  9.000E+00
      21    -1     0     0   501   502  0.000000000E+00  0.000000000E+00 -1.242613507E+03  1.242613507E+03  0.000000000E+00  0.00000E+00  9.000E+00
      25     1     1     2     0     0 -1.411184783E+02 -3.642637634E+01 -6.447980232E+02  6.727784156E+02  1.250000000E+02  0.00000E+00  9.000E+00
      25     1     1     2     0     0  1.023060843E+02  3.730411351E+01 -5.700251024E+02  5.936427791E+02  1.250000000E+02  0.00000E+00  9.000E+00
      21     1     1     2   501   511  3.881239396E+01 -8.777371736E-01  1.872238034E+02  1.912064981E+02  2.697398305E-06  0.00000E+00  9.000E+00
#rwgt            1           1   4.5425274155217757E-002           4       40511           0
</event>
<event>
      5   9999  3.79277E-02  1.51166E+01 -1.00000E+00  1.77067E-01
      21    -1     0     0   502   501  0.000000000E+00  0.000000000E+00  4.202276089E+02  4.202276089E+02  0.000000000E+00  0.00000E+00  9.000E+00
      21    -1     0     0   512   502  0.000000000E+00  0.000000000E+00 -1.805771075E+02  1.805771075E+02  0.000000000E+00  0.00000E+00  9.000E+00
      25     1     1     2     0     0 -1.306920614E+02 -1.585197260E+02  8.283576425E+01  2.543534594E+02  1.250000000E+02  0.00000E+00  9.000E+00
      25     1     1     2     0     0  1.265227690E+02  1.439894781E+02  1.979837485E+02  3.025946886E+02  1.250000000E+02  0.00000E+00  9.000E+00
      21     1     1     2   512   501  4.169292400E+00  1.453024787E+01 -4.116901133E+01  4.385656845E+01  6.743495762E-07  0.00000E+00  9.000E+00
#rwgt            1           1   4.9656322909227862E-002           4       40619           0
</event>
<event>
      5   9999  3.79277E-02  2.14711E+01 -1.00000E+00  1.63865E-01
      21    -1     0     0   502   501  0.000000000E+00  0.000000000E+00  1.740814222E+02  1.740814222E+02  0.000000000E+00  0.00000E+00  9.000E+00
      21    -1     0     0   511   502  0.000000000E+00  0.000000000E+00 -3.497589384E+02  3.497589384E+02  0.000000000E+00  0.00000E+00  9.000E+00
      25     1     1     2     0     0  1.054488376E+01  1.626797418E+02 -2.782257830E+01  2.073040975E+02  1.250000000E+02  0.00000E+00  9.000E+00
      25     1     1     2     0     0 -2.823335282E+01 -1.748504023E+02 -5.835886646E+01  2.245006519E+02  1.250000000E+02  0.00000E+00  9.000E+00
      21     1     1     2   511   501  1.768846906E+01  1.217066052E+01 -8.949607145E+01  9.203561115E+01  1.907348633E-06  0.00000E+00  9.000E+00
#rwgt            1           1   3.9809253670367729E-002           4       40850           0
</event>
<event>
      5   9999  3.79277E-02  2.23748E+02 -1.00000E+00  1.09902E-01
      21    -1     0     0   502   501  0.000000000E+00  0.000000000E+00  1.588290822E+03  1.588290822E+03  0.000000000E+00  0.00000E+00  9.000E+00
      21    -1     0     0   501   512  0.000000000E+00  0.000000000E+00 -3.420748116E+02  3.420748116E+02  0.000000000E+00  0.00000E+00  9.000E+00
      25     1     1     2     0     0 -5.155022915E+02 -1.927653234E+02  8.924189823E+02  1.055906114E+03  1.250000000E+02  0.00000E+00  9.000E+00
      25     1     1     2     0     0  4.496348472E+02 -2.106806954E+01  4.331359621E+02  6.370613165E+02  1.250000000E+02  0.00000E+00  9.000E+00
      21     1     1     2   502   512  6.586744424E+01  2.138333930E+02 -7.933893398E+01  2.373982026E+02  6.253660702E-06  0.00000E+00  9.000E+00
#rwgt            1           1  0.10299441409416811                4       40984           0
</event>
<event>
      5   9999  3.79277E-02  6.92705E+01 -1.00000E+00  1.31452E-01
      21    -1     0     0   511   501  0.000000000E+00  0.000000000E+00  1.652337135E+02  1.652337135E+02  0.000000000E+00  0.00000E+00  9.000E+00
      21    -1     0     0   501   502  0.000000000E+00  0.000000000E+00 -4.081492275E+02  4.081492275E+02  0.000000000E+00  0.00000E+00  9.000E+00
      25     1     1     2     0     0  1.791852766E+02  2.394387156E+01 -1.834230036E+02  2.862685288E+02  1.250000000E+02  0.00000E+00  9.000E+00
      25     1     1     2     0     0 -1.109409041E+02 -1.206485659E+01 -1.108228469E+02  2.008983533E+02  1.250000000E+02  0.00000E+00  9.000E+00
      21     1     1     2   511   502 -6.824437249E+01 -1.187901497E+01  5.133033650E+01  8.621605893E+01  6.743495762E-07  0.00000E+00  9.000E+00
#rwgt            1           1   4.4011122476908790E-002           4       41077           0
</event>
<event>
      5   9999  3.79277E-02  4.25625E+01 -1.00000E+00  1.43187E-01
      21    -1     0     0   502   501  0.000000000E+00  0.000000000E+00  7.485688480E+02  7.485688480E+02  0.000000000E+00  0.00000E+00  9.000E+00
      21    -1     0     0   512   502  0.000000000E+00  0.000000000E+00 -3.126885393E+02  3.126885393E+02  0.000000000E+00  0.00000E+00  9.000E+00
      25     1     1     2     0     0  3.715916210E+02 -2.615484422E+01  6.725323944E+00  3.929817282E+02  1.250000000E+02  0.00000E+00  9.000E+00
      25     1     1     2     0     0 -3.681452904E+02 -1.626792019E+01  4.693864142E+02  6.097082957E+02  1.250000000E+02  0.00000E+00  9.000E+00
      21     1     1     2   512   501 -3.446330652E+00  4.242276440E+01 -4.023142954E+01  5.856736342E+01  1.168007728E-06  0.00000E+00  9.000E+00
#rwgt            1           1   2.2479530592337454E-002           4       41145           0
</event>
<event>
      5   9999  3.79277E-02  2.74674E+01 -1.00000E+00  1.55749E-01
       2    -1     0     0   502     0  0.000000000E+00  0.000000000E+00  8.162706389E+01  8.162706389E+01  0.000000000E+00  0.00000E+00  9.000E+00
      21    -1     0     0   501   502  0.000000000E+00  0.000000000E+00 -6.659475756E+02  6.659475756E+02  0.000000000E+00  0.00000E+00  9.000E+00
      25     1     1     2     0     0 -1.028376485E+02 -7.428360305E+01 -1.806650913E+02  2.536897925E+02  1.250000000E+02  0.00000E+00  9.000E+00
      25     1     1     2     0     0  1.124394984E+02  1.000180480E+02 -4.190014101E+02  4.624212716E+02  1.250000000E+02  0.00000E+00  9.000E+00
       2     1     1     2   501     0 -9.601849902E+00 -2.573444492E+01  1.534598968E+01  3.146357539E+01  1.039242493E-06  0.00000E+00  9.000E+00
#rwgt            1           1   3.6562516933247836E-002           4       41332           0
</event>
<event>
      5   9999  3.79277E-02  9.06659E+01 -1.00000E+00  1.25773E-01
      21    -1     0     0   502   511  0.000000000E+00  0.000000000E+00  3.863943306E+02  3.863943306E+02  0.000000000E+00  0.00000E+00  9.000E+00
      21    -1     0     0   501   502  0.000000000E+00  0.000000000E+00 -3.932367754E+02  3.932367754E+02  0.000000000E+00  0.00000E+00  9.000E+00
      25     1     1     2     0     0 -2.517426267E+01  1.468749745E+01 -3.362368382E+02  3.599023165E+02  1.250000000E+02  0.00000E+00  9.000E+00
      25     1     1     2     0     0  5.460963312E+01 -1.004422251E+02  2.192742887E+02  2.770867487E+02  1.250000000E+02  0.00000E+00  9.000E+00
      21     1     1     2   501   511 -2.943537044E+01  8.575472762E+01  1.101201047E+02  1.426420408E+02  0.000000000E+00  0.00000E+00  9.000E+00
#rwgt            2          11   1.8504375555710455E-003           4       41551           0
</event>
<event>
      5   9999  3.79277E-02  9.08392E+00 -1.00000E+00  2.00708E-01
      21    -1     0     0   512   501  0.000000000E+00  0.000000000E+00  1.431506194E+02  1.431506194E+02  0.000000000E+00  0.00000E+00  9.000E+00
      21    -1     0     0   501   502  0.000000000E+00  0.000000000E+00 -4.067821992E+02  4.067821992E+02  0.000000000E+00  0.00000E+00  9.000E+00
      25     1     1     2     0     0 -4.721833567E+01 -1.914228933E+02 -1.709977773E+02  2.893743858E+02  1.250000000E+02  0.00000E+00  9.000E+00
      25     1     1     2     0     0  3.814045976E+01  1.917542221E+02 -9.563884248E+01  2.509903675E+02  1.250000000E+02  0.00000E+00  9.000E+00
      21     1     1     2   512   502  9.077875904E+00 -3.313288318E-01  3.005040047E+00  9.568065395E+00  4.214684851E-08  0.00000E+00  9.000E+00
#rwgt            1           1   2.8102957691087001E-002           4       41616           0
</event>
<event>
      5   9999  3.79277E-02  6.64816E+00 -1.00000E+00  2.18769E-01
      21    -1     0     0   502   511  0.000000000E+00  0.000000000E+00  2.006161910E+02  2.006161910E+02  0.000000000E+00  0.00000E+00  9.000E+00
      21    -1     0     0   501   502  0.000000000E+00  0.000000000E+00 -2.561292891E+02  2.561292891E+02  0.000000000E+00  0.00000E+00  9.000E+00
      25     1     1     2     0     0 -1.602018588E+02  4.719698477E+01 -1.117801397E+02  2.366685246E+02  1.250000000E+02  0.00000E+00  9.000E+00
      25     1     1     2     0     0  1.538864043E+02 -4.512020330E+01  4.702821382E+01  2.086947797E+02  1.250000000E+02  0.00000E+00  9.000E+00
      21     1     1     2   501   511  6.315454449E+00 -2.076781462E+00  9.238827835E+00  1.138217580E+01  1.685873940E-07  0.00000E+00  9.000E+00
#rwgt            1           1   4.5217756594047663E-002           4       41944           0
</event>
<event>
      5   9999  3.79277E-02  1.83829E+01 -1.00000E+00  1.69448E-01
      21    -1     0     0   502   501  0.000000000E+00  0.000000000E+00  2.992455339E+01  2.992455339E+01  0.000000000E+00  0.00000E+00  9.000E+00
      21    -1     0     0   512   502  0.000000000E+00  0.000000000E+00 -1.764789361E+03  1.764789361E+03  0.000000000E+00  0.00000E+00  9.000E+00
      25     1     1     2     0     0  4.475496392E+01  1.709936887E+02 -8.746778500E+02  9.010705797E+02  1.250000000E+02  0.00000E+00  9.000E+00
      25     1     1     2     0     0 -3.061663508E+01 -1.827427421E+02 -7.812329724E+02  8.125775319E+02  1.250000000E+02  0.00000E+00  9.000E+00
      21     1     1     2   512   501 -1.413832884E+01  1.174905349E+01 -7.895398478E+01  8.106580236E+01  1.348699152E-06  0.00000E+00  9.000E+00
#rwgt            1           1   4.1701751594785799E-002           4       42317           0
</event>
<event>
      5   9999  3.79277E-02  1.33232E+01 -1.00000E+00  1.82375E-01
      21    -1     0     0   502   501  0.000000000E+00  0.000000000E+00  1.746300730E+02  1.746300730E+02  0.000000000E+00  0.00000E+00  9.000E+00
      21    -1     0     0   511   502  0.000000000E+00  0.000000000E+00 -4.102539863E+02  4.102539863E+02  0.000000000E+00  0.00000E+00  9.000E+00
      25     1     1     2     0     0 -1.898799646E+02  3.144562777E+01 -2.284739306E+02  3.238341635E+02  1.250000000E+02  0.00000E+00  9.000E+00
      25     1     1     2     0     0  2.004667359E+02 -2.335692398E+01  1.202390231E+01  2.377015614E+02  1.250000000E+02  0.00000E+00  9.000E+00
      21     1     1     2   511   501 -1.058677126E+01 -8.088703799E+00 -1.917388494E+01  2.334833439E+01  0.000000000E+00  0.00000E+00  9.000E+00
#rwgt            1           1   9.9920920633745094E-002           4       42589           0
</event>
<event>
      5   9999  3.79277E-02  1.35344E+02 -1.00000E+00  1.18191E-01
      21    -1     0     0   502   501  0.000000000E+00  0.000000000E+00  1.274811616E+03  1.274811616E+03  0.000000000E+00  0.00000E+00  9.000E+00
       2    -1     0     0   501     0  0.000000000E+00  0.000000000E+00 -1.268869027E+02  1.268869027E+02  0.000000000E+00  0.00000E+00  9.000E+00
      25     1     1     2     0     0 -1.404727419E+01  1.092326996E+02  9.282331876E+02  9.430646633E+02  1.250000000E+02  0.00000E+00  9.000E+00
      25     1     1     2     0     0  1.382824799E+02 -5.553300732E+01  2.531235739E+02  3.192217142E+02  1.250000000E+02  0.00000E+00  9.000E+00
       2     1     1     2   502     0 -1.242352057E+02 -5.369969227E+01 -3.343204819E+01  1.394121413E+02  2.185142372E-06  0.00000E+00  9.000E+00
#rwgt            1           1   1.0683184010281897E-002           4       42960           0
</event>
<event>
      5   9999  3.79277E-02  1.30508E+01 -1.00000E+00  1.83275E-01
      21    -1     0     0   502   501  0.000000000E+00  0.000000000E+00  2.538343393E+02  2.538343393E+02  0.000000000E+00  0.00000E+00  9.000E+00
       2    -1     0     0   501     0  0.000000000E+00  0.000000000E+00 -3.518994390E+03  3.518994390E+03  0.000000000E+00  0.00000E+00  9.000E+00
      25     1     1     2     0     0 -1.107076204E+02  1.781711562E+02  2.903868279E+01  2.459052322E+02  1.250000000E+02  0.00000E+00  9.000E+00
      25     1     1     2     0     0  9.766050965E+01 -1.784812617E+02 -6.165425412E+00  2.388642887E+02  1.250000000E+02  0.00000E+00  9.000E+00
       2     1     1     2   502     0  1.304711079E+01  3.101054473E-01 -3.288033308E+03  3.288059208E+03  4.315837288E-05  0.00000E+00  9.000E+00
#rwgt            1           1   1.5250215083994224E-002           4       43020           0
</event>
<event>
      5   9999  3.79277E-02  1.13250E+01 -1.00000E+00  1.89711E-01
      21    -1     0     0   502   501  0.000000000E+00  0.000000000E+00  3.877187964E+02  3.877187964E+02  0.000000000E+00  0.00000E+00  9.000E+00
      21    -1     0     0   511   502  0.000000000E+00  0.000000000E+00 -1.863505181E+02  1.863505181E+02  0.000000000E+00  0.00000E+00  9.000E+00
      25     1     1     2     0     0  1.701547194E+02  4.286239976E+01  2.537739926E+02  3.328904522E+02  1.250000000E+02  0.00000E+00  9.000E+00
      25     1     1     2     0     0 -1.792467159E+02 -4.961450374E+01 -5.010676244E+01  2.296228904E+02  1.250000000E+02  0.00000E+00  9.000E+00
      21     1     1     2   511   501  9.091996490E+00  6.752103982E+00 -2.298951764E+00  1.155597194E+01  2.308477966E-07  0.00000E+00  9.000E+00
#rwgt            1           1   2.2183126180243380E-002           4       43205           0
</event>
<event>
      5   9999  3.79277E-02  3.06978E+02 -1.00000E+00  1.05269E-01
      21    -1     0     0   502   501  0.000000000E+00  0.000000000E+00  9.108456061E+02  9.108456061E+02  0.000000000E+00  0.00000E+00  9.000E+00
      -1    -1     0     0     0   502  0.000000000E+00  0.000000000E+00 -1.903805897E+02  1.903805897E+02  0.000000000E+00  0.00000E+00  9.000E+00
      25     1     1     2     0     0 -1.567695211E+02 -2.301808408E+02  4.135084117E+02  5.139787046E+02  1.250000000E+02  0.00000E+00  9.000E+00
      25     1     1     2     0     0  1.219411418E+02 -7.481528892E+01  8.332318206E+01  2.074481192E+02  1.250000000E+02  0.00000E+00  9.000E+00
      -1     1     1     2     0   501  3.482837931E+01  3.049961298E+02  2.236334227E+02  3.797993719E+02  6.031565972E-06  0.00000E+00  9.000E+00
#rwgt            1           1   5.8299329576498833E-003           4       43413           0
</event>
<event>
      5   9999  3.79277E-02  4.41447E+01 -1.00000E+00  1.42234E-01
      21    -1     0     0   511   501  0.000000000E+00  0.000000000E+00  5.108359226E+01  5.108359226E+01  0.000000000E+00  0.00000E+00  9.000E+00
      21    -1     0     0   501   502  0.000000000E+00  0.000000000E+00 -8.876305113E+02  8.876305113E+02  0.000000000E+00  0.00000E+00  9.000E+00
      25     1     1     2     0     0  1.375831511E+02 -6.357587510E+01 -4.261069694E+02  4.692154779E+02  1.250000000E+02  0.00000E+00  9.000E+00
      25     1     1     2     0     0 -1.012451549E+02  8.864188964E+01 -3.375764558E+02  3.843056459E+02  1.250000000E+02  0.00000E+00  9.000E+00
      21     1     1     2   511   502 -3.633799621E+01 -2.506601453E+01 -7.286349378E+01  8.519297963E+01  9.536743164E-07  0.00000E+00  9.000E+00
#rwgt            1           1   3.6550164247437678E-002           4       43536           0
</event>
<event>
      5   9999 -3.79277E-02  3.31769E+01 -1.00000E+00  1.50064E-01
      21    -1     0     0   502   501  0.000000000E+00  0.000000000E+00  1.454851408E+03  1.454851408E+03  0.000000000E+00  0.00000E+00  9.000E+00
      21    -1     0     0   501   512  0.000000000E+00  0.000000000E+00 -7.215171612E+01  7.215171612E+01  0.000000000E+00  0.00000E+00  9.000E+00
      25     1     1     2     0     0  1.897800185E+02  5.271056722E+01  2.275957453E+02  3.259136122E+02  1.250000000E+02  0.00000E+00  9.000E+00
      25     1     1     2     0     0 -1.997799188E+02 -8.434453632E+01  1.135054222E+03  1.162324870E+03  1.250000000E+02  0.00000E+00  9.000E+00
      21     1     1     2   502   512  9.999900274E+00  3.163396909E+01  2.004972466E+01  3.876464194E+01  7.539457465E-07  0.00000E+00  9.000E+00
#rwgt            1           1  -4.6039360154824335E-002           4       43655           0
</event>
<event>
      5   9999  3.79277E-02  1.77000E+01 -1.00000E+00  1.70869E-01
      21    -1     0     0   502   501  0.000000000E+00  0.000000000E+00  6.798490392E+01  6.798490392E+01  0.000000000E+00  0.00000E+00  9.000E+00
      21    -1     0     0   501   511  0.000000000E+00  0.000000000E+00 -1.165194363E+03  1.165194363E+03  0.000000000E+00  0.00000E+00  9.000E+00
      25     1     1     2     0     0 -9.033174236E+01  2.222587142E+02 -5.999256926E+02  6.580992298E+02  1.250000000E+02  0.00000E+00  9.000E+00
      25     1     1     2     0     0  7.355557197E+01 -2.279023239E+02 -4.536034697E+02  5.279498074E+02  1.250000000E+02  0.00000E+00  9.000E+00
      21     1     1     2   502   511  1.677617040E+01  5.643609723E+00 -4.368029722E+01  4.713023010E+01  6.743495762E-07  0.00000E+00  9.000E+00
#rwgt            1           1   3.6234522900639617E-002           4       43916           0
</event>
<event>
      5   9999  3.79277E-02  8.50622E+01 -1.00000E+00  1.27073E-01
       1    -1     0     0   502     0  0.000000000E+00  0.000000000E+00  9.252636540E+02  9.252636540E+02  0.000000000E+00  0.00000E+00  9.000E+00
      21    -1     0     0   501   502  0.000000000E+00  0.000000000E+00 -2.151149732E+02  2.151149732E+02  0.000000000E+00  0.00000E+00  9.000E+00
      25     1     1     2     0     0  4.529604304E+01 -2.118635092E+02  1.303748040E+02  2.820646514E+02  1.250000000E+02  0.00000E+00  9.000E+00
      25     1     1     2     0     0 -9.298311540E+00  1.347937916E+02 -7.447161472E+01  1.985619457E+02  1.250000000E+02  0.00000E+00  9.000E+00
       1     1     1     2   501     0 -3.599773150E+01  7.706971754E+01  6.542454916E+02  6.597520302E+02  1.078959322E-05  0.00000E+00  9.000E+00
#rwgt            1           1   6.4825355483450281E-002           4       44170           0
</event>
<event>
      5   9999  3.79277E-02  2.98565E+01 -1.00000E+00  1.53185E-01
      21    -1     0     0   511   501  0.000000000E+00  0.000000000E+00  2.055520851E+02  2.055520851E+02  0.000000000E+00  0.00000E+00  9.000E+00
      21    -1     0     0   501   502  0.000000000E+00  0.000000000E+00 -3.886292269E+02  3.886292269E+02  0.000000000E+00  0.00000E+00  9.000E+00
      25     1     1     2     0     0  1.565056583E+02 -6.826558223E+01 -2.218125656E+02  3.065616170E+02  1.250000000E+02  0.00000E+00  9.000E+00
      25     1     1     2     0     0 -1.768041302E+02  4.637070929E+01 -1.937869931E+01  2.222846758E+02  1.250000000E+02  0.00000E+00  9.000E+00
      21     1     1     2   511   502  2.029847193E+01  2.189487294E+01  5.811412310E+01  6.533501915E+01  1.168007728E-06  0.00000E+00  9.000E+00
#rwgt            1           1   2.7181263612553665E-002           4       44221           0
</event>
<event>
      5   9999  3.79277E-02  7.04635E+01 -1.00000E+00  1.31076E-01
      21    -1     0     0   502   501  0.000000000E+00  0.000000000E+00  2.688657498E+02  2.688657498E+02  0.000000000E+00  0.00000E+00  9.000E+00
      21    -1     0     0   501   512  0.000000000E+00  0.000000000E+00 -2.249362492E+02  2.249362492E+02  0.000000000E+00  0.00000E+00  9.000E+00
      25     1     1     2     0     0 -8.959515817E+01 -4.762182193E+01  1.808604446E+02  2.421376277E+02  1.250000000E+02  0.00000E+00  9.000E+00
      25     1     1     2     0     0  1.927157112E+01  4.318300434E+01 -5.751925823E+01  1.454978707E+02  1.250000000E+02  0.00000E+00  9.000E+00
      21     1     1     2   502   512  7.032358705E+01  4.438817587E+00 -7.941168588E+01  1.061665006E+02  2.336015456E-06  0.00000E+00  9.000E+00
#rwgt            1           1   4.5387740975000146E-002           4       44461           0
</event>
<event>
      5   9999  3.79277E-02  1.45545E+01 -1.00000E+00  1.78626E-01
      21    -1     0     0   502   501  0.000000000E+00  0.000000000E+00  2.072368144E+02  2.072368144E+02  0.000000000E+00  0.00000E+00  9.000E+00
      21    -1     0     0   501   511  0.000000000E+00  0.000000000E+00 -1.635150746E+02  1.635150746E+02  0.000000000E+00  0.00000E+00  9.000E+00
      25     1     1     2     0     0 -1.090068595E+02 -2.861981839E+01  8.117694460E+01  1.868589997E+02  1.250000000E+02  0.00000E+00  9.000E+00
      25     1     1     2     0     0  1.067302738E+02  1.424445347E+01 -3.809762940E+01  1.693242014E+02  1.250000000E+02  0.00000E+00  9.000E+00
      21     1     1     2   502   511  2.276585689E+00  1.437536491E+01  6.424246446E-01  1.456868794E+01  1.154238983E-07  0.00000E+00  9.000E+00
#rwgt            1           1   3.5773610745966522E-002           4       44537           0
</event>
<event>
      5   9999  3.79277E-02  1.58756E+02 -1.00000E+00  1.15425E-01
      21    -1     0     0   502   501  0.000000000E+00  0.000000000E+00  8.812782884E+02  8.812782884E+02  0.000000000E+00  0.00000E+00  9.000E+00
      21    -1     0     0   512   502  0.000000000E+00  0.000000000E+00 -1.232795559E+02  1.232795559E+02  0.000000000E+00  0.00000E+00  9.000E+00
      25     1     1     2     0     0  5.804586379E+01 -1.856045697E+01  5.457024410E+02  5.631429366E+02  1.250000000E+02  0.00000E+00  9.000E+00
      25     1     1     2     0     0 -1.334997150E+02 -1.211179869E+02  1.688665852E+02  2.768260541E+02  1.250000000E+02  0.00000E+00  9.000E+00
      21     1     1     2   512   501  7.545385123E+01  1.396784438E+02  4.342970627E+01  1.645888536E+02  1.907348633E-06  0.00000E+00  9.000E+00
#rwgt            1           1   3.0230173694717831E-002           4       44763           0
</event>
<event>
      5   9999  3.79277E-02  1.15487E+01 -1.00000E+00  1.88796E-01
      21    -1     0     0   502   511  0.000000000E+00  0.000000000E+00  6.426242691E+02  6.426242691E+02  0.000000000E+00  0.00000E+00  9.000E+00
      21    -1     0     0   501   502  0.000000000E+00  0.000000000E+00 -1.502307842E+02  1.502307842E+02  0.000000000E+00  0.00000E+00  9.000E+00
      25     1     1     2     0     0 -1.025767904E+01 -2.681144313E+02  3.200717561E+02  4.359604309E+02  1.250000000E+02  0.00000E+00  9.000E+00
      25     1     1     2     0     0  2.086516859E+01  2.726810293E+02  1.628478943E+02  3.419572132E+02  1.250000000E+02  0.00000E+00  9.000E+00
      21     1     1     2   501   511 -1.060748954E+01 -4.566597970E+00  9.473834574E+00  1.493740918E+01  2.384185791E-07  0.00000E+00  9.000E+00
#rwgt            1           1   3.8314678268889762E-002           4       44791           0
</event>
<event>
      5   9999  3.79277E-02  5.10502E+01 -1.00000E+00  1.38562E-01
      21    -1     0     0   512   501  0.000000000E+00  0.000000000E+00  8.549579957E+01  8.549579957E+01  0.000000000E+00  0.00000E+00  9.000E+00
      21    -1     0     0   501   502  0.000000000E+00  0.000000000E+00 -9.954374864E+02  9.954374864E+02  0.000000000E+00  0.00000E+00  9.000E+00
      25     1     1     2     0     0 -1.643646973E+02  8.235363419E+01 -6.058609160E+02  6.453606157E+02  1.250000000E+02  0.00000E+00  9.000E+00
      25     1     1     2     0     0  2.050537512E+02 -5.152303472E+01 -2.947579924E+02  3.836781699E+02  1.250000000E+02  0.00000E+00  9.000E+00
      21     1     1     2   512   502 -4.068905388E+01 -3.083059947E+01 -9.322778433E+00  5.189450035E+01  3.153981341E-07  0.00000E+00  9.000E+00
#rwgt            1           1   4.3400041471934603E-002           4       45097           0
</event>
<event>
      5   9999  3.79277E-02  2.38203E+01 -1.00000E+00  1.60340E-01
      21    -1     0     0   502   501  0.000000000E+00  0.000000000E+00  4.047870619E+02  4.047870619E+02  0.000000000E+00  0.00000E+00  9.000E+00
      21    -1     0     0   511   502  0.000000000E+00  0.000000000E+00 -4.569142089E+02  4.569142089E+02  0.000000000E+00  0.00000E+00  9.000E+00
      25     1     1     2     0     0  5.103219365E+01 -3.261314856E+02 -2.378930463E+02  4.256572943E+02  1.250000000E+02  0.00000E+00  9.000E+00
      25     1     1     2     0     0 -6.267068076E+01  3.053480726E+02  2.146701660E+02  3.985891868E+02  1.250000000E+02  0.00000E+00  9.000E+00
      21     1     1     2   511   501  1.163848711E+01  2.078341297E+01 -2.890426672E+01  3.745478970E+01  8.920806376E-07  0.00000E+00  9.000E+00
#rwgt            1           1   2.2278978433837110E-002           4       45163           0
</event>
<event>
      5   9999  3.79277E-02  1.41224E+02 -1.00000E+00  1.17441E-01
      21    -1     0     0   512   501  0.000000000E+00  0.000000000E+00  6.841140967E+02  6.841140967E+02  0.000000000E+00  0.00000E+00  9.000E+00
      21    -1     0     0   501   502  0.000000000E+00  0.000000000E+00 -2.999625465E+02  2.999625465E+02  0.000000000E+00  0.00000E+00  9.000E+00
      25     1     1     2     0     0 -3.749895691E+02 -2.966898783E+01 -1.252805344E+01  3.965846415E+02  1.250000000E+02  0.00000E+00  9.000E+00
      25     1     1     2     0     0  2.374097768E+02 -2.207615913E+00  1.615067750E+02  3.131736165E+02  1.250000000E+02  0.00000E+00  9.000E+00
      21     1     1     2   512   502  1.375797923E+02  3.187660375E+01  2.351728287E+02  2.743183852E+02  2.697398305E-06  0.00000E+00  9.000E+00
#rwgt            1           1   6.6650346246217573E-002           4       45401           0
</event>
<event>
      5   9999  3.79277E-02  8.56083E+01 -1.00000E+00  1.26941E-01
      21    -1     0     0   502   501  0.000000000E+00  0.000000000E+00  7.298601544E+01  7.298601544E+01  0.000000000E+00  0.00000E+00  9.000E+00
      21    -1     0     0   501   511  0.000000000E+00  0.000000000E+00 -1.839311754E+03  1.839311754E+03  0.000000000E+00  0.00000E+00  9.000E+00
      25     1     1     2     0     0 -8.281048732E+01  5.879371009E+01 -1.035310778E+03  1.047763181E+03  1.250000000E+02  0.00000E+00  9.000E+00
      25     1     1     2     0     0  7.984465605E+01 -1.443506502E+02 -1.038696614E+02  2.315732841E+02  1.250000000E+02  0.00000E+00  9.000E+00
      21     1     1     2   502   511  2.965831266E+00  8.555694014E+01 -6.271452987E+02  6.329613036E+02  1.078959322E-05  0.00000E+00  9.000E+00
#rwgt            1           1   4.7661037080774626E-002           4       45566           0
</event>
<event>
      5   9999  3.79277E-02  8.15808E+01 -1.00000E+00  1.27940E-01
      21    -1     0     0   512   501  0.000000000E+00  0.000000000E+00  3.342519768E+02  3.342519768E+02  0.000000000E+00  0.00000E+00  9.000E+00
      21    -1     0     0   501   502  0.000000000E+00  0.000000000E+00 -2.238761342E+02  2.238761342E+02  0.000000000E+00  0.00000E+00  9.000E+00
      25     1     1     2     0     0  8.239656422E+01  3.459570911E+01 -1.013511581E+02  1.840736650E+02  1.250000000E+02  0.00000E+00  9.000E+00
      25     1     1     2     0     0 -1.449777072E+02  1.773997900E+01  5.932460128E+01  2.011905832E+02  1.250000000E+02  0.00000E+00  9.000E+00
      21     1     1     2   512   502  6.258114302E+01 -5.233568811E+01  1.524023994E+02  1.728638628E+02  2.697398305E-06  0.00000E+00  9.000E+00
#rwgt            2          11   1.5882092711476190E-003           4       45644           0
</event>
<event>
      5   9999  3.79277E-02  3.96529E+01 -1.00000E+00  1.45075E-01
      21    -1     0     0   502   501  0.000000000E+00  0.000000000E+00  2.127605122E+02  2.127605122E+02  0.000000000E+00  0.00000E+00  9.000E+00
      21    -1     0     0   501   511  0.000000000E+00  0.000000000E+00 -3.132544032E+02  3.132544032E+02  0.000000000E+00  0.00000E+00  9.000E+00
      25     1     1     2     0     0  1.266855469E+01 -2.039158711E+01 -1.038259411E+02  1.642593533E+02  1.250000000E+02  0.00000E+00  9.000E+00
      25     1     1     2     0     0 -2.225553776E+01 -1.808497860E+01  1.571902280E+02  2.028697690E+02  1.250000000E+02  0.00000E+00  9.000E+00
      21     1     1     2   502   511  9.586983072E+00  3.847656571E+01 -1.538581779E+02  1.588857931E+02  2.697398305E-06  0.00000E+00  9.000E+00
#rwgt            1           1   4.9013717828912853E-002           4       45724           0
</event>
<event>
      5   9999  3.79277E-02  6.38754E+01 -1.00000E+00  1.33267E-01
      21    -1     0     0   502   501  0.000000000E+00  0.000000000E+00  2.609910886E+02  2.609910886E+02  0.000000000E+00  0.00000E+00  9.000E+00
       1    -1     0     0   501     0  0.000000000E+00  0.000000000E+00 -1.029816081E+03  1.029816081E+03  0.000000000E+00  0.00000E+00  9.000E+00
      25     1     1     2     0     0  2.705755745E+01  1.657782043E+02  1.914767081E+02  2.837302489E+02  1.250000000E+02  0.00000E+00  9.000E+00
      25     1     1     2     0     0 -2.505111392E+01 -1.019343484E+02 -2.824520334E+02  3.262243413E+02  1.250000000E+02  0.00000E+00  9.000E+00
       1     1     1     2   502     0 -2.006443528E+00 -6.384385587E+01 -6.778496671E+02  6.808525794E+02  7.629394531E-06  0.00000E+00  9.000E+00
#rwgt            1           1   4.7025159192940737E-002           4       45936           0
</event>
<event>
      5   9999  3.79277E-02  4.48231E+01 -1.00000E+00  1.41839E-01
      21    -1     0     0   502   501  0.000000000E+00  0.000000000E+00  7.379190752E+02  7.379190752E+02  0.000000000E+00  0.00000E+00  9.000E+00
      21    -1     0     0   501   511  0.000000000E+00  0.000000000E+00 -4.888437721E+02  4.888437721E+02  0.000000000E+00  0.00000E+00  9.000E+00
      25     1     1     2     0     0  2.707482645E+02  5.667679724E+00  3.541020461E+02  4.629794860E+02  1.250000000E+02  0.00000E+00  9.000E+00
      25     1     1     2     0     0 -2.317880915E+02  1.649576082E+01  2.750049174E+02  3.811174807E+02  1.250000000E+02  0.00000E+00  9.000E+00
      21     1     1     2   502   511 -3.896017302E+01 -2.216344054E+01 -3.800316605E+02  3.826658806E+02  7.629394531E-06  0.00000E+00  9.000E+00
#rwgt            1           1   3.0264296859517367E-002           4       46035           0
</event>
<event>
      5   9999  3.79277E-02  1.77894E+01 -1.00000E+00  1.70679E-01
      21    -1     0     0   502   512  0.000000000E+00  0.000000000E+00  3.451460511E+02  3.451460511E+02  0.000000000E+00  0.00000E+00  9.000E+00
      21    -1     0     0   501   502  0.000000000E+00  0.000000000E+00 -2.203445881E+02  2.203445881E+02  0.000000000E+00  0.00000E+00  9.000E+00
      25     1     1     2     0     0 -1.596638832E+02  9.297932529E+01  1.942069283E+02  2.957685608E+02  1.250000000E+02  0.00000E+00  9.000E+00
      25     1     1     2     0     0  1.668932678E+02 -7.672517661E+01 -9.241652654E+01  2.406365100E+02  1.250000000E+02  0.00000E+00  9.000E+00
      21     1     1     2   501   512 -7.229384544E+00 -1.625414868E+01  2.301106123E+01  2.908556840E+01  4.768371582E-07  0.00000E+00  9.000E+00
#rwgt            1           1   2.6284158450181703E-002           4       46174           0
</event>
<event>
      5   9999  3.79277E-02  5.56746E+01 -1.00000E+00  1.36463E-01
      21    -1     0     0   502   501  0.000000000E+00  0.000000000E+00  2.444628213E+02  2.444628213E+02  0.000000000E+00  0.00000E+00  9.000E+00
      21    -1     0     0   511   502  0.000000000E+00  0.000000000E+00 -7.995011708E+02  7.995011708E+02  0.000000000E+00  0.00000E+00  9.000E+00
      25     1     1     2     0     0  6.476926713E+01  8.802172090E+01  1.595706710E+02  2.302839125E+02  1.250000000E+02  0.00000E+00  9.000E+00
      25     1     1     2     0     0 -5.453175778E+01 -3.329646125E+01 -5.350150712E+01  1.502324140E+02  1.250000000E+02  0.00000E+00  9.000E+00
      21     1     1     2   511   501 -1.023750935E+01 -5.472525965E+01 -6.611075135E+02  6.634476656E+02  7.629394531E-06  0.00000E+00  9.000E+00
#rwgt            1           1   3.3176831317192269E-002           4       46438           0
</event>
<event>
      5   9999  3.79277E-02  1.98311E+01 -1.00000E+00  1.66674E-01
      21    -1     0     0   502   501  0.000000000E+00  0.000000000E+00  7.520435773E+02  7.520435773E+02  0.000000000E+00  0.00000E+00  9.000E+00
      21    -1     0     0   501   512  0.000000000E+00  0.000000000E+00 -1.748342496E+02  1.748342496E+02  0.000000000E+00  0.00000E+00  9.000E+00
      25     1     1     2     0     0 -3.399186122E+00 -1.257043404E+02  1.982563433E+02  2.659769038E+02  1.250000000E+02  0.00000E+00  9.000E+00
      25     1     1     2     0     0 -1.362695050E+01  1.358720744E+02  5.026327876E+02  5.356413292E+02  1.250000000E+02  0.00000E+00  9.000E+00
      21     1     1     2   502   512  1.702613663E+01 -1.016773398E+01 -1.236798032E+02  1.252595939E+02  3.303624740E-06  0.00000E+00  9.000E+00
#rwgt            1           1   4.0771819565497608E-002           4       46591           0
</event>
<event>
      5   9999  3.79277E-02  1.13466E+01 -1.00000E+00  1.89621E-01
      21    -1     0     0   502   501  0.000000000E+00  0.000000000E+00  4.476781426E+02  4.476781426E+02  0.000000000E+00  0.00000E+00  9.000E+00
      21    -1     0     0   511   502  0.000000000E+00  0.000000000E+00 -3.637842766E+02  3.637842766E+02  0.000000000E+00  0.00000E+00  9.000E+00
      25     1     1     2     0     0  2.101287279E+01 -2.320444057E+02  5.503302977E+01  2.700736593E+02  1.250000000E+02  0.00000E+00  9.000E+00
      25     1     1     2     0     0 -3.164082492E+01  2.280705240E+02  2.247397482E+02  3.451814887E+02  1.250000000E+02  0.00000E+00  9.000E+00
      21     1     1     2   511   501  1.062795213E+01  3.973881715E+00 -1.958789120E+02  1.962072712E+02  2.697398305E-06  0.00000E+00  9.000E+00
#rwgt            1           1   4.6281546326720983E-002           4       46806           0
</event>
<event>
      5   9999  3.79277E-02  7.36280E+01 -1.00000E+00  1.30119E-01
      21    -1     0     0   502   501  0.000000000E+00  0.000000000E+00  7.909492124E+01  7.909492124E+01  0.000000000E+00  0.00000E+00  9.000E+00
       2    -1     0     0   501     0  0.000000000E+00  0.000000000E+00 -1.614221716E+03  1.614221716E+03  0.000000000E+00  0.00000E+00  9.000E+00
      25     1     1     2     0     0  8.252909059E+00 -1.744458108E+02 -2.794890947E+02  3.524749714E+02  1.250000000E+02  0.00000E+00  9.000E+00
      25     1     1     2     0     0  4.100710114E+01  2.291680848E+02 -3.841963013E+02  4.662953907E+02  1.250000000E+02  0.00000E+00  9.000E+00
       2     1     1     2   502     0 -4.926001020E+01 -5.472227396E+01 -8.714413984E+02  8.745462748E+02  1.078959322E-05  0.00000E+00  9.000E+00
#rwgt            1           1   4.5080577840028190E-002           4       47078           0
</event>
<event>
      5   9999  3.79277E-02  3.19620E+01 -1.00000E+00  1.51153E-01
      21    -1     0     0   502   501  0.000000000E+00  0.000000000E+00  1.847528628E+02  1.847528628E+02  0.000000000E+00  0.00000E+00  9.000E+00
       1    -1     0     0   501     0  0.000000000E+00  0.000000000E+00 -3.442976717E+02  3.442976717E+02  0.000000000E+00  0.00000E+00  9.000E+00
      25     1     1     2     0     0 -1.327663748E+02 -1.024546550E+02 -2.548108017E+01  2.107086900E+02  1.250000000E+02  0.00000E+00  9.000E+00
      25     1     1     2     0     0  1.487270402E+02  1.301463135E+02 -6.573493190E+01  2.429071359E+02  1.250000000E+02  0.00000E+00  9.000E+00
       1     1     1     2   502     0 -1.596066536E+01 -2.769165845E+01 -6.832879681E+01  7.543470859E+01  9.536743164E-07  0.00000E+00  9.000E+00
#rwgt            1           1   4.1100454521429103E-002           4       47194           0
</event>
<event>
      5   9999 -3.79277E-02  7.79922E+01 -1.00000E+00  1.28886E-01
      21    -1     0     0   502   501  0.000000000E+00  0.000000000E+00  1.481969046E+03  1.481969046E+03  0.000000000E+00  0.00000E+00  9.000E+00
      -1    -1     0     0     0   502  0.000000000E+00  0.000000000E+00 -2.970751773E+02  2.970751773E+02  0.000000000E+00  0.00000E+00  9.000E+00
      25     1     1     2     0     0 -2.044284042E+02 -2.025857980E+02  1.244181811E+03  1.283138869E+03  1.250000000E+02  0.00000E+00  9.000E+00
      25     1     1     2     0     0  2.800510568E+02  1.835070637E+02  5.080686455E+01  3.609844516E+02  1.250000000E+02  0.00000E+00  9.000E+00
      -1     1     1     2     0   501 -7.562265256E+01  1.907873425E+01 -1.100948065E+02  1.349209031E+02  4.046097457E-06  0.00000E+00  9.000E+00
#rwgt            1           1 -0.13012223028527523                4       47364           0
</event>
<event>
      5   9999 -3.79277E-02  8.46895E+01 -1.00000E+00  1.27163E-01
      21    -1     0     0   502   501  0.000000000E+00  0.000000000E+00  8.867219289E+02  8.867219289E+02  0.000000000E+00  0.00000E+00  9.000E+00
      21    -1     0     0   511   502  0.000000000E+00  0.000000000E+00 -3.341116212E+02  3.341116212E+02  0.000000000E+00  0.00000E+00  9.000E+00
      25     1     1     2     0     0  2.347819558E+02  3.132225355E+02  4.757244467E+00  4.109483604E+02  1.250000000E+02  0.00000E+00  9.000E+00
      25     1     1     2     0     0 -1.510366273E+02 -3.258333270E+02  6.000536485E+02  7.104004511E+02  1.250000000E+02  0.00000E+00  9.000E+00
      21     1     1     2   511   501 -8.374532853E+01  1.261079153E+01 -5.220058527E+01  9.948473860E+01  2.431401974E-06  0.00000E+00  9.000E+00
#rwgt            1           1 -0.35295055329758507                4       47529           0
</event>
<event>
      5   9999  3.79277E-02  5.46256E+01 -1.00000E+00  1.36918E-01
      21    -1     0     0   512   501  0.000000000E+00  0.000000000E+00  4.786885077E+02  4.786885077E+02  0.000000000E+00  0.00000E+00  9.000E+00
      21    -1     0     0   501   502  0.000000000E+00  0.000000000E+00 -8.660052688E+01  8.660052688E+01  0.000000000E+00  0.00000E+00  9.000E+00
      25     1     1     2     0     0  9.572126416E+01 -1.249766803E+01  1.372487052E+02  2.092390002E+02  1.250000000E+02  0.00000E+00  9.000E+00
      25     1     1     2     0     0 -1.428796787E+02  4.006650236E+01  1.979250128E+02  2.771628364E+02  1.250000000E+02  0.00000E+00  9.000E+00
      21     1     1     2   512   502  4.715841459E+01 -2.756883433E+01  5.691426287E+01  7.888719801E+01  6.743495762E-07  0.00000E+00  9.000E+00
#rwgt            1           1   4.6803120872147032E-002           4       47639           0
</event>
<event>
      5   9999 -3.79277E-02  5.13467E+01 -1.00000E+00  1.38420E-01
      21    -1     0     0   502   501  0.000000000E+00  0.000000000E+00  1.867959448E+03  1.867959448E+03  0.000000000E+00  0.00000E+00  9.000E+00
       1    -1     0     0   501     0  0.000000000E+00  0.000000000E+00 -6.852151420E+01  6.852151420E+01  0.000000000E+00  0.00000E+00  9.000E+00
      25     1     1     2     0     0 -7.554819964E+01 -8.297300109E+01  8.992952467E+02  9.148491625E+02  1.250000000E+02  0.00000E+00  9.000E+00
      25     1     1     2     0     0  1.268724953E+02  8.449045589E+01  9.375842327E+02  9.580837441E+02  1.250000000E+02  0.00000E+00  9.000E+00
       1     1     1     2   502     0 -5.132429562E+01 -1.517454803E+00 -3.744154586E+01  6.354805541E+01  2.236564522E-06  0.00000E+00  9.000E+00
#rwgt            1           1 -0.12453722131521866                4       47858           0
</event>
<event>
      5   9999  3.79277E-02  7.54050E+01 -1.00000E+00  1.29605E-01
      21    -1     0     0   502   501  0.000000000E+00  0.000000000E+00  1.137065414E+03  1.137065414E+03  0.000000000E+00  0.00000E+00  9.000E+00
       1    -1     0     0   501     0  0.000000000E+00  0.000000000E+00 -1.315191462E+03  1.315191462E+03  0.000000000E+00  0.00000E+00  9.000E+00
      25     1     1     2     0     0  2.948027859E+01  2.110766191E+02  6.041804249E+02  6.527491186E+02  1.250000000E+02  0.00000E+00  9.000E+00
      25     1     1     2     0     0 -8.193360815E+01 -1.569049943E+02  4.843467918E+02  5.306120128E+02  1.250000000E+02  0.00000E+00  9.000E+00
       1     1     1     2   502     0  5.245332956E+01 -5.417162485E+01 -1.266653265E+03  1.268895744E+03  2.642899792E-05  0.00000E+00  9.000E+00
#rwgt            1           1   3.8879124760219333E-002           4       47973           0
</event>
<event>
      5   9999  3.79277E-02  8.07695E+00 -1.00000E+00  2.07128E-01
      21    -1     0     0   502   511  0.000000000E+00  0.000000000E+00  9.605313994E+01  9.605313994E+01  0.000000000E+00  0.00000E+00  9.000E+00
      21    -1     0     0   501   502  0.000000000E+00  0.000000000E+00 -2.533405728E+03  2.533405728E+03  0.000000000E+00  0.00000E+00  9.000E+00
      25     1     1     2     0     0 -8.039630562E+01 -1.413396759E+02 -1.297524099E+03  1.313633989E+03  1.250000000E+02  0.00000E+00  9.000E+00
      25     1     1     2     0     0  7.406757353E+01  1.463580666E+02 -1.218959709E+03  1.236282517E+03  1.250000000E+02  0.00000E+00  9.000E+00
      21     1     1     2   501   511  6.328732088E+00 -5.018390652E+00  7.913122087E+01  7.954236111E+01  3.693564745E-06  0.00000E+00  9.000E+00
#rwgt            1           1   6.1542641693211858E-002           4       48175           0
</event>
<event>
      5   9999  3.79277E-02  2.20411E+01 -1.00000E+00  1.62961E-01
      21    -1     0     0   502   512  0.000000000E+00  0.000000000E+00  3.362271345E+03  3.362271345E+03  0.000000000E+00  0.00000E+00  9.000E+00
      21    -1     0     0   501   502  0.000000000E+00  0.000000000E+00 -8.403178211E+00  8.403178211E+00  0.000000000E+00  0.00000E+00  9.000E+00
      25     1     1     2     0     0  4.055231912E+00  3.502122139E+00  2.351168363E+03  2.354494931E+03  1.250000000E+02  0.00000E+00  9.000E+00
      25     1     1     2     0     0 -2.281137303E+01 -1.507875741E+01  6.318850623E+02  6.447103688E+02  1.250000000E+02  0.00000E+00  9.000E+00
      21     1     1     2   501   512  1.875614112E+01  1.157663528E+01  3.708147417E+02  3.714692235E+02  5.394796609E-06  0.00000E+00  9.000E+00
#rwgt            1           1   2.6239954731477777E-002           4       48526           0
</event>
<event>
      5   9999  3.79277E-02  1.58137E+01 -1.00000E+00  1.75249E-01
      21    -1     0     0   502   501  0.000000000E+00  0.000000000E+00  3.747650441E+02  3.747650441E+02  0.000000000E+00  0.00000E+00  9.000E+00
      21    -1     0     0   511   502  0.000000000E+00  0.000000000E+00 -2.772414757E+02  2.772414757E+02  0.000000000E+00  0.00000E+00  9.000E+00
      25     1     1     2     0     0 -2.187004859E+01  2.280971396E+02  4.769132524E+01  2.653414152E+02  1.250000000E+02  0.00000E+00  9.000E+00
      25     1     1     2     0     0  2.137503320E+01 -2.122912157E+02  1.473611995E+02  2.878624245E+02  1.250000000E+02  0.00000E+00  9.000E+00
      21     1     1     2   511   501  4.950153939E-01 -1.580592395E+01 -9.752895637E+01  9.880268014E+01  0.000000000E+00  0.00000E+00  9.000E+00
#rwgt            1           1   3.4093009516334281E-002           4       48719           0
</event>
<event>
      5   9999  3.79277E-02  2.06372E+01 -1.00000E+00  1.65253E-01
      21    -1     0     0   502   501  0.000000000E+00  0.000000000E+00  4.618787690E+02  4.618787690E+02  0.000000000E+00  0.00000E+00  9.000E+00
      21    -1     0     0   512   502  0.000000000E+00  0.000000000E+00 -3.037800864E+02  3.037800864E+02  0.000000000E+00  0.00000E+00  9.000E+00
      25     1     1     2     0     0 -6.322323590E+01  4.726535010E+01  3.707247193E+02  3.991152820E+02  1.250000000E+02  0.00000E+00  9.000E+00
      25     1     1     2     0     0  7.672189803E+01 -3.165506729E+01  2.860015050E+00  1.500715583E+02  1.250000000E+02  0.00000E+00  9.000E+00
      21     1     1     2   512   501 -1.349866212E+01 -1.561028281E+01 -2.154860518E+02  2.164720151E+02  0.000000000E+00  0.00000E+00  9.000E+00
#rwgt            1           1   3.9855443926779532E-002           4       49286           0
</event>
<event>
      5   9999  3.79277E-02  1.88224E+01 -1.00000E+00  1.68573E-01
      21    -1     0     0   502   511  0.000000000E+00  0.000000000E+00  2.636373428E+02  2.636373428E+02  0.000000000E+00  0.00000E+00  9.000E+00
      21    -1     0     0   501   502  0.000000000E+00  0.000000000E+00 -3.011542553E+02  3.011542553E+02  0.000000000E+00  0.00000E+00  9.000E+00
      25     1     1     2     0     0 -7.018805229E+01 -4.803088719E+01 -2.429376577E+02  2.861416333E+02  1.250000000E+02  0.00000E+00  9.000E+00
      25     1     1     2     0     0  5.531343705E+01  5.956474850E+01  1.206205685E+02  1.917859670E+02  1.250000000E+02  0.00000E+00  9.000E+00
      21     1     1     2   501   511  1.487461524E+01 -1.153386131E+01  8.480017677E+01  8.686399781E+01  1.348699152E-06  0.00000E+00  9.000E+00
#rwgt            1           1   4.2510244414382864E-002           4       49487           0
</event>
<event>
      5   9999  3.79277E-02  8.62654E+01 -1.00000E+00  1.26784E-01
      21    -1     0     0   502   501  0.000000000E+00  0.000000000E+00  4.163427663E+02  4.163427663E+02  0.000000000E+00  0.00000E+00  9.000E+00
       2    -1     0     0   501     0  0.000000000E+00  0.000000000E+00 -4.512605375E+02  4.512605375E+02  0.000000000E+00  0.00000E+00  9.000E+00
      25     1     1     2     0     0 -1.284374764E+02 -8.405662403E+01 -1.305257034E+02  2.371152898E+02  1.250000000E+02  0.00000E+00  9.000E+00
      25     1     1     2     0     0  5.160644283E+01  1.232830490E+02  3.318651789E+02  3.789741839E+02  1.250000000E+02  0.00000E+00  9.000E+00
       2     1     1     2   502     0  7.683103361E+01 -3.922642499E+01 -2.362572467E+02  2.515138302E+02  3.814697266E-06  0.00000E+00  9.000E+00
#rwgt            1           1   2.7412690931673447E-002           4       49720           0
</event>
<event>
      5   9999  3.79277E-02  1.04716E+02 -1.00000E+00  1.22934E-01
      21    -1     0     0   502   501  0.000000000E+00  0.000000000E+00  1.492118479E+03  1.492118479E+03  0.000000000E+00  0.00000E+00  9.000E+00
      21    -1     0     0   501   511  0.000000000E+00  0.000000000E+00 -9.526611280E+01  9.526611280E+01  0.000000000E+00  0.00000E+00  9.000E+00
      25     1     1     2     0     0  5.961056000E+01  2.628272432E+02  6.245481372E+02  6.916046228E+02  1.250000000E+02  0.00000E+00  9.000E+00
      25     1     1     2     0     0 -1.635719746E+02 -2.753785744E+02  6.452206325E+02  7.311113559E+02  1.250000000E+02  0.00000E+00  9.000E+00
      21     1     1     2   502   511  1.039614146E+02  1.255133118E+01  1.270835965E+02  1.646686131E+02  2.697398305E-06  0.00000E+00  9.000E+00
#rwgt            1           1   2.8237591357012131E-002           4       49853           0
</event>
<event>
      5   9999  3.79277E-02  4.78904E+01 -1.00000E+00  1.40152E-01
      21    -1     0     0   502   501  0.000000000E+00  0.000000000E+00  1.580728070E+02  1.580728070E+02  0.000000000E+00  0.00000E+00  9.000E+00
      21    -1     0     0   501   512  0.000000000E+00  0.000000000E+00 -1.095634445E+03  1.095634445E+03  0.000000000E+00  0.00000E+00  9.000E+00
      25     1     1     2     0     0 -5.794719906E+01 -8.304964443E+01  7.214510078E+01  1.763094918E+02  1.250000000E+02  0.00000E+00  9.000E+00
      25     1     1     2     0     0  1.006992154E+01  8.417235489E+01 -1.386481068E+02  2.050236235E+02  1.250000000E+02  0.00000E+00  9.000E+00
      21     1     1     2   502   512  4.787727753E+01 -1.122710453E+00 -8.710586318E+02  8.723741366E+02  1.078959322E-05  0.00000E+00  9.000E+00
#rwgt            1           1   3.6491441636350867E-002           4       49935           0
</event>
<event>
      5   9999  3.79277E-02  2.04076E+01 -1.00000E+00  1.65649E-01
      21    -1     0     0   502   511  0.000000000E+00  0.000000000E+00  1.625549340E+03  1.625549340E+03  0.000000000E+00  0.00000E+00  9.000E+00
      21    -1     0     0   501   502  0.000000000E+00  0.000000000E+00 -5.492196633E+01  5.492196633E+01  0.000000000E+00  0.00000E+00  9.000E+00
      25     1     1     2     0     0 -1.850403811E+01 -3.050744321E+01  3.356780499E+01  1.342568473E+02  1.250000000E+02  0.00000E+00  9.000E+00
      25     1     1     2     0     0  3.005571122E+01  4.733095509E+01  1.073579070E+03  1.082284891E+03  1.250000000E+02  0.00000E+00  9.000E+00
      21     1     1     2   501   511 -1.155167312E+01 -1.682351188E+01  4.634804987E+02  4.639295683E+02  9.344061824E-06  0.00000E+00  9.000E+00
#rwgt            1           1   4.3987013982044153E-002           4       50238           0
</event>
<event>
      5   9999  3.79277E-02  1.13288E+02 -1.00000E+00  1.21439E-01
      21    -1     0     0   502   512  0.000000000E+00  0.000000000E+00  3.141806506E+02  3.141806506E+02  0.000000000E+00  0.00000E+00  9.000E+00
      21    -1     0     0   501   502  0.000000000E+00  0.000000000E+00 -3.980193865E+02  3.980193865E+02  0.000000000E+00  0.00000E+00  9.000E+00
      25     1     1     2     0     0  1.414381761E+02 -1.732531050E+02  1.019666884E+00  2.562175555E+02  1.250000000E+02  0.00000E+00  9.000E+00
      25     1     1     2     0     0 -2.135671263E+02  8.589355165E+01 -1.717332280E+02  3.132186477E+02  1.250000000E+02  0.00000E+00  9.000E+00
      21     1     1     2   501   512  7.212895020E+01  8.735955332E+01  8.687482517E+01  1.427638339E+02  1.348699152E-06  0.00000E+00  9.000E+00
#rwgt            1           1   2.4573583457569360E-002           4       50442           0
</event>
<event>
      5   9999  3.79277E-02  4.72573E+00 -1.00000E+00  2.47499E-01
      21    -1     0     0   511   501  0.000000000E+00  0.000000000E+00  7.052669919E+01  7.052669919E+01  0.000000000E+00  0.00000E+00  9.000E+00
      21    -1     0     0   501   502  0.000000000E+00  0.000000000E+00 -6.583404171E+02  6.583404171E+02  0.000000000E+00  0.00000E+00  9.000E+00
      25     1     1     2     0     0 -3.172312619E+01 -9.893370062E+01 -5.167707408E+02  5.417298518E+02  1.250000000E+02  0.00000E+00  9.000E+00
      25     1     1     2     0     0  3.644853570E+01  9.887894270E+01 -7.599377244E+01  1.802930795E+02  1.250000000E+02  0.00000E+00  9.000E+00
      21     1     1     2   511   502 -4.725409514E+00  5.475792137E-02  4.950795315E+00  6.844184960E+00  2.230201594E-07  0.00000E+00  9.000E+00
#rwgt            1           1   5.3028594064633144E-002           4       50611           0
</event>
<event>
      5   9999  3.79277E-02  6.11762E+01 -1.00000E+00  1.34254E-01
      21    -1     0     0   502   501  0.000000000E+00  0.000000000E+00  6.611001075E+02  6.611001075E+02  0.000000000E+00  0.00000E+00  9.000E+00
      21    -1     0     0   512   502  0.000000000E+00  0.000000000E+00 -1.288707457E+02  1.288707457E+02  0.000000000E+00  0.00000E+00  9.000E+00
      25     1     1     2     0     0  1.482398055E+02 -1.036922207E+02  3.279331256E+02  3.948319281E+02  1.250000000E+02  0.00000E+00  9.000E+00
      25     1     1     2     0     0 -9.593714133E+01  1.354248056E+02  2.453192741E+02  3.214815069E+02  1.250000000E+02  0.00000E+00  9.000E+00
      21     1     1     2   512   501 -5.230266419E+01 -3.173258496E+01 -4.102303777E+01  7.365741821E+01  1.168007728E-06  0.00000E+00  9.000E+00
#rwgt            1           1   2.5457032028855735E-002           4       50932           0
</event>
<event>
      5   9999  3.79277E-02  3.62388E+01 -1.00000E+00  1.47551E-01
      21    -1     0     0   502   501  0.000000000E+00  0.000000000E+00  2.575912300E+01  2.575912300E+01  0.000000000E+00  0.00000E+00  9.000E+00
      21    -1     0     0   511   502  0.000000000E+00  0.000000000E+00 -1.654370941E+03  1.654370941E+03  0.000000000E+00  0.00000E+00  9.000E+00
      25     1     1     2     0     0 -3.895200346E+01 -1.160846172E+02 -4.646430123E+02  4.964987672E+02  1.250000000E+02  0.00000E+00  9.000E+00
      25     1     1     2     0     0  4.080416899E+00  1.259449452E+02 -9.172341081E+02  9.342495320E+02  1.250000000E+02  0.00000E+00  9.000E+00
      21     1     1     2   511   501  3.487158656E+01 -9.860328007E+00 -2.467346976E+02  2.493817648E+02  0.000000000E+00  0.00000E+00  9.000E+00
#rwgt            1           1   4.6127899721195791E-002           4       51004           0
</event>
<event>
      5   9999  3.79277E-02  3.14664E+01 -1.00000E+00  1.51614E-01
      21    -1     0     0   512   501  0.000000000E+00  0.000000000E+00  6.877085629E+01  6.877085629E+01  0.000000000E+00  0.00000E+00  9.000E+00
      21    -1     0     0   501   502  0.000000000E+00  0.000000000E+00 -6.296715653E+02  6.296715653E+02  0.000000000E+00  0.00000E+00  9.000E+00
      25     1     1     2     0     0 -1.068553796E+02 -7.442910407E+01 -2.999473394E+02  3.500730925E+02  1.250000000E+02  0.00000E+00  9.000E+00
      25     1     1     2     0     0  1.101303035E+02  1.057246145E+02 -2.393868678E+02  3.102216149E+02  1.250000000E+02  0.00000E+00  9.000E+00
      21     1     1     2   512   502 -3.274923840E+00 -3.129551043E+01 -2.156650181E+01  3.814771421E+01  4.129530925E-07  0.00000E+00  9.000E+00
#rwgt            1           1   3.8692275304939364E-002           4       51134           0
</event>
<event>
      5   9999  3.79277E-02  1.98566E+01 -1.00000E+00  1.66627E-01
      21    -1     0     0   511   501  0.000000000E+00  0.000000000E+00  1.106187196E+02  1.106187196E+02  0.000000000E+00  0.00000E+00  9.000E+00
      21    -1     0     0   501   502  0.000000000E+00  0.000000000E+00 -5.701599077E+02  5.701599077E+02  0.000000000E+00  0.00000E+00  9.000E+00
      25     1     1     2     0     0 -1.932389483E+02  7.229083747E+01 -1.629030410E+02  2.910835912E+02  1.250000000E+02  0.00000E+00  9.000E+00
      25     1     1     2     0     0  1.755136022E+02 -6.334121326E+01 -2.935293761E+02  3.695965754E+02  1.250000000E+02  0.00000E+00  9.000E+00
      21     1     1     2   511   502  1.772534604E+01 -8.949624210E+00 -3.108770894E+00  2.009846069E+01  4.823927300E-07  0.00000E+00  9.000E+00
#rwgt            1           1   3.6776579871797201E-002           4       51251           0
</event>
<event>
      5   9999  3.79277E-02  1.08601E+02 -1.00000E+00  1.22237E-01
      21    -1     0     0   502   501  0.000000000E+00  0.000000000E+00  4.741823142E+02  4.741823142E+02  0.000000000E+00  0.00000E+00  9.000E+00
      21    -1     0     0   501   512  0.000000000E+00  0.000000000E+00 -2.478201221E+02  2.478201221E+02  0.000000000E+00  0.00000E+00  9.000E+00
      25     1     1     2     0     0 -4.150353195E+01  2.835663581E+02  6.742987076E+01  3.198502932E+02  1.250000000E+02  0.00000E+00  9.000E+00
      25     1     1     2     0     0  1.551417172E+01 -1.781208389E+02  1.898901053E+02  2.892247826E+02  1.250000000E+02  0.00000E+00  9.000E+00
      21     1     1     2   502   512  2.598936023E+01 -1.054455191E+02 -3.095778392E+01  1.129273605E+02  1.261592536E-06  0.00000E+00  9.000E+00
#rwgt            1           1   3.7046064154372914E-002           4       51473           0
</event>
<event>
      5   9999  3.79277E-02  7.23628E+01 -1.00000E+00  1.30495E-01
      21    -1     0     0   502   511  0.000000000E+00  0.000000000E+00  9.787457132E+02  9.787457132E+02  0.000000000E+00  0.00000E+00  9.000E+00
      21    -1     0     0   501   502  0.000000000E+00  0.000000000E+00 -2.253166369E+02  2.253166369E+02  0.000000000E+00  0.00000E+00  9.000E+00
      25     1     1     2     0     0  8.891448246E+01 -1.050964307E+02 -1.033380979E+02  2.127317734E+02  1.250000000E+02  0.00000E+00  9.000E+00
      25     1     1     2     0     0 -1.521909810E+02  1.402029204E+02  1.579504712E+02  2.887772584E+02  1.250000000E+02  0.00000E+00  9.000E+00
      21     1     1     2   501   511  6.327649858E+01 -3.510648970E+01  6.988167030E+02  7.025533184E+02  0.000000000E+00  0.00000E+00  9.000E+00
#rwgt            1           1   4.2677467845807150E-002           4       51567           0
</event>
<event>
      5   9999  3.79277E-02  2.50167E+01 -1.00000E+00  1.58729E-01
      21    -1     0     0   502   501  0.000000000E+00  0.000000000E+00  6.456930327E+02  6.456930327E+02  0.000000000E+00  0.00000E+00  9.000E+00
      21    -1     0     0   512   502  0.000000000E+00  0.000000000E+00 -1.017748556E+02  1.017748556E+02  0.000000000E+00  0.00000E+00  9.000E+00
      25     1     1     2     0     0  1.255690206E+02 -9.205457827E+01  6.933669169E+01  2.113627241E+02  1.250000000E+02  0.00000E+00  9.000E+00
      25     1     1     2     0     0 -1.067962422E+02  1.085900110E+02  4.713572721E+02  5.108814988E+02  1.250000000E+02  0.00000E+00  9.000E+00
      21     1     1     2   512   501 -1.877277846E+01 -1.653543270E+01  3.224213354E+00  2.522366542E+01  4.878850443E-07  0.00000E+00  9.000E+00
#rwgt            1           1   4.2478283717689698E-002           4       51644           0
</event>
<event>
      5   9999  3.79277E-02  3.90075E+01 -1.00000E+00  1.45520E-01
      21    -1     0     0   502   501  0.000000000E+00  0.000000000E+00  7.919451201E+02  7.919451201E+02  0.000000000E+00  0.00000E+00  9.000E+00
      21    -1     0     0   501   511  0.000000000E+00  0.000000000E+00 -2.423575729E+02  2.423575729E+02  0.000000000E+00  0.00000E+00  9.000E+00
      25     1     1     2     0     0 -6.515241871E+01  1.481596173E+02  1.463178679E+02  2.514558179E+02  1.250000000E+02  0.00000E+00  9.000E+00
      25     1     1     2     0     0  6.216988053E+01 -1.870528833E+02  5.677229211E+02  6.138307506E+02  1.250000000E+02  0.00000E+00  9.000E+00
      21     1     1     2   502   511  2.982538181E+00  3.889326598E+01 -1.644532417E+02  1.690161246E+02  3.814697266E-06  0.00000E+00  9.000E+00
#rwgt            1           1   4.3606522978161248E-002           4       52046           0
</event>
<event>
      5   9999  3.79277E-02  1.81744E+01 -1.00000E+00  1.69874E-01
      21    -1     0     0   502   512  0.000000000E+00  0.000000000E+00  3.818553454E+02  3.818553454E+02  0.000000000E+00  0.00000E+00  9.000E+00
      21    -1     0     0   501   502  0.000000000E+00  0.000000000E+00 -1.980019130E+02  1.980019130E+02  0.000000000E+00  0.00000E+00  9.000E+00
      25     1     1     2     0     0 -2.269295099E+01 -8.626207430E+01  2.466235717E+02  2.905241842E+02  1.250000000E+02  0.00000E+00  9.000E+00
      25     1     1     2     0     0  1.194461355E+01  7.160657402E+01 -1.452222785E+02  2.049016482E+02  1.250000000E+02  0.00000E+00  9.000E+00
      21     1     1     2   501   512  1.074833744E+01  1.465550027E+01  8.245213914E+01  8.443142599E+01  1.348699152E-06  0.00000E+00  9.000E+00
#rwgt            2          11   6.7038135182462451E-004           4       52176           0
</event>
<event>
      5   9999  3.79277E-02  8.65418E+01 -1.00000E+00  1.26719E-01
      21    -1     0     0   502   511  0.000000000E+00  0.000000000E+00  4.945974325E+02  4.945974325E+02  0.000000000E+00  0.00000E+00  9.000E+00
      21    -1     0     0   501   502  0.000000000E+00  0.000000000E+00 -1.943244010E+02  1.943244010E+02  0.000000000E+00  0.00000E+00  9.000E+00
      25     1     1     2     0     0  1.450281383E+02  2.449108750E+01  5.621460989E+01  2.010424249E+02  1.250000000E+02  0.00000E+00  9.000E+00
      25     1     1     2     0     0 -1.909541581E+02  4.885936356E+01  4.799166027E+00  2.334496946E+02  1.250000000E+02  0.00000E+00  9.000E+00
      21     1     1     2   501   511  4.592601981E+01 -7.335045106E+01  2.392592556E+02  2.544297140E+02  0.000000000E+00  0.00000E+00  9.000E+00
#rwgt            1           1   3.8656500839517473E-002           4       52196           0
</event>
<event>
      5   9999  3.79277E-02  3.76483E+00 -1.00000E+00  2.69829E-01
      21    -1     0     0   502   501  0.000000000E+00  0.000000000E+00  1.573579085E+01  1.573579085E+01  0.000000000E+00  0.00000E+00  9.000E+00
      21    -1     0     0   512   502  0.000000000E+00  0.000000000E+00 -2.054358715E+03  2.054358715E+03  0.000000000E+00  0.00000E+00  9.000E+00
      25     1     1     2     0     0 -6.106618485E+01 -2.211036742E+01 -4.137850889E+02  4.371053043E+02  1.250000000E+02  0.00000E+00  9.000E+00
      25     1     1     2     0     0  6.238031417E+01  1.858233540E+01 -1.216833829E+03  1.224967826E+03  1.250000000E+02  0.00000E+00  9.000E+00
      21     1     1     2   512   501 -1.314129323E+00  3.528032018E+00 -4.080040056E+02  4.080213751E+02  5.394796609E-06  0.00000E+00  9.000E+00
#rwgt            1           1  0.12013182583727539                4       52275           0
</event>
<event>
      5   9999  3.79277E-02  7.40521E+01 -1.00000E+00  1.29995E-01
      21    -1     0     0   502   511  0.000000000E+00  0.000000000E+00  5.834925469E+02  5.834925469E+02  0.000000000E+00  0.00000E+00  9.000E+00
      21    -1     0     0   501   502  0.000000000E+00  0.000000000E+00 -1.918806434E+02  1.918806434E+02  0.000000000E+00  0.00000E+00  9.000E+00
      25     1     1     2     0     0  1.195509549E+02  2.702626923E+00 -9.121088736E+01  1.955611438E+02  1.250000000E+02  0.00000E+00  9.000E+00
      25     1     1     2     0     0 -1.451861559E+02 -7.217598816E+01  1.954242778E+02  2.830265739E+02  1.250000000E+02  0.00000E+00  9.000E+00
      21     1     1     2   501   511  2.563520108E+01  6.947336124E+01  2.873985130E+02  2.967854726E+02  0.000000000E+00  0.00000E+00  9.000E+00
#rwgt            1           1   3.8500399801879304E-002           4       52739           0
</event>
<event>
      5   9999  3.79277E-02  3.89595E+01 -1.00000E+00  1.45554E-01
      21    -1     0     0   502   501  0.000000000E+00  0.000000000E+00  1.032113863E+02  1.032113863E+02  0.000000000E+00  0.00000E+00  9.000E+00
      21    -1     0     0   501   512  0.000000000E+00  0.000000000E+00 -7.895463387E+02  7.895463387E+02  0.000000000E+00  0.00000E+00  9.000E+00
      25     1     1     2     0     0  1.117130596E+02  1.505405273E+02 -5.078022695E+02  5.555451404E+02  1.250000000E+02  0.00000E+00  9.000E+00
      25     1     1     2     0     0 -1.061958527E+02 -1.119736841E+02 -5.267620235E+01  2.054639807E+02  1.250000000E+02  0.00000E+00  9.000E+00
      21     1     1     2   502   512 -5.517206831E+00 -3.856684321E+01 -1.258564805E+02  1.317486040E+02  0.000000000E+00  0.00000E+00  9.000E+00
#rwgt            1           1   3.8318687381249480E-002           4       52818           0
</event>
<event>
      5   9999  3.79277E-02  2.32833E+01 -1.00000E+00  1.61100E-01
      21    -1     0     0   502   501  0.000000000E+00  0.000000000E+00  1.098036133E+02  1.098036133E+02  0.000000000E+00  0.00000E+00  9.000E+00
      -4    -1     0     0     0   502  0.000000000E+00  0.000000000E+00 -1.853627608E+03  1.853627608E+03  0.000000000E+00  0.00000E+00  9.000E+00
      25     1     1     2     0     0 -2.294855637E+02  1.221707055E+01 -2.191045345E+02  3.412399124E+02  1.250000000E+02  0.00000E+00  9.000E+00
      25     1     1     2     0     0  2.208360663E+02  9.400058292E+00 -2.828875728E+02  3.801411687E+02  1.250000000E+02  0.00000E+00  9.000E+00
      -4     1     1     2     0   501  8.649497444E+00 -2.161712884E+01 -1.241831887E+03  1.242050140E+03  2.157918644E-05  0.00000E+00  9.000E+00
#rwgt            1           1   4.3890917666748644E-002           4       52989           0
</event>
<event>
      5   9999  3.79277E-02  1.50313E+02 -1.00000E+00  1.16358E-01
      21    -1     0     0   502   501  0.000000000E+00  0.000000000E+00  8.989087709E+01  8.989087709E+01  0.000000000E+00  0.00000E+00  9.000E+00
      21    -1     0     0   511   502  0.000000000E+00  0.000000000E+00 -1.233671400E+03  1.233671400E+03  0.000000000E+00  0.00000E+00  9.000E+00
      25     1     1     2     0     0  3.326747918E+00 -2.125387953E+02 -1.662547467E+02  2.974045184E+02  1.250000000E+02  0.00000E+00  9.000E+00
      25     1     1     2     0     0 -6.748916665E+01  7.660758751E+01 -4.785703618E+02  5.050525728E+02  1.250000000E+02  0.00000E+00  9.000E+00
      21     1     1     2   511   501  6.416241873E+01  1.359312078E+02 -4.989554141E+02  5.211051856E+02  7.629394531E-06  0.00000E+00  9.000E+00
#rwgt            1           1   3.7006008521434534E-002           4       53196           0
</event>
<event>
      5   9999  3.79277E-02  2.37898E+01 -1.00000E+00  1.60382E-01
      21    -1     0     0   502   501  0.000000000E+00  0.000000000E+00  2.706145358E+03  2.706145358E+03  0.000000000E+00  0.00000E+00  9.000E+00
      21    -1     0     0   512   502  0.000000000E+00  0.000000000E+00 -5.137390958E+01  5.137390958E+01  0.000000000E+00  0.00000E+00  9.000E+00
      25     1     1     2     0     0 -1.194583938E+02 -7.932721414E+01  1.016762023E+03  1.034404721E+03  1.250000000E+02  0.00000E+00  9.000E+00
      25     1     1     2     0     0  1.317070441E+02  5.893300840E+01  1.671316357E+03  1.682184059E+03  1.250000000E+02  0.00000E+00  9.000E+00
      21     1     1     2   512   501 -1.224865025E+01  2.039420574E+01 -3.330693188E+01  4.093048707E+01  3.568322551E-06  0.00000E+00  9.000E+00
#rwgt            1           1   5.9972894375859072E-002           4       53251           0
</event>
<event>
      5   9999  3.79277E-02  2.47246E+01 -1.00000E+00  1.59112E-01
      21    -1     0     0   511   501  0.000000000E+00  0.000000000E+00  2.877730763E+03  2.877730763E+03  0.000000000E+00  0.00000E+00  9.000E+00
      21    -1     0     0   501   502  0.000000000E+00  0.000000000E+00 -2.025239878E+01  2.025239878E+01  0.000000000E+00  0.00000E+00  9.000E+00
      25     1     1     2     0     0 -7.363302162E+01 -1.488448764E+02  1.405220479E+03  1.420509138E+03  1.250000000E+02  0.00000E+00  9.000E+00
      25     1     1     2     0     0  6.682693744E+01  1.250755110E+02  7.078918127E+02  7.326974420E+02  1.250000000E+02  0.00000E+00  9.000E+00
      21     1     1     2   511   502  6.806084184E+00  2.376936547E+01  7.443660727E+02  7.447765811E+02  1.078959322E-05  0.00000E+00  9.000E+00
#rwgt            1           1   5.2618644900660719E-002           4       53370           0
</event>
<event>
      5   9999  3.79277E-02  6.76814E+01 -1.00000E+00  1.31966E-01
      21    -1     0     0   502   501  0.000000000E+00  0.000000000E+00  1.173038210E+03  1.173038210E+03  0.000000000E+00  0.00000E+00  9.000E+00
      21    -1     0     0   512   502  0.000000000E+00  0.000000000E+00 -1.237405642E+02  1.237405642E+02  0.000000000E+00  0.00000E+00  9.000E+00
      25     1     1     2     0     0  2.148102354E+01  1.125847271E+02  2.080389168E+02  2.684063078E+02  1.250000000E+02  0.00000E+00  9.000E+00
      25     1     1     2     0     0 -5.322384650E+01 -1.723606294E+02  9.075052320E+02  9.336657381E+02  1.250000000E+02  0.00000E+00  9.000E+00
      21     1     1     2   512   501  3.174282295E+01  5.977590225E+01 -6.624650275E+01  9.470672851E+01  4.046097457E-06  0.00000E+00  9.000E+00
#rwgt            1           1   3.7136918855998298E-002           4       53582           0
</event>
<event>
      5   9999  3.79277E-02  2.05292E+01 -1.00000E+00  1.65439E-01
      21    -1     0     0   511   501  0.000000000E+00  0.000000000E+00  7.867488187E+01  7.867488187E+01  0.000000000E+00  0.00000E+00  9.000E+00
      21    -1     0     0   501   502  0.000000000E+00  0.000000000E+00 -8.143806061E+02  8.143806061E+02  0.000000000E+00  0.00000E+00  9.000E+00
      25     1     1     2     0     0 -1.751464837E+02  4.316011842E+01 -3.759038878E+02  4.352790133E+02  1.250000000E+02  0.00000E+00  9.000E+00
      25     1     1     2     0     0  1.816529312E+02 -6.263093920E+01 -3.696901789E+02  4.349899428E+02  1.250000000E+02  0.00000E+00  9.000E+00
      21     1     1     2   511   502 -6.506447532E+00  1.947082078E+01  9.888342414E+00  2.278653192E+01  6.419616708E-07  0.00000E+00  9.000E+00
#rwgt            1           1   4.3582094490943774E-002           4       53701           0
</event>
<event>
      5   9999  4.38379E-02  2.98411E+01 -1.00000E+00  1.53200E-01
      21    -1     0     0   502   501  0.000000000E+00  0.000000000E+00  1.172998205E+03  1.172998205E+03  0.000000000E+00  0.00000E+00  9.000E+00
      21    -1     0     0   512   502  0.000000000E+00  0.000000000E+00 -3.983214481E+01  3.983214481E+01  0.000000000E+00  0.00000E+00  9.000E+00
      25     1     1     2     0     0  8.501944203E+01 -9.682205152E+01  6.448103152E+02  6.693341152E+02  1.250000000E+02  0.00000E+00  9.000E+00
      25     1     1     2     0     0 -6.854193793E+01  1.217014768E+02  4.752982633E+02  5.109233659E+02  1.250000000E+02  0.00000E+00  9.000E+00
      21     1     1     2   512   501 -1.647750410E+01 -2.487942530E+01  1.305748157E+01  3.257286861E+01  0.000000000E+00  0.00000E+00  9.000E+00
#rwgt            1           1  0.58882894153840915                4       53870           0
</event>
<event>
      5   9999  3.79277E-02  5.59977E+01 -1.00000E+00  1.36325E-01
      21    -1     0     0   502   501  0.000000000E+00  0.000000000E+00  2.091036185E+02  2.091036185E+02  0.000000000E+00  0.00000E+00  9.000E+00
      21    -1     0     0   511   502  0.000000000E+00  0.000000000E+00 -4.683017983E+02  4.683017983E+02  0.000000000E+00  0.00000E+00  9.000E+00
      25     1     1     2     0     0 -4.895391688E+01 -1.259239164E+02 -3.275247899E+02  3.757004215E+02  1.250000000E+02  0.00000E+00  9.000E+00
      25     1     1     2     0     0  1.030346471E+02  1.113974322E+02  1.159082763E+02  2.282219422E+02  1.250000000E+02  0.00000E+00  9.000E+00
      21     1     1     2   511   501 -5.408073022E+01  1.452648421E+01 -4.758166624E+01  7.348305306E+01  6.743495762E-07  0.00000E+00  9.000E+00
#rwgt            1           1   3.1627573612910936E-002           4       54046           0
</event>
<event>
      5   9999  3.79277E-02  1.73956E+02 -1.00000E+00  1.13899E-01
      21    -1     0     0   502   512  0.000000000E+00  0.000000000E+00  1.916360513E+03  1.916360513E+03  0.000000000E+00  0.00000E+00  9.000E+00
      21    -1     0     0   501   502  0.000000000E+00  0.000000000E+00 -6.214820699E+01  6.214820699E+01  0.000000000E+00  0.00000E+00  9.000E+00
      25     1     1     2     0     0  1.348379056E+02 -1.418278362E+02  9.468610770E+02  9.749191223E+02  1.250000000E+02  0.00000E+00  9.000E+00
      25     1     1     2     0     0  3.207794967E+01  1.908154165E+02  3.441078267E+02  4.140950548E+02  1.250000000E+02  0.00000E+00  9.000E+00
      21     1     1     2   501   512 -1.669158553E+02 -4.898758039E+01  5.632434022E+02  5.894945427E+02  7.629394531E-06  0.00000E+00  9.000E+00
#rwgt            1           1   4.0233613400227498E-002           4       54132           0
</event>
<event>
      5   9999  3.79277E-02  3.28753E+01 -1.00000E+00  1.50329E-01
      21    -1     0     0   511   501  0.000000000E+00  0.000000000E+00  1.214340204E+02  1.214340204E+02  0.000000000E+00  0.00000E+00  9.000E+00
      21    -1     0     0   501   502  0.000000000E+00  0.000000000E+00 -3.357256334E+02  3.357256334E+02  0.000000000E+00  0.00000E+00  9.000E+00
      25     1     1     2     0     0 -3.672569559E+01 -6.904474838E+01 -2.229759618E+02  2.673185993E+02  1.250000000E+02  0.00000E+00  9.000E+00
      25     1     1     2     0     0  6.642844608E+01  5.495459217E+01  2.372234341E+01  1.536896068E+02  1.250000000E+02  0.00000E+00  9.000E+00
      21     1     1     2   511   502 -2.970275049E+01  1.409015622E+01 -1.503799464E+01  3.615144772E+01  5.057621821E-07  0.00000E+00  9.000E+00
#rwgt            1           1   3.7975538600569035E-002           4       54237           0
</event>
<event>
      5   9999  3.79277E-02  3.86136E+01 -1.00000E+00  1.45797E-01
      21    -1     0     0   502   501  0.000000000E+00  0.000000000E+00  3.625430203E+02  3.625430203E+02  0.000000000E+00  0.00000E+00  9.000E+00
      21    -1     0     0   501   512  0.000000000E+00  0.000000000E+00 -2.446549925E+02  2.446549925E+02  0.000000000E+00  0.00000E+00  9.000E+00
      25     1     1     2     0     0  1.437581625E+02 -1.508868764E+01  2.537335569E+02  3.176472819E+02  1.250000000E+02  0.00000E+00  9.000E+00
      25     1     1     2     0     0 -1.711420211E+02  4.231243486E+01 -1.057792374E+02  2.406120957E+02  1.250000000E+02  0.00000E+00  9.000E+00
      21     1     1     2   502   512  2.738385861E+01 -2.722374721E+01 -3.006629165E+01  4.893863523E+01  3.371747881E-07  0.00000E+00  9.000E+00
#rwgt            1           1   4.6342657757661720E-002           4       54365           0
</event>
<event>
      5   9999  3.79277E-02  2.89341E+01 -1.00000E+00  1.54139E-01
      21    -1     0     0   502   501  0.000000000E+00  0.000000000E+00  5.050955529E+02  5.050955529E+02  0.000000000E+00  0.00000E+00  9.000E+00
      21    -1     0     0   511   502  0.000000000E+00  0.000000000E+00 -4.655216631E+02  4.655216631E+02  0.000000000E+00  0.00000E+00  9.000E+00
      25     1     1     2     0     0 -8.092977148E+01 -2.263501522E+01  7.257508429E+00  1.507966951E+02  1.250000000E+02  0.00000E+00  9.000E+00
      25     1     1     2     0     0  5.366379384E+01  3.231740767E+01  4.140354776E+02  4.370064007E+02  1.250000000E+02  0.00000E+00  9.000E+00
      21     1     1     2   511   501  2.726597764E+01 -9.682392451E+00 -3.817190961E+02  3.828141202E+02  0.000000000E+00  0.00000E+00  9.000E+00
#rwgt            1           1   5.3970185125767962E-002           4       54502           0
</event>
<event>
      5   9999  3.79277E-02  2.04270E+01 -1.00000E+00  1.65616E-01
      21    -1     0     0   512   501  0.000000000E+00  0.000000000E+00  2.331599032E+02  2.331599032E+02  0.000000000E+00  0.00000E+00  9.000E+00
      21    -1     0     0   501   502  0.000000000E+00  0.000000000E+00 -1.531400813E+02  1.531400813E+02  0.000000000E+00  0.00000E+00  9.000E+00
      25     1     1     2     0     0  2.689487766E+01 -1.317465544E+02  3.059482079E+01  1.861223579E+02  1.250000000E+02  0.00000E+00  9.000E+00
      25     1     1     2     0     0 -1.023166026E+01  1.199313529E+02  4.330168651E+01  1.788525995E+02  1.250000000E+02  0.00000E+00  9.000E+00
      21     1     1     2   512   502 -1.666321740E+01  1.181520150E+01  6.123314609E+00  2.132502714E+01  4.129530925E-07  0.00000E+00  9.000E+00
#rwgt            1           1   3.6434588429046420E-002           4       54694           0
</event>
<event>
      5   9999  3.79277E-02  4.66986E+01 -1.00000E+00  1.40790E-01
      21    -1     0     0   511   501  0.000000000E+00  0.000000000E+00  6.357439427E+02  6.357439427E+02  0.000000000E+00  0.00000E+00  9.000E+00
      21    -1     0     0   501   502  0.000000000E+00  0.000000000E+00 -3.938007020E+02  3.938007020E+02  0.000000000E+00  0.00000E+00  9.000E+00
      25     1     1     2     0     0 -4.028310428E+02  3.656158607E+01  6.057102656E+01  4.276721266E+02  1.250000000E+02  0.00000E+00  9.000E+00
      25     1     1     2     0     0  3.764578135E+02 -7.510008872E+01 -1.104892691E+01  4.038658037E+02  1.250000000E+02  0.00000E+00  9.000E+00
      21     1     1     2   511   502  2.637322934E+01  3.853850265E+01  1.924211410E+02  1.980067144E+02  2.697398305E-06  0.00000E+00  9.000E+00
#rwgt            1           1  0.39648375811529474                4       54926           0
</event>
<event>
      5   9999 -3.79277E-02  4.54044E+01 -1.00000E+00  1.41507E-01
      21    -1     0     0   502   501  0.000000000E+00  0.000000000E+00  1.915465817E+03  1.915465817E+03  0.000000000E+00  0.00000E+00  9.000E+00
      21    -1     0     0   512   502  0.000000000E+00  0.000000000E+00 -8.238214873E+02  8.238214873E+02  0.000000000E+00  0.00000E+00  9.000E+00
      25     1     1     2     0     0 -1.414242978E+02 -3.001665814E+02  7.010606346E+02  7.856282976E+02  1.250000000E+02  0.00000E+00  9.000E+00
      25     1     1     2     0     0  1.689296561E+02  3.362916265E+02  1.137872046E+03  1.204992564E+03  1.250000000E+02  0.00000E+00  9.000E+00
      21     1     1     2   512   501 -2.750535825E+01 -3.612504503E+01 -7.472883505E+02  7.486664427E+02  0.000000000E+00  0.00000E+00  9.000E+00
#rwgt            1           1 -0.12946240089097352                4       55097           0
</event>
<event>
      5   9999  3.79277E-02  8.31176E+01 -1.00000E+00  1.27551E-01
      21    -1     0     0   511   501  0.000000000E+00  0.000000000E+00  4.838746169E+02  4.838746169E+02  0.000000000E+00  0.00000E+00  9.000E+00
      21    -1     0     0   501   502  0.000000000E+00  0.000000000E+00 -1.079483832E+03  1.079483832E+03  0.000000000E+00  0.00000E+00  9.000E+00
      25     1     1     2     0     0 -3.550077899E+01 -1.485024201E+02 -8.429693734E+02  8.657572631E+02  1.250000000E+02  0.00000E+00  9.000E+00
      25     1     1     2     0     0  2.931968386E+01  2.313899152E+02 -1.414150415E+02  3.000402485E+02  1.250000000E+02  0.00000E+00  9.000E+00
      21     1     1     2   511   502  6.181095130E+00 -8.288749505E+01  3.887752000E+02  3.975609373E+02  1.078959322E-05  0.00000E+00  9.000E+00
#rwgt            1           1   3.2148782535782350E-002           4       55263           0
</event>
<event>
      5   9999  3.79277E-02  1.37829E+01 -1.00000E+00  1.80917E-01
      21    -1     0     0   502   512  0.000000000E+00  0.000000000E+00  4.517704001E+02  4.517704001E+02  0.000000000E+00  0.00000E+00  9.000E+00
      21    -1     0     0   501   502  0.000000000E+00  0.000000000E+00 -3.281494557E+02  3.281494557E+02  0.000000000E+00  0.00000E+00  9.000E+00
      25     1     1     2     0     0 -3.336332022E+01 -2.887813703E+02 -1.445902583E+02  3.479067889E+02  1.250000000E+02  0.00000E+00  9.000E+00
      25     1     1     2     0     0  4.620926136E+01  2.837863970E+02  2.229768003E+02  3.847254455E+02  1.250000000E+02  0.00000E+00  9.000E+00
      21     1     1     2   501   512 -1.284594113E+01  4.994973262E+00  4.523440254E+01  4.728762137E+01  0.000000000E+00  0.00000E+00  9.000E+00
#rwgt            1           1   1.8926813091889344E-002           4       55517           0
</event>
<event>
      5   9999  3.79277E-02  7.99532E+01 -1.00000E+00  1.28362E-01
      21    -1     0     0   502   511  0.000000000E+00  0.000000000E+00  2.026000464E+02  2.026000464E+02  0.000000000E+00  0.00000E+00  9.000E+00
      21    -1     0     0   501   502  0.000000000E+00  0.000000000E+00 -2.596513001E+02  2.596513001E+02  0.000000000E+00  0.00000E+00  9.000E+00
      25     1     1     2     0     0  2.069049199E+01  9.917168634E+00 -1.542073395E+02  1.998283019E+02  1.250000000E+02  0.00000E+00  9.000E+00
      25     1     1     2     0     0 -1.828481753E+01 -8.983416549E+01  9.624892464E+01  1.824647016E+02  1.250000000E+02  0.00000E+00  9.000E+00
      21     1     1     2   501   511 -2.405674463E+00  7.991699686E+01  9.071611403E-01  7.995834289E+01  1.694740973E-06  0.00000E+00  9.000E+00
#rwgt            1           1   4.3130170082891238E-002           4       55723           0
</event>
<event>
      5   9999  3.79277E-02  4.95166E+01 -1.00000E+00  1.39317E-01
      21    -1     0     0   502   512  0.000000000E+00  0.000000000E+00  4.811113847E+02  4.811113847E+02  0.000000000E+00  0.00000E+00  9.000E+00
      21    -1     0     0   501   502  0.000000000E+00  0.000000000E+00 -5.593048829E+02  5.593048829E+02  0.000000000E+00  0.00000E+00  9.000E+00
      25     1     1     2     0     0 -3.733391780E+02 -1.709237958E+02  3.029777894E+01  4.302790271E+02  1.250000000E+02  0.00000E+00  9.000E+00
      25     1     1     2     0     0  3.631081519E+02  1.224756814E+02 -2.403425864E+02  4.692945571E+02  1.250000000E+02  0.00000E+00  9.000E+00
      21     1     1     2   501   512  1.023102606E+01  4.844811438E+01  1.318513093E+02  1.408426833E+02  1.907348633E-06  0.00000E+00  9.000E+00
#rwgt            1           1   2.4524302491438207E-002           4       55812           0
</event>
<event>
      5   9999  3.79277E-02  4.01597E+00 -1.00000E+00  2.63063E-01
      21    -1     0     0   502   511  0.000000000E+00  0.000000000E+00  3.798141058E+02  3.798141058E+02  0.000000000E+00  0.00000E+00  9.000E+00
      21    -1     0     0   501   502  0.000000000E+00  0.000000000E+00 -1.657357682E+02  1.657357682E+02  0.000000000E+00  0.00000E+00  9.000E+00
      25     1     1     2     0     0  1.445718482E+02 -3.183495630E+00 -6.798135101E+01  2.028734039E+02  1.250000000E+02  0.00000E+00  9.000E+00
      25     1     1     2     0     0 -1.433681554E+02 -6.478426477E-01  2.787978628E+02  3.375027348E+02  1.250000000E+02  0.00000E+00  9.000E+00
      21     1     1     2   501   511 -1.203692776E+00  3.831338278E+00  3.261825797E+00  5.173735288E+00  0.000000000E+00  0.00000E+00  9.000E+00
#rwgt            1           1   3.3787656800930904E-002           4       55955           0
</event>
<event>
      5   9999 -3.79277E-02  3.58739E+01 -1.00000E+00  1.47835E-01
      21    -1     0     0   502   512  0.000000000E+00  0.000000000E+00  8.953047579E+01  8.953047579E+01  0.000000000E+00  0.00000E+00  9.000E+00
      21    -1     0     0   501   502  0.000000000E+00  0.000000000E+00 -6.551794222E+02  6.551794222E+02  0.000000000E+00  0.00000E+00  9.000E+00
      25     1     1     2     0     0  6.322007016E+01 -1.242045783E+01 -4.724879040E+01  1.483525977E+02  1.250000000E+02  0.00000E+00  9.000E+00
      25     1     1     2     0     0 -9.028971342E+01 -1.112042675E+01 -5.349561121E+02  5.568473203E+02  1.250000000E+02  0.00000E+00  9.000E+00
      21     1     1     2   501   512  2.706964327E+01  2.354088457E+01  1.655595615E+01  3.950997997E+01  0.000000000E+00  0.00000E+00  9.000E+00
#rwgt            1           1  -4.3407482164558872E-003           4       56471           0
</event>
<event>
      5   9999  3.79277E-02  3.46946E+01 -1.00000E+00  1.48780E-01
      21    -1     0     0   502   501  0.000000000E+00  0.000000000E+00  1.389919392E+02  1.389919392E+02  0.000000000E+00  0.00000E+00  9.000E+00
      21    -1     0     0   501   511  0.000000000E+00  0.000000000E+00 -4.975625904E+02  4.975625904E+02  0.000000000E+00  0.00000E+00  9.000E+00
      25     1     1     2     0     0  7.275149950E+01  7.965154881E+01  1.169207318E+01  1.655259934E+02  1.250000000E+02  0.00000E+00  9.000E+00
      25     1     1     2     0     0 -4.970551975E+01 -5.371708443E+01 -5.669773055E+01  1.555499807E+02  1.250000000E+02  0.00000E+00  9.000E+00
      21     1     1     2   502   511 -2.304597975E+01 -2.593446438E+01 -3.135649938E+02  3.154785555E+02  0.000000000E+00  0.00000E+00  9.000E+00
#rwgt            1           1   3.7533186408487795E-002           4       56583           0
</event>
<event>
      5   9999  3.79277E-02  9.64697E+01 -1.00000E+00  1.24534E-01
      21    -1     0     0   502   512  0.000000000E+00  0.000000000E+00  8.219424577E+02  8.219424577E+02  0.000000000E+00  0.00000E+00  9.000E+00
      21    -1     0     0   501   502  0.000000000E+00  0.000000000E+00 -1.130717894E+02  1.130717894E+02  0.000000000E+00  0.00000E+00  9.000E+00
      25     1     1     2     0     0  3.947709049E+01  7.979359156E+01 -2.603965635E+01  1.556551369E+02  1.250000000E+02  0.00000E+00  9.000E+00
      25     1     1     2     0     0 -5.175045874E+01  1.589222095E+01  2.476558682E+02  2.826466022E+02  1.250000000E+02  0.00000E+00  9.000E+00
      21     1     1     2   501   512  1.227336825E+01 -9.568581250E+01  4.872544565E+02  4.967125081E+02  7.629394531E-06  0.00000E+00  9.000E+00
#rwgt            1           1   4.6147622728236429E-002           4       56763           0
</event>
<event>
      5   9999  3.79277E-02  1.00021E+01 -1.00000E+00  1.95747E-01
      21    -1     0     0   502   501  0.000000000E+00  0.000000000E+00  2.059954188E+02  2.059954188E+02  0.000000000E+00  0.00000E+00  9.000E+00
      21    -1     0     0   511   502  0.000000000E+00  0.000000000E+00 -4.880947417E+02  4.880947417E+02  0.000000000E+00  0.00000E+00  9.000E+00
      25     1     1     2     0     0  2.592489293E+02  5.659921688E+01 -2.338282166E+02  3.751187993E+02  1.250000000E+02  0.00000E+00  9.000E+00
      25     1     1     2     0     0 -2.635874181E+02 -6.561140724E+01 -3.315336551E+01  3.008443607E+02  1.250000000E+02  0.00000E+00  9.000E+00
      21     1     1     2   511   501  4.338488796E+00  9.012190357E+00 -1.511774087E+01  1.812700055E+01  1.685873940E-07  0.00000E+00  9.000E+00
#rwgt            1           1   3.9519410464115765E-002           4       56839           0
</event>
<event>
      5   9999  3.79277E-02  4.50948E+01 -1.00000E+00  1.41683E-01
      21    -1     0     0   502   501  0.000000000E+00  0.000000000E+00  4.147396792E+01  4.147396792E+01  0.000000000E+00  0.00000E+00  9.000E+00
      21    -1     0     0   501   512  0.000000000E+00  0.000000000E+00 -1.778013536E+03  1.778013536E+03  0.000000000E+00  0.00000E+00  9.000E+00
      25     1     1     2     0     0 -1.073295481E+02 -1.306603472E+02 -5.048197418E+02  5.468635386E+02  1.250000000E+02  0.00000E+00  9.000E+00
      25     1     1     2     0     0  1.250710045E+02  1.721185606E+02 -7.669238213E+02  8.056455193E+02  1.250000000E+02  0.00000E+00  9.000E+00
      21     1     1     2   502   512 -1.774145650E+01 -4.145821344E+01 -4.647960050E+02  4.669784459E+02  5.394796609E-06  0.00000E+00  9.000E+00
#rwgt            1           1   4.4741806602126372E-002           4       57307           0
</event>
<event>
      5   9999  3.79277E-02  2.71996E+01 -1.00000E+00  1.56056E-01
      21    -1     0     0   502   501  0.000000000E+00  0.000000000E+00  1.462646671E+02  1.462646671E+02  0.000000000E+00  0.00000E+00  9.000E+00
      21    -1     0     0   511   502  0.000000000E+00  0.000000000E+00 -4.161225304E+02  4.161225304E+02  0.000000000E+00  0.00000E+00  9.000E+00
      25     1     1     2     0     0 -1.543324361E+02 -2.112084997E+01 -2.403569384E+02  3.125076783E+02  1.250000000E+02  0.00000E+00  9.000E+00
      25     1     1     2     0     0  1.564086081E+02  4.824113555E+01  4.918953040E+00  2.060098443E+02  1.250000000E+02  0.00000E+00  9.000E+00
      21     1     1     2   511   501 -2.076171921E+00 -2.712028558E+01 -3.441987796E+01  4.386967493E+01  8.259061849E-07  0.00000E+00  9.000E+00
#rwgt            1           1   2.5143260555807220E-002           4       57500           0
</event>
<event>
      5   9999  3.79277E-02  5.18435E+01 -1.00000E+00  1.38184E-01
      21    -1     0     0   502   512  0.000000000E+00  0.000000000E+00  4.152625036E+02  4.152625036E+02  0.000000000E+00  0.00000E+00  9.000E+00
      21    -1     0     0   501   502  0.000000000E+00  0.000000000E+00 -1.377113018E+02  1.377113018E+02  0.000000000E+00  0.00000E+00  9.000E+00
      25     1     1     2     0     0  8.939403138E+01 -1.626635140E+02  8.618082835E+01  2.397975121E+02  1.250000000E+02  0.00000E+00  9.000E+00
      25     1     1     2     0     0 -8.108738931E+01  1.114898343E+02  1.084616400E+02  2.153928392E+02  1.250000000E+02  0.00000E+00  9.000E+00
      21     1     1     2   501   512 -8.306642062E+00  5.117367972E+01  8.290873351E+01  9.778345407E+01  2.336015456E-06  0.00000E+00  9.000E+00
#rwgt            1           1   3.0480040671761990E-002           4       57814           0
</event>
<event>
      5   9999  3.79277E-02  2.62563E+01 -1.00000E+00  1.57172E-01
      21    -1     0     0   511   501  0.000000000E+00  0.000000000E+00  4.344365299E+01  4.344365299E+01  0.000000000E+00  0.00000E+00  9.000E+00
      21    -1     0     0   501   502  0.000000000E+00  0.000000000E+00 -8.953665764E+02  8.953665764E+02  0.000000000E+00  0.00000E+00  9.000E+00
      25     1     1     2     0     0 -9.444034535E+01  8.696140708E+01 -3.542379193E+02  3.969770379E+02  1.250000000E+02  0.00000E+00  9.000E+00
      25     1     1     2     0     0  7.807818979E+01 -1.074961205E+02 -4.674833685E+02  5.018140288E+02  1.250000000E+02  0.00000E+00  9.000E+00
      21     1     1     2   511   502  1.636215556E+01  2.053471345E+01 -3.020163556E+01  4.001916268E+01  1.011524364E-06  0.00000E+00  9.000E+00
#rwgt            1           1   3.3273927403196783E-002           4       57984           0
</event>
<event>
      5   9999  3.79277E-02  1.21829E+02 -1.00000E+00  1.20090E-01
       2    -1     0     0   502     0  0.000000000E+00  0.000000000E+00  5.632878746E+02  5.632878746E+02  0.000000000E+00  0.00000E+00  9.000E+00
      21    -1     0     0   501   502  0.000000000E+00  0.000000000E+00 -2.935736207E+02  2.935736207E+02  0.000000000E+00  0.00000E+00  9.000E+00
      25     1     1     2     0     0  2.339308044E+01  1.992306139E+01 -2.145167731E+02  2.501731611E+02  1.250000000E+02  0.00000E+00  9.000E+00
      25     1     1     2     0     0  9.685726849E+01 -3.947344441E+01  7.445819440E+01  1.791884650E+02  1.250000000E+02  0.00000E+00  9.000E+00
       2     1     1     2   501     0 -1.202503489E+02  1.955038302E+01  4.097728326E+02  4.274998692E+02  0.000000000E+00  0.00000E+00  9.000E+00
#rwgt            1           1   2.0551242648037284E-002           4       58117           0
</event>
<event>
      5   9999  3.79277E-02  2.22334E+01 -1.00000E+00  1.62663E-01
      21    -1     0     0   502   501  0.000000000E+00  0.000000000E+00  2.780807208E+02  2.780807208E+02  0.000000000E+00  0.00000E+00  9.000E+00
      21    -1     0     0   511   502  0.000000000E+00  0.000000000E+00 -6.902012046E+02  6.902012046E+02  0.000000000E+00  0.00000E+00  9.000E+00
      25     1     1     2     0     0  7.386131590E+01  2.154264601E+02  1.218405410E+02  2.869393161E+02  1.250000000E+02  0.00000E+00  9.000E+00
      25     1     1     2     0     0 -5.180700391E+01 -2.182424555E+02 -1.513165223E+02  2.980527218E+02  1.250000000E+02  0.00000E+00  9.000E+00
      21     1     1     2   511   501 -2.205431199E+01  2.815995363E+00 -3.826445026E+02  3.832898875E+02  5.394796609E-06  0.00000E+00  9.000E+00
#rwgt            1           1   4.3812844694089428E-002           4       58198           0
</event>
<event>
      5   9999  3.79277E-02  1.11551E+02 -1.00000E+00  1.21730E-01
      21    -1     0     0   512   501  0.000000000E+00  0.000000000E+00  4.462892946E+02  4.462892946E+02  0.000000000E+00  0.00000E+00  9.000E+00
      21    -1     0     0   501   502  0.000000000E+00  0.000000000E+00 -1.535714838E+02  1.535714838E+02  0.000000000E+00  0.00000E+00  9.000E+00
      25     1     1     2     0     0  1.611893784E+02  9.272350565E+00  1.519437620E+02  2.545189561E+02  1.250000000E+02  0.00000E+00  9.000E+00
      25     1     1     2     0     0 -1.244318343E+02  9.604856571E+01  6.747687620E+01  2.118649031E+02  1.250000000E+02  0.00000E+00  9.000E+00
      21     1     1     2   512   502 -3.675754411E+01 -1.053209163E+02  7.329717266E+01  1.334769193E+02  3.015782986E-06  0.00000E+00  9.000E+00
#rwgt            1           1   3.1392220666472029E-002           4       58461           0
</event>
<event>
      5   9999  3.79277E-02  1.97271E+01 -1.00000E+00  1.66863E-01
      21    -1     0     0   502   511  0.000000000E+00  0.000000000E+00  5.187325450E+01  5.187325450E+01  0.000000000E+00  0.00000E+00  9.000E+00
      21    -1     0     0   501   502  0.000000000E+00  0.000000000E+00 -7.391177785E+02  7.391177785E+02  0.000000000E+00  0.00000E+00  9.000E+00
      25     1     1     2     0     0 -5.510835315E+01  8.972369613E+01 -4.148436286E+02  4.458783561E+02  1.250000000E+02  0.00000E+00  9.000E+00
      25     1     1     2     0     0  6.319257969E+01 -1.077182525E+02 -2.732095590E+02  3.253690016E+02  1.250000000E+02  0.00000E+00  9.000E+00
      21     1     1     2   501   511 -8.084226538E+00  1.799455638E+01  8.086636370E-01  1.974367532E+01  6.337812638E-07  0.00000E+00  9.000E+00
#rwgt            1           1   3.5627606785785824E-002           4       58577           0
</event>
<event>
      5   9999  3.79277E-02  1.37069E+02 -1.00000E+00  1.17967E-01
      21    -1     0     0   502   512  0.000000000E+00  0.000000000E+00  1.725741658E+02  1.725741658E+02  0.000000000E+00  0.00000E+00  9.000E+00
      21    -1     0     0   501   502  0.000000000E+00  0.000000000E+00 -8.727341814E+02  8.727341814E+02  0.000000000E+00  0.00000E+00  9.000E+00
      25     1     1     2     0     0 -5.503439535E+01 -2.076951097E+02 -3.528925701E+02  4.316528805E+02  1.250000000E+02  0.00000E+00  9.000E+00
      25     1     1     2     0     0  1.391636242E+02  3.159080860E+02 -2.749486490E+02  4.586787467E+02  1.250000000E+02  0.00000E+00  9.000E+00
      21     1     1     2   501   512 -8.412922888E+01 -1.082129763E+02 -7.231879654E+01  1.549767200E+02  2.861022949E-06  0.00000E+00  9.000E+00
#rwgt            1           1   3.4915246216664274E-002           4       58711           0
</event>
<event>
      5   9999  3.79277E-02  1.16439E+01 -1.00000E+00  1.88414E-01
      21    -1     0     0   502   511  0.000000000E+00  0.000000000E+00  4.777912125E+02  4.777912125E+02  0.000000000E+00  0.00000E+00  9.000E+00
      21    -1     0     0   501   502  0.000000000E+00  0.000000000E+00 -1.283748819E+02  1.283748819E+02  0.000000000E+00  0.00000E+00  9.000E+00
      25     1     1     2     0     0  8.254319090E+01  2.237141580E+01  2.976783719E+02  3.339929217E+02  1.250000000E+02  0.00000E+00  9.000E+00
      25     1     1     2     0     0 -7.969642276E+01 -1.108090272E+01 -5.964920322E+01  1.601790675E+02  1.250000000E+02  0.00000E+00  9.000E+00
      21     1     1     2   501   511 -2.846768137E+00 -1.129051308E+01  1.113871619E+02  1.119941052E+02  0.000000000E+00  0.00000E+00  9.000E+00
#rwgt            1           1   3.6369033475650611E-002           4       58835           0
</event>
<event>
      5   9999  3.79277E-02  5.79332E+01 -1.00000E+00  1.35522E-01
      21    -1     0     0   502   501  0.000000000E+00  0.000000000E+00  2.141350119E+02  2.141350119E+02  0.000000000E+00  0.00000E+00  9.000E+00
       2    -1     0     0   501     0  0.000000000E+00  0.000000000E+00 -7.114546482E+02  7.114546482E+02  0.000000000E+00  0.00000E+00  9.000E+00
      25     1     1     2     0     0 -4.290039840E+01  1.681960097E+02 -1.016299154E+02  2.368205683E+02  1.250000000E+02  0.00000E+00  9.000E+00
      25     1     1     2     0     0  7.831922596E+00 -2.143094948E+02  3.809779823E+01  2.511301272E+02  1.250000000E+02  0.00000E+00  9.000E+00
       2     1     1     2   502     0  3.506847580E+01  4.611348514E+01 -4.337875191E+02  4.376389645E+02  5.394796609E-06  0.00000E+00  9.000E+00
#rwgt            1           1   3.4012281229408310E-002           4       59033           0
</event>
<event>
      5   9999  3.79277E-02  7.21129E+01 -1.00000E+00  1.30570E-01
      21    -1     0     0   502   501  0.000000000E+00  0.000000000E+00  8.585807024E+02  8.585807024E+02  0.000000000E+00  0.00000E+00  9.000E+00
      21    -1     0     0   511   502  0.000000000E+00  0.000000000E+00 -7.906045496E+01  7.906045496E+01  0.000000000E+00  0.00000E+00  9.000E+00
      25     1     1     2     0     0 -1.322912266E+02 -1.489201657E+02  5.210677351E+02  5.716771545E+02  1.250000000E+02  0.00000E+00  9.000E+00
      25     1     1     2     0     0  8.370917091E+01  9.562804885E+01  2.233368966E+02  2.857556971E+02  1.250000000E+02  0.00000E+00  9.000E+00
      21     1     1     2   511   501  4.858205568E+01  5.329211685E+01  3.511561572E+01  8.020830580E+01  6.743495762E-07  0.00000E+00  9.000E+00
#rwgt            1           1   4.4109784550500027E-002           4       59162           0
</event>
<event>
      5   9999 -3.79277E-02  2.05234E+01 -1.00000E+00  1.65449E-01
      21    -1     0     0   502   512  0.000000000E+00  0.000000000E+00  1.766988647E+02  1.766988647E+02  0.000000000E+00  0.00000E+00  9.000E+00
      21    -1     0     0   501   502  0.000000000E+00  0.000000000E+00 -2.615188349E+02  2.615188349E+02  0.000000000E+00  0.00000E+00  9.000E+00
      25     1     1     2     0     0 -1.996826707E+01  1.973197205E+01  1.126797241E+02  1.706159507E+02  1.250000000E+02  0.00000E+00  9.000E+00
      25     1     1     2     0     0  2.042738703E+01  7.862452026E-01 -2.087695677E+02  2.441876916E+02  1.250000000E+02  0.00000E+00  9.000E+00
      21     1     1     2   501   512 -4.591199604E-01 -2.051821725E+01  1.126987346E+01  2.341405728E+01  4.616955931E-07  0.00000E+00  9.000E+00
#rwgt            1           1  -2.0673695855473601E-002           4       59260           0
</event>
<event>
      5   9999  3.79277E-02  1.55833E+02 -1.00000E+00  1.15741E-01
      21    -1     0     0   502   501  0.000000000E+00  0.000000000E+00  9.251664462E+02  9.251664462E+02  0.000000000E+00  0.00000E+00  9.000E+00
      21    -1     0     0   511   502  0.000000000E+00  0.000000000E+00 -1.369592440E+02  1.369592440E+02  0.000000000E+00  0.00000E+00  9.000E+00
      25     1     1     2     0     0  4.677221363E+01 -2.365534120E+02  5.823696327E+02  6.425920524E+02  1.250000000E+02  0.00000E+00  9.000E+00
      25     1     1     2     0     0  8.080499646E+01  1.470657608E+02  1.071876094E+02  2.350999129E+02  1.250000000E+02  0.00000E+00  9.000E+00
      21     1     1     2   511   501 -1.275772101E+02  8.948765126E+01  9.864996015E+01  1.844337250E+02  3.015782986E-06  0.00000E+00  9.000E+00
#rwgt            1           1   3.3855049612656507E-002           4       59501           0
</event>
<event>
      5   9999  3.79277E-02  3.58970E+01 -1.00000E+00  1.47817E-01
      21    -1     0     0   512   501  0.000000000E+00  0.000000000E+00  1.144874085E+02  1.144874085E+02  0.000000000E+00  0.00000E+00  9.000E+00
      21    -1     0     0   501   502  0.000000000E+00  0.000000000E+00 -1.151488259E+03  1.151488259E+03  0.000000000E+00  0.00000E+00  9.000E+00
      25     1     1     2     0     0  1.515771291E+02 -4.098170717E+01 -7.065183167E+00  2.008234130E+02  1.250000000E+02  0.00000E+00  9.000E+00
      25     1     1     2     0     0 -1.339550065E+02  7.225558354E+01 -9.975456457E+02  1.016802404E+03  1.250000000E+02  0.00000E+00  9.000E+00
      21     1     1     2   512   502 -1.762212258E+01 -3.127387637E+01 -3.239002127E+01  4.834985032E+01  9.536743164E-07  0.00000E+00  9.000E+00
#rwgt            1           1   4.2420348207073411E-002           4       59680           0
</event>
<event>
      5   9999  3.79277E-02  1.31757E+02 -1.00000E+00  1.18670E-01
      21    -1     0     0   502   511  0.000000000E+00  0.000000000E+00  3.472835243E+02  3.472835243E+02  0.000000000E+00  0.00000E+00  9.000E+00
      21    -1     0     0   501   502  0.000000000E+00  0.000000000E+00 -6.175834543E+02  6.175834543E+02  0.000000000E+00  0.00000E+00  9.000E+00
      25     1     1     2     0     0 -8.954543232E+01 -3.272395638E+02 -3.243659371E+02  4.857390017E+02  1.250000000E+02  0.00000E+00  9.000E+00
      25     1     1     2     0     0  8.638323190E+01  1.955209708E+02 -1.080972480E+02  2.701860984E+02  1.250000000E+02  0.00000E+00  9.000E+00
      21     1     1     2   501   511  3.162200422E+00  1.317185931E+02  1.621632551E+02  2.089418784E+02  1.907348633E-06  0.00000E+00  9.000E+00
#rwgt            1           1   3.8944754588541609E-002           4       59996           0
</event>
<event>
      5   9999 -3.79277E-02  4.04063E+01 -1.00000E+00  1.44568E-01
      21    -1     0     0   502   512  0.000000000E+00  0.000000000E+00  2.408661651E+02  2.408661651E+02  0.000000000E+00  0.00000E+00  9.000E+00
      21    -1     0     0   501   502  0.000000000E+00  0.000000000E+00 -2.348371644E+02  2.348371644E+02  0.000000000E+00  0.00000E+00  9.000E+00
      25     1     1     2     0     0 -1.313643590E+02 -8.612273375E+01 -8.008248975E+01  2.161294178E+02  1.250000000E+02  0.00000E+00  9.000E+00
      25     1     1     2     0     0  1.114182894E+02  5.098272581E+01  1.235346905E+01  1.754733078E+02  1.250000000E+02  0.00000E+00  9.000E+00
      21     1     1     2   501   512  1.994606955E+01  3.514000793E+01  7.375802144E+01  8.410060389E+01  9.536743164E-07  0.00000E+00  9.000E+00
#rwgt            1           1 -0.37500811551252755                4       60388           0
</event>
<event>
      5   9999  3.79277E-02  5.03724E+01 -1.00000E+00  1.38892E-01
      21    -1     0     0   502   501  0.000000000E+00  0.000000000E+00  2.622411711E+02  2.622411711E+02  0.000000000E+00  0.00000E+00  9.000E+00
      -2    -1     0     0     0   502  0.000000000E+00  0.000000000E+00 -1.245334755E+03  1.245334755E+03  0.000000000E+00  0.00000E+00  9.000E+00
      25     1     1     2     0     0  1.018549967E+02  1.288762884E+01  1.331739974E+02  2.095252847E+02  1.250000000E+02  0.00000E+00  9.000E+00
      25     1     1     2     0     0 -1.514789762E+02 -4.236718593E+00 -1.650226292E+01  1.971323279E+02  1.250000000E+02  0.00000E+00  9.000E+00
      -2     1     1     2     0   501  4.962397943E+01 -8.650910252E+00 -1.099765318E+03  1.100918313E+03  1.525878906E-05  0.00000E+00  9.000E+00
#rwgt            1           1   4.1087019373393797E-002           4       60536           0
</event>
<event>
      5   9999 -3.79277E-02  4.93856E+01 -1.00000E+00  1.39383E-01
      21    -1     0     0   502   511  0.000000000E+00  0.000000000E+00  1.423795144E+02  1.423795144E+02  0.000000000E+00  0.00000E+00  9.000E+00
      21    -1     0     0   501   502  0.000000000E+00  0.000000000E+00 -4.122555779E+02  4.122555779E+02  0.000000000E+00  0.00000E+00  9.000E+00
      25     1     1     2     0     0  1.231061239E+02 -5.887299082E+01 -1.467867311E+02  2.362043421E+02  1.250000000E+02  0.00000E+00  9.000E+00
      25     1     1     2     0     0 -1.718239062E+02  6.696724788E+01 -1.434923643E+02  2.649964634E+02  1.250000000E+02  0.00000E+00  9.000E+00
      21     1     1     2   501   511  4.871778224E+01 -8.094257057E+00  2.040303189E+01  5.343428688E+01  1.039242493E-06  0.00000E+00  9.000E+00
#rwgt            1           1 -0.15615714474432005                4       60648           0
</event>
<event>
      5   9999  3.79277E-02  3.34272E+01 -1.00000E+00  1.49847E-01
      21    -1     0     0   512   501  0.000000000E+00  0.000000000E+00  7.403135820E+01  7.403135820E+01  0.000000000E+00  0.00000E+00  9.000E+00
      21    -1     0     0   501   502  0.000000000E+00  0.000000000E+00 -1.444940339E+03  1.444940339E+03  0.000000000E+00  0.00000E+00  9.000E+00
      25     1     1     2     0     0 -1.928657971E+02  1.213893235E+02 -6.955585930E+02  7.425357499E+02  1.250000000E+02  0.00000E+00  9.000E+00
      25     1     1     2     0     0  1.656346452E+02 -1.407759485E+02 -6.941724427E+02  7.380739012E+02  1.250000000E+02  0.00000E+00  9.000E+00
      21     1     1     2   512   502  2.723115192E+01  1.938662496E+01  1.882205466E+01  3.836204640E+01  7.907449699E-07  0.00000E+00  9.000E+00
#rwgt            1           1   5.8327353433675674E-003           4       60990           0
</event>
<event>
      5   9999  3.79277E-02  4.89234E+01 -1.00000E+00  1.39617E-01
      21    -1     0     0   502   501  0.000000000E+00  0.000000000E+00  1.034202294E+03  1.034202294E+03  0.000000000E+00  0.00000E+00  9.000E+00
      21    -1     0     0   511   502  0.000000000E+00  0.000000000E+00 -6.545635479E+01  6.545635479E+01  0.000000000E+00  0.00000E+00  9.000E+00
      25     1     1     2     0     0 -1.125454337E+02 -1.139581153E+02  6.306877232E+02  6.626046566E+02  1.250000000E+02  0.00000E+00  9.000E+00
      25     1     1     2     0     0  9.506267609E+01  1.596511815E+02  3.034063958E+02  3.771019135E+02  1.250000000E+02  0.00000E+00  9.000E+00
      21     1     1     2   511   501  1.748275758E+01 -4.569306614E+01  3.465182021E+01  5.995207878E+01  4.768371582E-07  0.00000E+00  9.000E+00
#rwgt            1           1   3.7487257672500322E-002           4       61280           0
</event>
<event>
      5   9999  3.79277E-02  2.63877E+01 -1.00000E+00  1.57013E-01
      21    -1     0     0   502   501  0.000000000E+00  0.000000000E+00  1.707958613E+03  1.707958613E+03  0.000000000E+00  0.00000E+00  9.000E+00
      21    -1     0     0   501   512  0.000000000E+00  0.000000000E+00 -1.357458166E+02  1.357458166E+02  0.000000000E+00  0.00000E+00  9.000E+00
      25     1     1     2     0     0  1.055850530E+01 -1.906536687E+02  5.443398061E+02  5.902466670E+02  1.250000000E+02  0.00000E+00  9.000E+00
      25     1     1     2     0     0  1.235962855E+01  2.037329476E+02  1.126354101E+03  1.151502686E+03  1.250000000E+02  0.00000E+00  9.000E+00
      21     1     1     2   502   512 -2.291813385E+01 -1.307927897E+01 -9.848111101E+01  1.019550765E+02  2.697398305E-06  0.00000E+00  9.000E+00
#rwgt            1           1   3.5521673761285094E-002           4       61388           0
</event>
<event>
      5   9999  3.79277E-02  7.69732E+01 -1.00000E+00  1.29166E-01
      21    -1     0     0   502   501  0.000000000E+00  0.000000000E+00  2.631372437E+02  2.631372437E+02  0.000000000E+00  0.00000E+00  9.000E+00
      21    -1     0     0   501   511  0.000000000E+00  0.000000000E+00 -6.528118500E+02  6.528118500E+02  0.000000000E+00  0.00000E+00  9.000E+00
      25     1     1     2     0     0  3.104044413E+01 -1.597555562E+02  1.555577807E+02  2.575045049E+02  1.250000000E+02  0.00000E+00  9.000E+00
      25     1     1     2     0     0 -9.847700642E+01  1.226450956E+02 -1.373702663E+02  2.433826829E+02  1.250000000E+02  0.00000E+00  9.000E+00
      21     1     1     2   502   511  6.743656229E+01  3.711046055E+01 -4.078621207E+02  4.150619059E+02  5.394796609E-06  0.00000E+00  9.000E+00
#rwgt            1           1   4.2072509149705284E-002           4       61680           0
</event>
<event>
      5   9999  3.79277E-02  1.23022E+02 -1.00000E+00  1.19912E-01
      21    -1     0     0   502   501  0.000000000E+00  0.000000000E+00  1.468733300E+02  1.468733300E+02  0.000000000E+00  0.00000E+00  9.000E+00
       3    -1     0     0   501     0  0.000000000E+00  0.000000000E+00 -1.337633125E+03  1.337633125E+03  0.000000000E+00  0.00000E+00  9.000E+00
      25     1     1     2     0     0  2.055702755E+01 -2.344264587E+01  4.999611347E+01  1.381910286E+02  1.250000000E+02  0.00000E+00  9.000E+00
      25     1     1     2     0     0 -3.166596715E+01  1.459623769E+02 -1.428396334E+02  2.415282795E+02  1.250000000E+02  0.00000E+00  9.000E+00
       3     1     1     2   502     0  1.110893960E+01 -1.225197310E+02 -1.097916275E+03  1.104787146E+03  0.000000000E+00  0.00000E+00  9.000E+00
#rwgt            1           1   4.1431439750174062E-002           4       61773           0
</event>
<event>
      5   9999  3.79277E-02  2.85514E+01 -1.00000E+00  1.54548E-01
      21    -1     0     0   502   501  0.000000000E+00  0.000000000E+00  2.396456526E+02  2.396456526E+02  0.000000000E+00  0.00000E+00  9.000E+00
      21    -1     0     0   501   511  0.000000000E+00  0.000000000E+00 -1.778772561E+02  1.778772561E+02  0.000000000E+00  0.00000E+00  9.000E+00
      25     1     1     2     0     0 -5.497131764E+01 -4.661163911E+01  1.209435437E+02  1.882732892E+02  1.250000000E+02  0.00000E+00  9.000E+00
      25     1     1     2     0     0  2.853422447E+01  3.582908553E+01  2.927259302E+01  1.363077769E+02  1.250000000E+02  0.00000E+00  9.000E+00
      21     1     1     2   502   511  2.643709316E+01  1.078255358E+01 -8.844774021E+01  9.294184260E+01  1.348699152E-06  0.00000E+00  9.000E+00
#rwgt            1           1   5.6884128964929635E-002           4       61957           0
</event>
<event>
      5   9999  3.79277E-02  3.39339E+01 -1.00000E+00  1.49414E-01
      21    -1     0     0   512   501  0.000000000E+00  0.000000000E+00  4.094318517E+01  4.094318517E+01  0.000000000E+00  0.00000E+00  9.000E+00
      21    -1     0     0   501   502  0.000000000E+00  0.000000000E+00 -1.611427602E+03  1.611427602E+03  0.000000000E+00  0.00000E+00  9.000E+00
      25     1     1     2     0     0 -8.085746634E+01 -1.560317310E+02 -4.987298581E+02  5.433601958E+02  1.250000000E+02  0.00000E+00  9.000E+00
      25     1     1     2     0     0  7.960718916E+01  1.899426285E+02 -1.012115384E+03  1.040393222E+03  1.250000000E+02  0.00000E+00  9.000E+00
      21     1     1     2   512   502  1.250277176E+00 -3.391089758E+01 -5.963917450E+01  6.861736881E+01  9.536743164E-07  0.00000E+00  9.000E+00
#rwgt            2          11   3.8156261027776808E-003           4       62128           0
</event>
<event>
      5   9999  3.79277E-02  9.05819E+01 -1.00000E+00  1.25791E-01
      21    -1     0     0   502   511  0.000000000E+00  0.000000000E+00  1.902114615E+02  1.902114615E+02  0.000000000E+00  0.00000E+00  9.000E+00
      21    -1     0     0   501   502  0.000000000E+00  0.000000000E+00 -3.468236771E+02  3.468236771E+02  0.000000000E+00  0.00000E+00  9.000E+00
      25     1     1     2     0     0 -6.852084436E+00 -4.747483396E+01 -2.261093809E+02  2.627760702E+02  1.250000000E+02  0.00000E+00  9.000E+00
      25     1     1     2     0     0 -8.344546468E+01  4.030282068E+01 -6.907701009E+00  1.557567952E+02  1.250000000E+02  0.00000E+00  9.000E+00
      21     1     1     2   501   511  9.029754912E+01  7.172013283E+00  7.640486638E+01  1.185022732E+02  9.536743164E-07  0.00000E+00  9.000E+00
#rwgt            2          11   1.7011504777220529E-003           4       62238           0
</event>
<event>
      5   9999  3.79277E-02  1.78342E+01 -1.00000E+00  1.70584E-01
      21    -1     0     0   502   501  0.000000000E+00  0.000000000E+00  5.904394316E+02  5.904394316E+02  0.000000000E+00  0.00000E+00  9.000E+00
      21    -1     0     0   512   502  0.000000000E+00  0.000000000E+00 -8.737108679E+01  8.737108679E+01  0.000000000E+00  0.00000E+00  9.000E+00
      25     1     1     2     0     0  8.204530879E+00  1.610455742E+02  1.536954268E+02  2.554413348E+02  1.250000000E+02  0.00000E+00  9.000E+00
      25     1     1     2     0     0 -2.286425167E+01 -1.508892005E+02  3.528017299E+02  4.042083441E+02  1.250000000E+02  0.00000E+00  9.000E+00
      21     1     1     2   512   501  1.465972079E+01 -1.015637379E+01 -3.428811817E+00  1.816083954E+01  4.042583694E-07  0.00000E+00  9.000E+00
#rwgt            1           1   3.3249796292952487E-002           4       62258           0
</event>
<event>
      5   9999  3.79277E-02  1.48377E+01 -1.00000E+00  1.77830E-01
      21    -1     0     0   502   501  0.000000000E+00  0.000000000E+00  5.215543835E+01  5.215543835E+01  0.000000000E+00  0.00000E+00  9.000E+00
      21    -1     0     0   501   511  0.000000000E+00  0.000000000E+00 -1.753060531E+03  1.753060531E+03  0.000000000E+00  0.00000E+00  9.000E+00
      25     1     1     2     0     0  2.356614331E+02 -3.350485257E+01 -4.815242925E+02  5.514975344E+02  1.250000000E+02  0.00000E+00  9.000E+00
      25     1     1     2     0     0 -2.370286092E+02  4.827942716E+01 -1.090183025E+03  1.123671435E+03  1.250000000E+02  0.00000E+00  9.000E+00
      21     1     1     2   502   511  1.367176050E+00 -1.477457459E+01 -1.291977748E+02  1.300470001E+02  1.907348633E-06  0.00000E+00  9.000E+00
#rwgt            1           1   2.9811071830673067E-002           4       62489           0
</event>
<event>
      5   9999  3.79277E-02  1.67985E+01 -1.00000E+00  1.72873E-01
      21    -1     0     0   502   512  0.000000000E+00  0.000000000E+00  8.023035088E+02  8.023035088E+02  0.000000000E+00  0.00000E+00  9.000E+00
      21    -1     0     0   501   502  0.000000000E+00  0.000000000E+00 -8.906956463E+01  8.906956463E+01  0.000000000E+00  0.00000E+00  9.000E+00
      25     1     1     2     0     0 -2.040472992E+01  4.426193576E+01 -2.694893310E+01  1.368455953E+02  1.250000000E+02  0.00000E+00  9.000E+00
      25     1     1     2     0     0  7.587089460E+00 -3.340389867E+01  6.591981694E+02  6.718188826E+02  1.250000000E+02  0.00000E+00  9.000E+00
      21     1     1     2   501   512  1.281764046E+01 -1.085803709E+01  8.098470786E+01  8.270859559E+01  1.348699152E-06  0.00000E+00  9.000E+00
#rwgt            1           1   4.2071337932216325E-002           4       62675           0
</event>
<event>
      5   9999  3.79277E-02  1.52975E+02 -1.00000E+00  1.16057E-01
      21    -1     0     0   502   501  0.000000000E+00  0.000000000E+00  6.704020437E+02  6.704020437E+02  0.000000000E+00  0.00000E+00  9.000E+00
      21    -1     0     0   511   502  0.000000000E+00  0.000000000E+00 -4.152074253E+02  4.152074253E+02  0.000000000E+00  0.00000E+00  9.000E+00
      25     1     1     2     0     0 -1.870614943E+02 -4.585927241E+01  4.443818656E+02  5.001952799E+02  1.250000000E+02  0.00000E+00  9.000E+00
      25     1     1     2     0     0  8.808236504E+01 -7.077958874E+01  1.421590228E+02  2.204596130E+02  1.250000000E+02  0.00000E+00  9.000E+00
      21     1     1     2   511   501  9.897912922E+01  1.166388612E+02 -3.313462701E+02  3.649545761E+02  3.814697266E-06  0.00000E+00  9.000E+00
#rwgt            1           1   2.8448756929154047E-002           4       62933           0
</event>
<event>
      5   9999  3.79277E-02  3.82273E+01 -1.00000E+00  1.46072E-01
      21    -1     0     0   502   501  0.000000000E+00  0.000000000E+00  1.538386428E+02  1.538386428E+02  0.000000000E+00  0.00000E+00  9.000E+00
      21    -1     0     0   501   512  0.000000000E+00  0.000000000E+00 -2.257118871E+03  2.257118871E+03  0.000000000E+00  0.00000E+00  9.000E+00
      25     1     1     2     0     0 -9.166410677E+01 -1.041473104E+02 -2.788956521E+02  3.356437926E+02  1.250000000E+02  0.00000E+00  9.000E+00
      25     1     1     2     0     0  5.490738677E+01  9.364639137E+01  7.057180512E+01  1.799717962E+02  1.250000000E+02  0.00000E+00  9.000E+00
      21     1     1     2   502   512  3.675672000E+01  1.050091907E+01 -1.894956381E+03  1.895341924E+03  2.157918644E-05  0.00000E+00  9.000E+00
#rwgt            1           1   3.1254435508929493E-002           4       62965           0
</event>
<event>
      5   9999  3.79277E-02  4.22084E+01 -1.00000E+00  1.43407E-01
      21    -1     0     0   502   511  0.000000000E+00  0.000000000E+00  1.957454780E+02  1.957454780E+02  0.000000000E+00  0.00000E+00  9.000E+00
      21    -1     0     0   501   502  0.000000000E+00  0.000000000E+00 -5.901057785E+02  5.901057785E+02  0.000000000E+00  0.00000E+00  9.000E+00
      25     1     1     2     0     0 -1.262770290E+02  2.811805154E+02 -1.643759811E+02  3.710159477E+02  1.250000000E+02  0.00000E+00  9.000E+00
      25     1     1     2     0     0  1.275926283E+02 -2.389926425E+02 -2.219580042E+02  3.718705656E+02  1.250000000E+02  0.00000E+00  9.000E+00
      21     1     1     2   501   511 -1.315599256E+00 -4.218787292E+01 -8.026315204E+00  4.296474321E+01  7.348554138E-07  0.00000E+00  9.000E+00
#rwgt            1           1   3.5980992983915182E-002           4       63164           0
</event>
<event>
      5   9999  3.79277E-02  1.64251E+02 -1.00000E+00  1.14853E-01
      21    -1     0     0   512   501  0.000000000E+00  0.000000000E+00  5.454204295E+01  5.454204295E+01  0.000000000E+00  0.00000E+00  9.000E+00
      21    -1     0     0   501   502  0.000000000E+00  0.000000000E+00 -1.613435727E+03  1.613435727E+03  0.000000000E+00  0.00000E+00  9.000E+00
      25     1     1     2     0     0  2.037779038E+01 -1.610451509E+02 -5.921147905E+02  6.265586326E+02  1.250000000E+02  0.00000E+00  9.000E+00
      25     1     1     2     0     0  1.166770777E+02  7.052191870E+01 -7.312089684E+02  7.542403045E+02  1.250000000E+02  0.00000E+00  9.000E+00
      21     1     1     2   512   502 -1.370548681E+02  9.052323221E+01 -2.355699255E+02  2.871788332E+02  3.814697266E-06  0.00000E+00  9.000E+00
#rwgt            1           1  0.11274777128714190                4       63280           0
</event>
<event>
      5   9999  3.79277E-02  3.22691E+00 -1.00000E+00  2.87579E-01
      21    -1     0     0   502   501  0.000000000E+00  0.000000000E+00  8.129572783E+02  8.129572783E+02  0.000000000E+00  0.00000E+00  9.000E+00
      21    -1     0     0   511   502  0.000000000E+00  0.000000000E+00 -5.659127197E+01  5.659127197E+01  0.000000000E+00  0.00000E+00  9.000E+00
      25     1     1     2     0     0 -5.460578351E+01  1.621920672E+02  3.827834037E+02  4.375342185E+02  1.250000000E+02  0.00000E+00  9.000E+00
      25     1     1     2     0     0  5.305564942E+01 -1.650222697E+02  3.687678591E+02  4.262182367E+02  1.250000000E+02  0.00000E+00  9.000E+00
      21     1     1     2   511   501  1.550134092E+00  2.830202503E+00  4.814743526E+00  5.796094990E+00  0.000000000E+00  0.00000E+00  9.000E+00
#rwgt            1           1   2.6799861772001811E-002           4       63336           0
</event>
<event>
      5   9999  3.79277E-02  1.63225E+01 -1.00000E+00  1.73995E-01
      21    -1     0     0   502   501  0.000000000E+00  0.000000000E+00  1.470409417E+02  1.470409417E+02  0.000000000E+00  0.00000E+00  9.000E+00
      21    -1     0     0   512   502  0.000000000E+00  0.000000000E+00 -4.430663195E+02  4.430663195E+02  0.000000000E+00  0.00000E+00  9.000E+00
      25     1     1     2     0     0 -8.519109351E+01 -7.892014200E+01  2.751734107E+01  1.728239430E+02  1.250000000E+02  0.00000E+00  9.000E+00
      25     1     1     2     0     0  7.122303358E+01  8.736512602E+01 -1.055354157E+02  1.986658243E+02  1.250000000E+02  0.00000E+00  9.000E+00
      21     1     1     2   512   501  1.396805993E+01 -8.444984027E+00 -2.180073031E+02  2.186174939E+02  2.697398305E-06  0.00000E+00  9.000E+00
#rwgt            1           1   3.7829820509400744E-002           4       63897           0
</event>
<event>
      5   9999  3.79277E-02  9.81401E+00 -1.00000E+00  1.96704E-01
      21    -1     0     0   502   501  0.000000000E+00  0.000000000E+00  2.354078515E+02  2.354078515E+02  0.000000000E+00  0.00000E+00  9.000E+00
      21    -1     0     0   511   502  0.000000000E+00  0.000000000E+00 -1.430475929E+02  1.430475929E+02  0.000000000E+00  0.00000E+00  9.000E+00
      25     1     1     2     0     0  2.513682697E+01 -5.548877663E+00 -5.791649970E+01  1.401498164E+02  1.250000000E+02  0.00000E+00  9.000E+00
      25     1     1     2     0     0 -1.568998890E+01  2.889546658E+00  1.727243183E+02  2.138064905E+02  1.250000000E+02  0.00000E+00  9.000E+00
      21     1     1     2   511   501 -9.446838069E+00  2.659331004E+00 -2.244756000E+01  2.449913755E+01  3.371747881E-07  0.00000E+00  9.000E+00
#rwgt            1           1   4.7760868548726049E-002           4       64087           0
</event>
<event>
      5   9999  3.79277E-02  1.92620E+02 -1.00000E+00  1.12246E-01
      21    -1     0     0   502   501  0.000000000E+00  0.000000000E+00  6.856864319E+02  6.856864319E+02  0.000000000E+00  0.00000E+00  9.000E+00
      21    -1     0     0   501   512  0.000000000E+00  0.000000000E+00 -1.815347876E+02  1.815347876E+02  0.000000000E+00  0.00000E+00  9.000E+00
      25     1     1     2     0     0  5.758206605E+01 -1.629587507E+01 -1.567163737E+01  1.394698896E+02  1.250000000E+02  0.00000E+00  9.000E+00
      25     1     1     2     0     0 -2.164870329E+02 -9.256993833E+01  4.496837952E+02  5.227583998E+02  1.250000000E+02  0.00000E+00  9.000E+00
      21     1     1     2   502   512  1.589049669E+02  1.088658134E+02  7.013948653E+01  2.049929301E+02  2.697398305E-06  0.00000E+00  9.000E+00
#rwgt            1           1   3.1451003280016404E-002           4       64311           0
</event>
<event>
      5   9999  3.79277E-02  1.35305E+01 -1.00000E+00  1.81709E-01
      21    -1     0     0   502   501  0.000000000E+00  0.000000000E+00  5.461774976E+02  5.461774976E+02  0.000000000E+00  0.00000E+00  9.000E+00
      21    -1     0     0   501   511  0.000000000E+00  0.000000000E+00 -8.803870053E+01  8.803870053E+01  0.000000000E+00  0.00000E+00  9.000E+00
      25     1     1     2     0     0  1.438514452E+02 -1.893941026E+01  1.342636628E+02  2.338881586E+02  1.250000000E+02  0.00000E+00  9.000E+00
      25     1     1     2     0     0 -1.512392891E+02  3.027494722E+01  3.302811584E+02  3.853576762E+02  1.250000000E+02  0.00000E+00  9.000E+00
      21     1     1     2   502   511  7.387843895E+00 -1.133553696E+01 -6.406024125E+00  1.497036341E+01  4.693274423E-07  0.00000E+00  9.000E+00
#rwgt            1           1   2.7356137562089201E-002           4       64467           0
</event>
<event>
      5   9999  3.79277E-02  1.04195E+01 -1.00000E+00  1.93716E-01
      21    -1     0     0   502   501  0.000000000E+00  0.000000000E+00  2.033603058E+02  2.033603058E+02  0.000000000E+00  0.00000E+00  9.000E+00
      21    -1     0     0   501   512  0.000000000E+00  0.000000000E+00 -3.777489411E+02  3.777489411E+02  0.000000000E+00  0.00000E+00  9.000E+00
      25     1     1     2     0     0 -2.343745169E+02 -2.811151870E+01 -2.770488573E+01  2.685409324E+02  1.250000000E+02  0.00000E+00  9.000E+00
      25     1     1     2     0     0  2.296372828E+02  3.739187680E+01 -1.340290246E+02  2.961759841E+02  1.250000000E+02  0.00000E+00  9.000E+00
      21     1     1     2   502   512  4.737234073E+00 -9.280358099E+00 -1.265472506E+01  1.639233051E+01  3.371747881E-07  0.00000E+00  9.000E+00
#rwgt            1           1   3.7322442060523660E-002           4       64641           0
</event>
<event>
      5   9999  3.79277E-02  1.36379E+02 -1.00000E+00  1.18056E-01
      21    -1     0     0   502   501  0.000000000E+00  0.000000000E+00  4.548390565E+01  4.548390565E+01  0.000000000E+00  0.00000E+00  9.000E+00
      21    -1     0     0   511   502  0.000000000E+00  0.000000000E+00 -1.940053981E+03  1.940053981E+03  0.000000000E+00  0.00000E+00  9.000E+00
      25     1     1     2     0     0  8.454214576E+01 -1.802903613E+02 -4.855191570E+02  5.394495719E+02  1.250000000E+02  0.00000E+00  9.000E+00
      25     1     1     2     0     0  3.793568578E+01  1.203037013E+02 -6.039350689E+02  6.295035061E+02  1.250000000E+02  0.00000E+00  9.000E+00
      21     1     1     2   511   501 -1.224778315E+02  5.998666005E+01 -8.051158495E+02  8.165848086E+02  0.000000000E+00  0.00000E+00  9.000E+00
#rwgt            2          11   1.1586498667019583E-003           4       64927           0
</event>
<event>
      5   9999  3.79277E-02  1.31035E+02 -1.00000E+00  1.18769E-01
      21    -1     0     0   512   501  0.000000000E+00  0.000000000E+00  1.632969417E+02  1.632969417E+02  0.000000000E+00  0.00000E+00  9.000E+00
      21    -1     0     0   501   502  0.000000000E+00  0.000000000E+00 -7.250259400E+02  7.250259400E+02  0.000000000E+00  0.00000E+00  9.000E+00
      25     1     1     2     0     0  1.020738839E+02  1.054350471E+02 -3.873112790E+01  1.966233130E+02  1.250000000E+02  0.00000E+00  9.000E+00
      25     1     1     2     0     0  2.667312342E+01 -8.105480232E+01 -5.388571288E+02  5.597082649E+02  1.250000000E+02  0.00000E+00  9.000E+00
      21     1     1     2   512   502 -1.287470074E+02 -2.438024478E+01  1.585925841E+01  1.319913039E+02  2.692124794E-06  0.00000E+00  9.000E+00
#rwgt            1           1   3.7382946143218021E-002           4       64977           0
</event>
<event>
      5   9999  3.79277E-02  2.97425E+01 -1.00000E+00  1.53300E-01
      21    -1     0     0   502   511  0.000000000E+00  0.000000000E+00  6.586759892E+02  6.586759892E+02  0.000000000E+00  0.00000E+00  9.000E+00
      21    -1     0     0   501   502  0.000000000E+00  0.000000000E+00 -8.934893121E+01  8.934893121E+01  0.000000000E+00  0.00000E+00  9.000E+00
      25     1     1     2     0     0  1.124981861E+02 -7.075224588E+01  5.317074411E+01  1.900364444E+02  1.250000000E+02  0.00000E+00  9.000E+00
      25     1     1     2     0     0 -9.044802195E+01  9.071230372E+01  4.024192444E+02  4.404268554E+02  1.250000000E+02  0.00000E+00  9.000E+00
      21     1     1     2   501   511 -2.205016420E+01 -1.996005784E+01  1.137370695E+02  1.175616205E+02  1.907348633E-06  0.00000E+00  9.000E+00
#rwgt            1           1   4.3609085376022198E-002           4       65070           0
</event>
<event>
      5   9999  3.79277E-02  1.84760E+02 -1.00000E+00  1.12916E-01
       1    -1     0     0   502     0  0.000000000E+00  0.000000000E+00  1.617001801E+03  1.617001801E+03  0.000000000E+00  0.00000E+00  9.000E+00
      21    -1     0     0   501   502  0.000000000E+00  0.000000000E+00 -1.414318792E+02  1.414318792E+02  0.000000000E+00  0.00000E+00  9.000E+00
      25     1     1     2     0     0  7.199027758E+01 -5.025151204E+01  1.593774605E+02  2.207577619E+02  1.250000000E+02  0.00000E+00  9.000E+00
      25     1     1     2     0     0 -8.336511304E+01  2.346607395E+02  8.302801233E+01  2.907474085E+02  1.250000000E+02  0.00000E+00  9.000E+00
       1     1     1     2   501     0  1.137483547E+01 -1.844092274E+02  1.233164450E+03  1.246928510E+03  2.642899792E-05  0.00000E+00  9.000E+00
#rwgt            1           1   3.8711794241270130E-002           4       65206           0
</event>
<event>
      5   9999 -3.79277E-02  6.41918E+00 -1.00000E+00  2.21011E-01
      21    -1     0     0   502   511  0.000000000E+00  0.000000000E+00  9.512095514E+02  9.512095514E+02  0.000000000E+00  0.00000E+00  9.000E+00
      21    -1     0     0   501   502  0.000000000E+00  0.000000000E+00 -3.133484749E+01  3.133484749E+01  0.000000000E+00  0.00000E+00  9.000E+00
      25     1     1     2     0     0  6.712938445E+01 -5.877759218E+01  2.425697374E+02  2.870996989E+02  1.250000000E+02  0.00000E+00  9.000E+00
      25     1     1     2     0     0 -6.093970514E+01  5.707647959E+01  6.288749600E+02  6.465911285E+02  1.250000000E+02  0.00000E+00  9.000E+00
      21     1     1     2   501   511 -6.189679310E+00  1.701112588E+00  4.843000655E+01  4.885357150E+01  6.743495762E-07  0.00000E+00  9.000E+00
#rwgt            1           1 -0.12543888763167504                4       65258           0
</event>
<event>
      5   9999 -3.79277E-02  4.29746E+01 -1.00000E+00  1.42934E-01
      21    -1     0     0   502   512  0.000000000E+00  0.000000000E+00  1.031194219E+02  1.031194219E+02  0.000000000E+00  0.00000E+00  9.000E+00
      21    -1     0     0   501   502  0.000000000E+00  0.000000000E+00 -1.068790384E+03  1.068790384E+03  0.000000000E+00  0.00000E+00  9.000E+00
      25     1     1     2     0     0  1.014161150E+02  1.508655465E+02 -7.388841274E+02  7.711163305E+02  1.250000000E+02  0.00000E+00  9.000E+00
      25     1     1     2     0     0 -6.050027415E+01 -1.640076016E+02 -2.664486883E+02  3.423137158E+02  1.250000000E+02  0.00000E+00  9.000E+00
      21     1     1     2   501   512 -4.091584085E+01  1.314205507E+01  3.966185358E+01  5.847975952E+01  0.000000000E+00  0.00000E+00  9.000E+00
#rwgt            1           1 -0.12467372380863026                4       65582           0
</event>
<event>
      5   9999  3.79277E-02  5.40671E+01 -1.00000E+00  1.37165E-01
      21    -1     0     0   502   501  0.000000000E+00  0.000000000E+00  2.156192327E+02  2.156192327E+02  0.000000000E+00  0.00000E+00  9.000E+00
      -2    -1     0     0     0   502  0.000000000E+00  0.000000000E+00 -1.193645369E+03  1.193645369E+03  0.000000000E+00  0.00000E+00  9.000E+00
      25     1     1     2     0     0 -1.520437982E+02 -7.991452741E+01 -4.559921070E+02  5.030481587E+02  1.250000000E+02  0.00000E+00  9.000E+00
      25     1     1     2     0     0  1.557682293E+02  2.597586775E+01  1.378880741E+02  2.440831988E+02  1.250000000E+02  0.00000E+00  9.000E+00
      -2     1     1     2     0   501 -3.724431107E+00  5.393865966E+01 -6.599221037E+02  6.621332444E+02  0.000000000E+00  0.00000E+00  9.000E+00
#rwgt            1           1   4.5437273611568359E-002           4       65747           0
</event>
<event>
      5   9999 -3.79277E-02  9.94812E+00 -1.00000E+00  1.96019E-01
      21    -1     0     0   502   511  0.000000000E+00  0.000000000E+00  5.703223895E+02  5.703223895E+02  0.000000000E+00  0.00000E+00  9.000E+00
      21    -1     0     0   501   502  0.000000000E+00  0.000000000E+00 -8.793195781E+01  8.793195781E+01  0.000000000E+00  0.00000E+00  9.000E+00
      25     1     1     2     0     0  1.075514589E+02  5.465888379E+01  4.266098933E+01  1.788850746E+02  1.250000000E+02  0.00000E+00  9.000E+00
      25     1     1     2     0     0 -1.159189697E+02 -6.003939030E+01  4.211286272E+02  4.582753065E+02  1.250000000E+02  0.00000E+00  9.000E+00
      21     1     1     2   501   511  8.367510721E+00  5.380506510E+00  1.860081511E+01  2.109396617E+01  2.384185791E-07  0.00000E+00  9.000E+00
#rwgt            1           1  -5.8817440296964334E-002           4       66006           0
</event>
<event>
      5   9999  3.79277E-02  1.09526E+02 -1.00000E+00  1.22076E-01
      21    -1     0     0   512   501  0.000000000E+00  0.000000000E+00  2.414788968E+02  2.414788968E+02  0.000000000E+00  0.00000E+00  9.000E+00
      21    -1     0     0   501   502  0.000000000E+00  0.000000000E+00 -2.702859991E+02  2.702859991E+02  0.000000000E+00  0.00000E+00  9.000E+00
      25     1     1     2     0     0 -5.831345337E+01  4.393750752E+01  9.167660140E+01  1.713492418E+02  1.250000000E+02  0.00000E+00  9.000E+00
      25     1     1     2     0     0  2.893594568E+01 -1.494496838E+02 -1.204687477E+02  2.308900520E+02  1.250000000E+02  0.00000E+00  9.000E+00
      21     1     1     2   512   502  2.937750769E+01  1.055121763E+02 -1.495595679E-02  1.095256021E+02  1.227797205E-06  0.00000E+00  9.000E+00
#rwgt            1           1   2.9468424176400703E-002           4       66340           0
</event>
<event>
      5   9999  3.79277E-02  1.10122E+02 -1.00000E+00  1.21973E-01
      21    -1     0     0   502   501  0.000000000E+00  0.000000000E+00  1.282418784E+02  1.282418784E+02  0.000000000E+00  0.00000E+00  9.000E+00
      21    -1     0     0   511   502  0.000000000E+00  0.000000000E+00 -1.221711822E+03  1.221711822E+03  0.000000000E+00  0.00000E+00  9.000E+00
      25     1     1     2     0     0 -2.503240941E+01 -4.934922412E+01 -3.048850299E+02  3.341284916E+02  1.250000000E+02  0.00000E+00  9.000E+00
      25     1     1     2     0     0  1.320492526E+02  7.531534888E+01  2.178011731E+01  1.980120714E+02  1.250000000E+02  0.00000E+00  9.000E+00
      21     1     1     2   511   501 -1.070168432E+02 -2.596612476E+01 -8.103650313E+02  8.178131378E+02  0.000000000E+00  0.00000E+00  9.000E+00
#rwgt            1           1   4.5713434648995237E-002           4       66481           0
</event>
<event>
      5   9999  3.79277E-02  3.03501E+01 -1.00000E+00  1.52691E-01
      21    -1     0     0   502   501  0.000000000E+00  0.000000000E+00  7.210370191E+02  7.210370191E+02  0.000000000E+00  0.00000E+00  9.000E+00
      21    -1     0     0   512   502  0.000000000E+00  0.000000000E+00 -7.999760924E+01  7.999760924E+01  0.000000000E+00  0.00000E+00  9.000E+00
      25     1     1     2     0     0 -9.810117699E+01 -8.681732281E+01  2.776336601E+02  3.314612160E+02  1.250000000E+02  0.00000E+00  9.000E+00
      25     1     1     2     0     0  7.181966864E+01  7.163798472E+01  3.945250630E+02  4.261045540E+02  1.250000000E+02  0.00000E+00  9.000E+00
      21     1     1     2   512   501  2.628150835E+01  1.517933809E+01 -3.111931324E+01  4.346885831E+01  8.920806376E-07  0.00000E+00  9.000E+00
#rwgt            1           1  0.23340057501587849                4       66597           0
</event>
<event>
      5   9999  3.79277E-02  9.88335E+01 -1.00000E+00  1.24058E-01
      21    -1     0     0   502   501  0.000000000E+00  0.000000000E+00  2.774767019E+02  2.774767019E+02  0.000000000E+00  0.00000E+00  9.000E+00
      21    -1     0     0   501   511  0.000000000E+00  0.000000000E+00 -4.660717141E+02  4.660717141E+02  0.000000000E+00  0.00000E+00  9.000E+00
      25     1     1     2     0     0 -5.987894192E+00  5.119193848E+01 -9.361213153E+01  1.644527306E+02  1.250000000E+02  0.00000E+00  9.000E+00
      25     1     1     2     0     0  9.688620700E+01 -8.999348760E+01  1.985804776E+02  2.693417365E+02  1.250000000E+02  0.00000E+00  9.000E+00
      21     1     1     2   502   511 -9.089831281E+01  3.880154912E+01 -2.935633584E+02  3.097539489E+02  3.814697266E-06  0.00000E+00  9.000E+00
#rwgt            2          11   1.7283046413351032E-003           4       66696           0
</event>
<event>
      5   9999  3.79277E-02  4.92074E+01 -1.00000E+00  1.39473E-01
      -1    -1     0     0     0   501  0.000000000E+00  0.000000000E+00  1.091971206E+03  1.091971206E+03  0.000000000E+00  0.00000E+00  9.000E+00
      21    -1     0     0   501   502  0.000000000E+00  0.000000000E+00 -1.499329984E+02  1.499329984E+02  0.000000000E+00  0.00000E+00  9.000E+00
      25     1     1     2     0     0 -2.263366394E+02 -1.910010866E+02  2.328203847E+02  3.969131151E+02  1.250000000E+02  0.00000E+00  9.000E+00
      25     1     1     2     0     0  2.396632299E+02  1.436326645E+02  2.859769024E+02  4.188992657E+02  1.250000000E+02  0.00000E+00  9.000E+00
      -1     1     1     2     0   502 -1.332659048E+01  4.736842209E+01  4.232409207E+02  4.260918239E+02  5.394796609E-06  0.00000E+00  9.000E+00
#rwgt            2           5   2.0911319706213357E-005           4       66821           0
</event>
<event>
      5   9999  3.79277E-02  5.47883E+01 -1.00000E+00  1.36847E-01
      21    -1     0     0   502   501  0.000000000E+00  0.000000000E+00  1.265961879E+02  1.265961879E+02  0.000000000E+00  0.00000E+00  9.000E+00
      21    -1     0     0   501   511  0.000000000E+00  0.000000000E+00 -3.360532559E+02  3.360532559E+02  0.000000000E+00  0.00000E+00  9.000E+00
      25     1     1     2     0     0  8.325076961E+01 -4.945348215E+01 -1.933407119E+01  1.592957747E+02  1.250000000E+02  0.00000E+00  9.000E+00
      25     1     1     2     0     0 -7.850870610E+01  1.040361428E+02 -1.336025164E+02  2.246369701E+02  1.250000000E+02  0.00000E+00  9.000E+00
      21     1     1     2   502   511 -4.742063506E+00 -5.458266061E+01 -5.652048036E+01  7.871669903E+01  0.000000000E+00  0.00000E+00  9.000E+00
#rwgt            1           1   3.2321740041381504E-002           4       66915           0
</event>
<event>
      5   9999  3.79277E-02  3.60042E+01 -1.00000E+00  1.47733E-01
      21    -1     0     0   502   501  0.000000000E+00  0.000000000E+00  1.192714541E+03  1.192714541E+03  0.000000000E+00  0.00000E+00  9.000E+00
      21    -1     0     0   501   512  0.000000000E+00  0.000000000E+00 -1.021602755E+02  1.021602755E+02  0.000000000E+00  0.00000E+00  9.000E+00
      25     1     1     2     0     0 -3.156660344E+01  2.078562175E+02  2.656593276E+02  3.611101438E+02  1.250000000E+02  0.00000E+00  9.000E+00
      25     1     1     2     0     0  2.800959005E+01 -1.720281816E+02  8.582741222E+02  8.846681306E+02  1.250000000E+02  0.00000E+00  9.000E+00
      21     1     1     2   502   512  3.557013391E+00 -3.582803594E+01 -3.337918430E+01  4.909654212E+01  4.768371582E-07  0.00000E+00  9.000E+00
#rwgt            1           1   4.3967162338595878E-002           4       67073           0
</event>
<event>
      5   9999  3.79277E-02  2.47347E+01 -1.00000E+00  1.59099E-01
      21    -1     0     0   502   511  0.000000000E+00  0.000000000E+00  2.259491893E+02  2.259491893E+02  0.000000000E+00  0.00000E+00  9.000E+00
      21    -1     0     0   501   502  0.000000000E+00  0.000000000E+00 -7.076761463E+02  7.076761463E+02  0.000000000E+00  0.00000E+00  9.000E+00
      25     1     1     2     0     0  2.449407756E+01  3.309704827E+01 -6.147900378E+02  6.287186692E+02  1.250000000E+02  0.00000E+00  9.000E+00
      25     1     1     2     0     0 -4.286063227E+01 -4.966435929E+01 -2.633232620E+01  1.436035298E+02  1.250000000E+02  0.00000E+00  9.000E+00
      21     1     1     2   501   511  1.836655470E+01  1.656731102E+01  1.593954069E+02  1.613031366E+02  5.394796609E-06  0.00000E+00  9.000E+00
#rwgt            1           1   3.0266546718285076E-002           4       67287           0
</event>
<event>
      5   9999  3.79277E-02  1.29518E+02 -1.00000E+00  1.18978E-01
      21    -1     0     0   502   501  0.000000000E+00  0.000000000E+00  2.133025703E+02  2.133025703E+02  0.000000000E+00  0.00000E+00  9.000E+00
      21    -1     0     0   512   502  0.000000000E+00  0.000000000E+00 -4.909955303E+02  4.909955303E+02  0.000000000E+00  0.00000E+00  9.000E+00
      25     1     1     2     0     0  1.187043302E+02  6.769559073E+01  4.789264042E+01  1.912906584E+02  1.250000000E+02  0.00000E+00  9.000E+00
      25     1     1     2     0     0 -1.297060273E+02 -1.967453790E+02 -2.119466349E+02  3.407033515E+02  1.250000000E+02  0.00000E+00  9.000E+00
      21     1     1     2   512   501  1.100169717E+01  1.290497882E+02 -1.136389655E+02  1.723040907E+02  3.814697266E-06  0.00000E+00  9.000E+00
#rwgt            1           1   2.8101745301822374E-002           4       67466           0
</event>
<event>
      5   9999  3.79277E-02  9.60463E+01 -1.00000E+00  1.24621E-01
      21    -1     0     0   502   501  0.000000000E+00  0.000000000E+00  7.767158897E+01  7.767158897E+01  0.000000000E+00  0.00000E+00  9.000E+00
      21    -1     0     0   511   502  0.000000000E+00  0.000000000E+00 -1.118280389E+03  1.118280389E+03  0.000000000E+00  0.00000E+00  9.000E+00
      25     1     1     2     0     0  5.086026584E+00  7.473482134E+01 -4.397762237E+02  4.632917959E+02  1.250000000E+02  0.00000E+00  9.000E+00
      25     1     1     2     0     0  7.176814462E+01 -1.712980937E+01 -2.307622971E+01  1.469748595E+02  1.250000000E+02  0.00000E+00  9.000E+00
      21     1     1     2   511   501 -7.685417121E+01 -5.760501197E+01 -5.777563464E+02  5.856853223E+02  7.629394531E-06  0.00000E+00  9.000E+00
#rwgt            1           1   3.9991036640805368E-002           4       67735           0
</event>
<event>
      5   9999  3.79277E-02  3.92776E+01 -1.00000E+00  1.45333E-01
      21    -1     0     0   502   501  0.000000000E+00  0.000000000E+00  7.638099805E+01  7.638099805E+01  0.000000000E+00  0.00000E+00  9.000E+00
      21    -1     0     0   501   512  0.000000000E+00  0.000000000E+00 -7.331421835E+02  7.331421835E+02  0.000000000E+00  0.00000E+00  9.000E+00
      25     1     1     2     0     0 -1.063516048E+02  6.670016248E+01 -3.413398382E+02  3.845743889E+02  1.250000000E+02  0.00000E+00  9.000E+00
      25     1     1     2     0     0  1.235405222E+02 -1.020169328E+02 -1.439356765E+02  2.490224772E+02  1.250000000E+02  0.00000E+00  9.000E+00
      21     1     1     2   502   512 -1.718891742E+01  3.531677035E+01 -1.714856708E+02  1.759263153E+02  2.697398305E-06  0.00000E+00  9.000E+00
#rwgt            1           1   3.5161809388455839E-002           4       67834           0
</event>
<event>
      5   9999  3.79277E-02  9.75062E+01 -1.00000E+00  1.24323E-01
      21    -1     0     0   502   511  0.000000000E+00  0.000000000E+00  8.052451281E+02  8.052451281E+02  0.000000000E+00  0.00000E+00  9.000E+00
      21    -1     0     0   501   502  0.000000000E+00  0.000000000E+00 -4.096652988E+02  4.096652988E+02  0.000000000E+00  0.00000E+00  9.000E+00
      25     1     1     2     0     0  7.933549023E+01  5.559914190E+01 -1.875428333E+02  2.453216234E+02  1.250000000E+02  0.00000E+00  9.000E+00
      25     1     1     2     0     0 -1.731221195E+02 -2.892470782E+01 -1.287849275E+02  2.510347875E+02  1.250000000E+02  0.00000E+00  9.000E+00
      21     1     1     2   501   511  9.378662923E+01 -2.667443408E+01  7.119075901E+02  7.185540161E+02  0.000000000E+00  0.00000E+00  9.000E+00
#rwgt            1           1   3.1659211923745101E-002           4       67955           0
</event>
<event>
      5   9999  3.79277E-02  1.41470E+01 -1.00000E+00  1.79813E-01
      21    -1     0     0   502   512  0.000000000E+00  0.000000000E+00  2.631935308E+02  2.631935308E+02  0.000000000E+00  0.00000E+00  9.000E+00
      21    -1     0     0   501   502  0.000000000E+00  0.000000000E+00 -1.816681697E+02  1.816681697E+02  0.000000000E+00  0.00000E+00  9.000E+00
      25     1     1     2     0     0  3.104657180E+01 -4.860212589E+01 -1.198247762E+02  1.825076252E+02  1.250000000E+02  0.00000E+00  9.000E+00
      25     1     1     2     0     0 -1.690351098E+01  4.893804892E+01  1.233684236E+02  1.830995065E+02  1.250000000E+02  0.00000E+00  9.000E+00
      21     1     1     2   501   512 -1.414306082E+01 -3.359230354E-01  7.798171366E+01  7.925456882E+01  1.651812370E-06  0.00000E+00  9.000E+00
#rwgt            1           1   4.2207637552210721E-002           4       68097           0
</event>
<event>
      5   9999  3.79277E-02  2.51492E+01 -1.00000E+00  1.58558E-01
      21    -1     0     0   502   501  0.000000000E+00  0.000000000E+00  1.534854312E+02  1.534854312E+02  0.000000000E+00  0.00000E+00  9.000E+00
      21    -1     0     0   511   502  0.000000000E+00  0.000000000E+00 -2.394858365E+02  2.394858365E+02  0.000000000E+00  0.00000E+00  9.000E+00
      25     1     1     2     0     0 -1.011296343E+02 -1.585811216E+01  3.241926198E+01  1.647868053E+02  1.250000000E+02  0.00000E+00  9.000E+00
      25     1     1     2     0     0  1.149417825E+02 -5.158712745E+00 -1.039236525E+02  1.991565998E+02  1.250000000E+02  0.00000E+00  9.000E+00
      21     1     1     2   511   501 -1.381214814E+01  2.101682491E+01 -1.449601473E+01  2.902786263E+01  4.129530925E-07  0.00000E+00  9.000E+00
#rwgt            1           1   2.3092182576307282E-002           4       68362           0
</event>
<event>
      5   9999  3.79277E-02  8.60195E+01 -1.00000E+00  1.26843E-01
      21    -1     0     0   502   501  0.000000000E+00  0.000000000E+00  1.426237755E+03  1.426237755E+03  0.000000000E+00  0.00000E+00  9.000E+00
      21    -1     0     0   501   512  0.000000000E+00  0.000000000E+00 -6.589342167E+02  6.589342167E+02  0.000000000E+00  0.00000E+00  9.000E+00
      25     1     1     2     0     0  3.052714803E+02 -6.936498145E+01  2.200715035E+02  4.025650805E+02  1.250000000E+02  0.00000E+00  9.000E+00
      25     1     1     2     0     0 -2.853700916E+02 -1.432067625E+01  1.089653670E+03  1.133406940E+03  1.250000000E+02  0.00000E+00  9.000E+00
      21     1     1     2   502   512 -1.990138879E+01  8.368565770E+01 -5.424216360E+02  5.491999506E+02  7.629394531E-06  0.00000E+00  9.000E+00
#rwgt            1           1   4.4727272063753973E-002           4       68474           0
</event>
<event>
      5   9999  3.79277E-02  6.30228E+01 -1.00000E+00  1.33573E-01
      21    -1     0     0   502   511  0.000000000E+00  0.000000000E+00  1.474289913E+02  1.474289913E+02  0.000000000E+00  0.00000E+00  9.000E+00
      21    -1     0     0   501   502  0.000000000E+00  0.000000000E+00 -3.465240061E+02  3.465240061E+02  0.000000000E+00  0.00000E+00  9.000E+00
      25     1     1     2     0     0 -1.435336889E+02  6.891904991E+01 -1.099472289E+02  2.303587386E+02  1.250000000E+02  0.00000E+00  9.000E+00
      25     1     1     2     0     0  1.329657108E+02 -6.788656899E+00 -8.193294093E+01  2.001598684E+02  1.250000000E+02  0.00000E+00  9.000E+00
      21     1     1     2   501   511  1.056797813E+01 -6.213039301E+01 -7.214844880E+00  6.343439039E+01  1.049448065E-06  0.00000E+00  9.000E+00
#rwgt            1           1   4.0328979434104621E-002           4       68578           0
</event>
<event>
      5   9999  3.79277E-02  1.05356E+01 -1.00000E+00  1.93174E-01
      21    -1     0     0   502   512  0.000000000E+00  0.000000000E+00  5.106165062E+02  5.106165062E+02  0.000000000E+00  0.00000E+00  9.000E+00
      21    -1     0     0   501   502  0.000000000E+00  0.000000000E+00 -5.199498207E+01  5.199498207E+01  0.000000000E+00  0.00000E+00  9.000E+00
      25     1     1     2     0     0 -7.425621342E+01 -3.716787791E+01  2.249168858E+02  2.703849883E+02  1.250000000E+02  0.00000E+00  9.000E+00
      25     1     1     2     0     0  7.435605919E+01  4.770302006E+01  1.746210544E+02  2.322109263E+02  1.250000000E+02  0.00000E+00  9.000E+00
      21     1     1     2   501   512 -9.984577154E-02 -1.053514215E+01  5.908358398E+01  6.001557369E+01  6.743495762E-07  0.00000E+00  9.000E+00
#rwgt            1           1   2.6349762614803995E-002           4       68757           0
</event>
<event>
      5   9999  3.79277E-02  5.33346E+00 -1.00000E+00  2.33719E-01
      21    -1     0     0   502   501  0.000000000E+00  0.000000000E+00  6.023459983E+02  6.023459983E+02  0.000000000E+00  0.00000E+00  9.000E+00
      21    -1     0     0   501   511  0.000000000E+00  0.000000000E+00 -7.324180204E+01  7.324180204E+01  0.000000000E+00  0.00000E+00  9.000E+00
      25     1     1     2     0     0 -1.317306668E+02  2.553447046E+01  1.440935397E+02  2.332229104E+02  1.250000000E+02  0.00000E+00  9.000E+00
      25     1     1     2     0     0  1.288088956E+02 -2.107251473E+01  3.931130833E+02  4.326646262E+02  1.250000000E+02  0.00000E+00  9.000E+00
      21     1     1     2   502   511  2.921771139E+00 -4.461955728E+00 -8.102426826E+00  9.700263707E+00  4.915124924E-07  0.00000E+00  9.000E+00
#rwgt            1           1   3.9139482913120555E-002           4       69088           0
</event>
<event>
      5   9999  3.79277E-02  5.38355E+01 -1.00000E+00  1.37269E-01
      21    -1     0     0   502   501  0.000000000E+00  0.000000000E+00  4.964365784E+02  4.964365784E+02  0.000000000E+00  0.00000E+00  9.000E+00
      21    -1     0     0   512   502  0.000000000E+00  0.000000000E+00 -1.947035874E+02  1.947035874E+02  0.000000000E+00  0.00000E+00  9.000E+00
      25     1     1     2     0     0 -3.261583126E+01  1.663954313E+01  3.959760487E+02  4.168485313E+02  1.250000000E+02  0.00000E+00  9.000E+00
      25     1     1     2     0     0  5.378972291E+01 -6.613628908E+01  1.546093302E+01  1.520900505E+02  1.250000000E+02  0.00000E+00  9.000E+00
      21     1     1     2   512   501 -2.117389165E+01  4.949674595E+01 -1.097039908E+02  1.222015840E+02  1.907348633E-06  0.00000E+00  9.000E+00
#rwgt            1           1   3.9372218235952508E-002           4       69449           0
</event>
<event>
      5   9999  3.79277E-02  1.69051E+01 -1.00000E+00  1.72627E-01
      21    -1     0     0   502   501  0.000000000E+00  0.000000000E+00  7.869591472E+01  7.869591472E+01  0.000000000E+00  0.00000E+00  9.000E+00
      21    -1     0     0   501   511  0.000000000E+00  0.000000000E+00 -3.771485388E+02  3.771485388E+02  0.000000000E+00  0.00000E+00  9.000E+00
      25     1     1     2     0     0  1.839039804E+01 -3.136640654E+01 -1.364114774E+01  1.308936175E+02  1.250000000E+02  0.00000E+00  9.000E+00
      25     1     1     2     0     0 -1.213633900E+01  4.707214762E+01 -2.173197562E+02  2.553741456E+02  1.250000000E+02  0.00000E+00  9.000E+00
      21     1     1     2   502   511 -6.254059046E+00 -1.570574109E+01 -6.749172018E+01  6.957669043E+01  9.536743164E-07  0.00000E+00  9.000E+00
#rwgt            1           1   3.5094160038006500E-002           4       69627           0
</event>
<event>
      5   9999  3.79277E-02  2.67204E+01 -1.00000E+00  1.56616E-01
      21    -1     0     0   502   512  0.000000000E+00  0.000000000E+00  6.665267641E+02  6.665267641E+02  0.000000000E+00  0.00000E+00  9.000E+00
      21    -1     0     0   501   502  0.000000000E+00  0.000000000E+00 -2.264549590E+02  2.264549590E+02  0.000000000E+00  0.00000E+00  9.000E+00
      25     1     1     2     0     0  1.764277089E+02 -7.681325170E+01  9.735855300E+01  2.492603056E+02  1.250000000E+02  0.00000E+00  9.000E+00
      25     1     1     2     0     0 -1.573721381E+02  5.808185964E+01 -7.717718895E+01  2.229816377E+02  1.250000000E+02  0.00000E+00  9.000E+00
      21     1     1     2   501   512 -1.905557083E+01  1.873139206E+01  4.198904411E+02  4.207397798E+02  5.394796609E-06  0.00000E+00  9.000E+00
#rwgt            1           1   1.5457128197028032E-002           4       69889           0
</event>
<event>
      5   9999  3.79277E-02  2.84875E+01 -1.00000E+00  1.54617E-01
      21    -1     0     0   502   501  0.000000000E+00  0.000000000E+00  2.560541023E+02  2.560541023E+02  0.000000000E+00  0.00000E+00  9.000E+00
       3    -1     0     0   501     0  0.000000000E+00  0.000000000E+00 -9.228037189E+02  9.228037189E+02  0.000000000E+00  0.00000E+00  9.000E+00
      25     1     1     2     0     0 -5.069870053E+01  2.577878928E+02 -7.822823040E+01  3.012799561E+02  1.250000000E+02  0.00000E+00  9.000E+00
      25     1     1     2     0     0  3.085071329E+01 -2.782229869E+02 -1.880064061E+01  3.071453419E+02  1.250000000E+02  0.00000E+00  9.000E+00
       3     1     1     2   502     0  1.984798724E+01  2.043509414E+01 -5.697207456E+02  5.704325233E+02  1.321449896E-05  0.00000E+00  9.000E+00
#rwgt            1           1   4.0281780774115372E-002           4       69968           0
</event>
<event>
      5   9999  3.79277E-02  4.14141E+01 -1.00000E+00  1.43911E-01
       1    -1     0     0   502     0  0.000000000E+00  0.000000000E+00  2.721146916E+02  2.721146916E+02  0.000000000E+00  0.00000E+00  9.000E+00
      21    -1     0     0   501   502  0.000000000E+00  0.000000000E+00 -1.927509746E+02  1.927509746E+02  0.000000000E+00  0.00000E+00  9.000E+00
      25     1     1     2     0     0 -5.515079911E+00 -1.501323428E+02 -3.588407881E+01  1.987028021E+02  1.250000000E+02  0.00000E+00  9.000E+00
      25     1     1     2     0     0 -1.485066517E+01  1.140717358E+02  3.155222515E+01  1.727814981E+02  1.250000000E+02  0.00000E+00  9.000E+00
       1     1     1     2   501     0  2.036574508E+01  3.606060697E+01  8.369557071E+01  9.338136594E+01  9.536743164E-07  0.00000E+00  9.000E+00
#rwgt            1           1   2.5541177224137197E-002           4       70109           0
</event>
<event>
      5   9999  3.79277E-02  5.98533E+01 -1.00000E+00  1.34760E-01
      21    -1     0     0   502   511  0.000000000E+00  0.000000000E+00  2.797193146E+02  2.797193146E+02  0.000000000E+00  0.00000E+00  9.000E+00
      21    -1     0     0   501   502  0.000000000E+00  0.000000000E+00 -2.222133751E+02  2.222133751E+02  0.000000000E+00  0.00000E+00  9.000E+00
      25     1     1     2     0     0  1.412042119E+02 -1.011087054E+02 -6.594246190E+01  2.239084814E+02  1.250000000E+02  0.00000E+00  9.000E+00
      25     1     1     2     0     0 -9.401069350E+01  6.429581215E+01  3.737718660E+01  1.731878057E+02  1.250000000E+02  0.00000E+00  9.000E+00
      21     1     1     2   501   511 -4.719351842E+01  3.681289329E+01  8.607121478E+01  1.048364026E+02  9.536743164E-07  0.00000E+00  9.000E+00
#rwgt            1           1  0.10779849831429635                4       70291           0
</event>
<event>
      5   9999  3.79277E-02  1.53413E+02 -1.00000E+00  1.16008E-01
      21    -1     0     0   502   501  0.000000000E+00  0.000000000E+00  7.137769160E+02  7.137769160E+02  0.000000000E+00  0.00000E+00  9.000E+00
      21    -1     0     0   512   502  0.000000000E+00  0.000000000E+00 -5.503698015E+02  5.503698015E+02  0.000000000E+00  0.00000E+00  9.000E+00
      25     1     1     2     0     0  3.359699760E+02 -1.199285357E+02  3.422214732E+01  3.795455623E+02  1.250000000E+02  0.00000E+00  9.000E+00
      25     1     1     2     0     0 -2.375754128E+02  2.376315399E+02  4.221815037E+02  5.538709666E+02  1.250000000E+02  0.00000E+00  9.000E+00
      21     1     1     2   512   501 -9.839456329E+01 -1.177030042E+02 -2.929965365E+02  3.307301887E+02  5.394796609E-06  0.00000E+00  9.000E+00
#rwgt            1           1   4.8350546731024707E-002           4       70452           0
</event>
<event>
      5   9999  3.79277E-02  5.16617E+00 -1.00000E+00  2.36062E-01
      21    -1     0     0   502   511  0.000000000E+00  0.000000000E+00  1.377167402E+02  1.377167402E+02  0.000000000E+00  0.00000E+00  9.000E+00
      21    -1     0     0   501   502  0.000000000E+00  0.000000000E+00 -2.644974053E+02  2.644974053E+02  0.000000000E+00  0.00000E+00  9.000E+00
      25     1     1     2     0     0  6.898950178E+01  7.999433427E+01  3.273165577E+00  1.636898240E+02  1.250000000E+02  0.00000E+00  9.000E+00
      25     1     1     2     0     0 -6.692049592E+01 -7.526057255E+01 -1.489205378E+02  2.189630862E+02  1.250000000E+02  0.00000E+00  9.000E+00
      21     1     1     2   501   511 -2.069005862E+00 -4.733761717E+00  1.886670714E+01  1.956123522E+01  2.384185791E-07  0.00000E+00  9.000E+00
#rwgt            1           1   4.0795147732451693E-002           4       70613           0
</event>
<event>
      5   9999  3.79277E-02  1.90535E+01 -1.00000E+00  1.68125E-01
      21    -1     0     0   502   512  0.000000000E+00  0.000000000E+00  3.694404084E+02  3.694404084E+02  0.000000000E+00  0.00000E+00  9.000E+00
      21    -1     0     0   501   502  0.000000000E+00  0.000000000E+00 -1.549460852E+02  1.549460852E+02  0.000000000E+00  0.00000E+00  9.000E+00
      25     1     1     2     0     0  1.739302525E+02  7.567273249E+01  1.524867833E+02  2.735969924E+02  1.250000000E+02  0.00000E+00  9.000E+00
      25     1     1     2     0     0 -1.569696624E+02 -6.699085917E+01  3.017244025E+01  2.136881520E+02  1.250000000E+02  0.00000E+00  9.000E+00
      21     1     1     2   501   512 -1.696059005E+01 -8.681873317E+00  3.183509968E+01  3.710134918E+01  0.000000000E+00  0.00000E+00  9.000E+00
#rwgt            1           1   4.3398300619049215E-002           4       71028           0
</event>
<event>
      5   9999  3.79277E-02  1.25167E+02 -1.00000E+00  1.19596E-01
      21    -1     0     0   511   501  0.000000000E+00  0.000000000E+00  2.466660495E+02  2.466660495E+02  0.000000000E+00  0.00000E+00  9.000E+00
      21    -1     0     0   501   502  0.000000000E+00  0.000000000E+00 -3.954042511E+02  3.954042511E+02  0.000000000E+00  0.00000E+00  9.000E+00
      25     1     1     2     0     0  1.679512438E+01  5.520720742E+01 -2.891978466E+02  3.202972158E+02  1.250000000E+02  0.00000E+00  9.000E+00
      25     1     1     2     0     0  1.041622531E+02 -2.301923652E+01  7.969981424E+01  1.826382233E+02  1.250000000E+02  0.00000E+00  9.000E+00
      21     1     1     2   511   502 -1.209573775E+02 -3.218797090E+01  6.075983074E+01  1.391348615E+02  2.236564522E-06  0.00000E+00  9.000E+00
#rwgt            1           1   4.1581032856791607E-002           4       71226           0
</event>
<event>
      5   9999  3.79277E-02  1.23165E+02 -1.00000E+00  1.19890E-01
      21    -1     0     0   502   501  0.000000000E+00  0.000000000E+00  1.864402656E+02  1.864402656E+02  0.000000000E+00  0.00000E+00  9.000E+00
      21    -1     0     0   512   502  0.000000000E+00  0.000000000E+00 -5.871781027E+02  5.871781027E+02  0.000000000E+00  0.00000E+00  9.000E+00
      25     1     1     2     0     0 -9.369491420E-01  1.290546816E+02 -3.588168150E+01  1.832170401E+02  1.250000000E+02  0.00000E+00  9.000E+00
      25     1     1     2     0     0 -4.375080107E+00 -2.521051705E+02 -1.006262657E+02  2.988759001E+02  1.250000000E+02  0.00000E+00  9.000E+00
      21     1     1     2   512   501  5.312029249E+00  1.230504889E+02 -2.642298900E+02  2.915254281E+02  3.814697266E-06  0.00000E+00  9.000E+00
#rwgt            1           1  0.14335234193418131                4       71274           0
</event>
<event>
      5   9999  3.79277E-02  2.94768E+01 -1.00000E+00  1.53572E-01
      21    -1     0     0   502   501  0.000000000E+00  0.000000000E+00  8.387025952E+02  8.387025952E+02  0.000000000E+00  0.00000E+00  9.000E+00
      21    -1     0     0   501   511  0.000000000E+00  0.000000000E+00 -6.215037215E+01  6.215037215E+01  0.000000000E+00  0.00000E+00  9.000E+00
      25     1     1     2     0     0 -5.296762325E+01  1.285075123E+02  2.418623290E+02  3.056830647E+02  1.250000000E+02  0.00000E+00  9.000E+00
      25     1     1     2     0     0  7.662636996E+01 -1.109249274E+02  5.349823081E+02  5.656916210E+02  1.250000000E+02  0.00000E+00  9.000E+00
      21     1     1     2   502   511 -2.365874671E+01 -1.758258493E+01 -2.924139764E-01  2.947828174E+01  8.655910616E-07  0.00000E+00  9.000E+00
#rwgt            1           1   3.3429130976474521E-002           4       71633           0
</event>
<event>
      5   9999  3.79277E-02  1.77742E+01 -1.00000E+00  1.70711E-01
      21    -1     0     0   502   501  0.000000000E+00  0.000000000E+00  7.705717511E+01  7.705717511E+01  0.000000000E+00  0.00000E+00  9.000E+00
      21    -1     0     0   501   512  0.000000000E+00  0.000000000E+00 -8.643790108E+02  8.643790108E+02  0.000000000E+00  0.00000E+00  9.000E+00
      25     1     1     2     0     0  4.581217499E+01 -1.550992961E+02 -1.274328524E+02  2.408706684E+02  1.250000000E+02  0.00000E+00  9.000E+00
      25     1     1     2     0     0 -3.688000906E+01  1.704661387E+02 -5.726067887E+02  6.114919247E+02  1.250000000E+02  0.00000E+00  9.000E+00
      21     1     1     2   502   512 -8.932165932E+00 -1.536684256E+01 -8.728219472E+01  8.907359291E+01  1.348699152E-06  0.00000E+00  9.000E+00
#rwgt            1           1   3.5186189311062301E-002           4       71885           0
</event>
<event>
      5   9999  3.79277E-02  3.63671E+01 -1.00000E+00  1.47452E-01
      21    -1     0     0   511   501  0.000000000E+00  0.000000000E+00  1.121115879E+02  1.121115879E+02  0.000000000E+00  0.00000E+00  9.000E+00
      21    -1     0     0   501   502  0.000000000E+00  0.000000000E+00 -4.276748312E+02  4.276748312E+02  0.000000000E+00  0.00000E+00  9.000E+00
      25     1     1     2     0     0  9.407469553E-01  1.624882417E+01  3.972431432E+01  1.321662984E+02  1.250000000E+02  0.00000E+00  9.000E+00
      25     1     1     2     0     0  2.837058882E+01  5.278125069E+00 -3.475061874E+02  3.704298844E+02  1.250000000E+02  0.00000E+00  9.000E+00
      21     1     1     2   511   502 -2.931133578E+01 -2.152694924E+01 -7.781370182E+00  3.719023623E+01  4.042583694E-07  0.00000E+00  9.000E+00
#rwgt            1           1   3.9193206405613204E-002           4       72160           0
</event>
<event>
      5   9999  3.79277E-02  4.30887E+01 -1.00000E+00  1.42865E-01
      21    -1     0     0   502   501  0.000000000E+00  0.000000000E+00  2.707999008E+02  2.707999008E+02  0.000000000E+00  0.00000E+00  9.000E+00
      21    -1     0     0   512   502  0.000000000E+00  0.000000000E+00 -2.391499142E+02  2.391499142E+02  0.000000000E+00  0.00000E+00  9.000E+00
      25     1     1     2     0     0 -1.427896376E+02 -3.482157489E+00  1.130886854E+02  2.209412972E+02  1.250000000E+02  0.00000E+00  9.000E+00
      25     1     1     2     0     0  1.698409784E+02  3.702105112E+01 -2.149132171E+01  2.151822323E+02  1.250000000E+02  0.00000E+00  9.000E+00
      21     1     1     2   512   501 -2.705134078E+01 -3.353889363E+01 -5.994737703E+01  7.382628554E+01  0.000000000E+00  0.00000E+00  9.000E+00
#rwgt            1           1   4.2713123177530281E-002           4       72283           0
</event>
<event>
      5   9999  3.79277E-02  6.22525E+01 -1.00000E+00  1.33854E-01
      21    -1     0     0   502   501  0.000000000E+00  0.000000000E+00  1.848863530E+02  1.848863530E+02  0.000000000E+00  0.00000E+00  9.000E+00
      21    -1     0     0   511   502  0.000000000E+00  0.000000000E+00 -2.750538902E+02  2.750538902E+02  0.000000000E+00  0.00000E+00  9.000E+00
      25     1     1     2     0     0  2.184986304E+00 -4.388505970E+01  1.131293457E+02  1.742237684E+02  1.250000000E+02  0.00000E+00  9.000E+00
      25     1     1     2     0     0 -3.176629747E+01 -1.089011016E+01 -9.410841982E+01  1.600283938E+02  1.250000000E+02  0.00000E+00  9.000E+00
      21     1     1     2   511   501  2.958131117E+01  5.477516986E+01 -1.091884631E+02  1.256880809E+02  2.336015456E-06  0.00000E+00  9.000E+00
#rwgt            1           1   4.6390731618169034E-002           4       72703           0
</event>
<event>
      5   9999  3.79277E-02  5.51156E+01 -1.00000E+00  1.36704E-01
      21    -1     0     0   502   501  0.000000000E+00  0.000000000E+00  4.406703025E+02  4.406703025E+02  0.000000000E+00  0.00000E+00  9.000E+00
       1    -1     0     0   501     0  0.000000000E+00  0.000000000E+00 -4.686247031E+02  4.686247031E+02  0.000000000E+00  0.00000E+00  9.000E+00
      25     1     1     2     0     0  3.655514296E+01 -2.220525951E+02  1.128152542E+02  2.810621195E+02  1.250000000E+02  0.00000E+00  9.000E+00
      25     1     1     2     0     0 -5.890784127E+01  1.716731520E+02  1.911746762E+02  2.917440003E+02  1.250000000E+02  0.00000E+00  9.000E+00
       1     1     1     2   502     0  2.235269832E+01  5.037944302E+01 -3.319443310E+02  3.364888858E+02  5.394796609E-06  0.00000E+00  9.000E+00
#rwgt            1           1   6.5536212484225059E-002           4       72767           0
</event>
<event>
      5   9999  3.79277E-02  6.40953E+01 -1.00000E+00  1.33189E-01
      21    -1     0     0   502   511  0.000000000E+00  0.000000000E+00  5.096975892E+02  5.096975892E+02  0.000000000E+00  0.00000E+00  9.000E+00
      21    -1     0     0   501   502  0.000000000E+00  0.000000000E+00 -3.072163097E+02  3.072163097E+02  0.000000000E+00  0.00000E+00  9.000E+00
      25     1     1     2     0     0 -9.877945842E+01  1.661186613E+02 -1.387559886E+02  2.687582844E+02  1.250000000E+02  0.00000E+00  9.000E+00
      25     1     1     2     0     0  1.004528045E+02 -2.301921537E+02  9.886780380E+01  2.974542589E+02  1.250000000E+02  0.00000E+00  9.000E+00
      21     1     1     2   501   511 -1.673346034E+00  6.407349232E+01  2.423694642E+02  2.507013556E+02  3.814697266E-06  0.00000E+00  9.000E+00
#rwgt            1           1   3.8272355027594192E-002           4       72862           0
</event>
<event>
      5   9999  3.79277E-02  6.80424E+01 -1.00000E+00  1.31848E-01
      21    -1     0     0   502   501  0.000000000E+00  0.000000000E+00  8.875394017E+01  8.875394017E+01  0.000000000E+00  0.00000E+00  9.000E+00
      21    -1     0     0   501   512  0.000000000E+00  0.000000000E+00 -8.994036766E+02  8.994036766E+02  0.000000000E+00  0.00000E+00  9.000E+00
      25     1     1     2     0     0  7.838152583E+01  1.766017489E+02 -2.386717051E+02  3.315433970E+02  1.250000000E+02  0.00000E+00  9.000E+00
      25     1     1     2     0     0 -1.060979875E+02 -1.144602327E+02 -2.166183735E+02  2.947989951E+02  1.250000000E+02  0.00000E+00  9.000E+00
      21     1     1     2   502   512  2.771646167E+01 -6.214151627E+01 -3.553596579E+02  3.618152246E+02  0.000000000E+00  0.00000E+00  9.000E+00
#rwgt            1           1   3.6724860807071533E-002           4       72955           0
</event>
<event>
      5   9999  3.79277E-02  3.55272E+01 -1.00000E+00  1.48108E-01
      21    -1     0     0   511   501  0.000000000E+00  0.000000000E+00  7.479722238E+02  7.479722238E+02  0.000000000E+00  0.00000E+00  9.000E+00
      21    -1     0     0   501   502  0.000000000E+00  0.000000000E+00 -3.410172014E+02  3.410172014E+02  0.000000000E+00  0.00000E+00  9.000E+00
      25     1     1     2     0     0 -1.190030016E+02  1.162958033E+02 -1.522494955E+02  2.578591420E+02  1.250000000E+02  0.00000E+00  9.000E+00
      25     1     1     2     0     0  8.561043808E+01 -1.284250278E+02 -6.265146862E+01  2.082602732E+02  1.250000000E+02  0.00000E+00  9.000E+00
      21     1     1     2   511   502  3.339256354E+01  1.212922449E+01  6.218559864E+02  6.228700099E+02  0.000000000E+00  0.00000E+00  9.000E+00
#rwgt            1           1   2.5305691306155207E-002           4       73013           0
</event>
<event>
      5   9999  3.79277E-02  2.27164E+01 -1.00000E+00  1.61931E-01
      21    -1     0     0   502   512  0.000000000E+00  0.000000000E+00  5.164880942E+02  5.164880942E+02  0.000000000E+00  0.00000E+00  9.000E+00
      21    -1     0     0   501   502  0.000000000E+00  0.000000000E+00 -2.367092365E+02  2.367092365E+02  0.000000000E+00  0.00000E+00  9.000E+00
      25     1     1     2     0     0 -5.154667064E+01  1.442354617E+02 -1.125571177E+02  2.274973240E+02  1.250000000E+02  0.00000E+00  9.000E+00
      25     1     1     2     0     0  7.268211286E+01 -1.359090710E+02  8.229647207E+01  2.148294077E+02  1.250000000E+02  0.00000E+00  9.000E+00
      21     1     1     2   501   512 -2.113544222E+01 -8.326390752E+00  3.100395033E+02  3.108705990E+02  5.394796609E-06  0.00000E+00  9.000E+00
#rwgt            1           1   1.2854498390655869E-002           4       73174           0
</event>
<event>
      5   9999  3.79277E-02  3.25114E+01 -1.00000E+00  1.50654E-01
      21    -1     0     0   502   511  0.000000000E+00  0.000000000E+00  1.215755964E+03  1.215755964E+03  0.000000000E+00  0.00000E+00  9.000E+00
      21    -1     0     0   501   502  0.000000000E+00  0.000000000E+00 -7.632628266E+01  7.632628266E+01  0.000000000E+00  0.00000E+00  9.000E+00
      25     1     1     2     0     0  1.243366301E+01  1.728120822E+02  2.928965699E+02  3.625355326E+02  1.250000000E+02  0.00000E+00  9.000E+00
      25     1     1     2     0     0 -7.914697933E+00 -1.406162412E+02  1.745105865E+02  2.567382218E+02  1.250000000E+02  0.00000E+00  9.000E+00
      21     1     1     2   501   511 -4.518965073E+00 -3.219584096E+01  6.720225248E+02  6.728084921E+02  1.078959322E-05  0.00000E+00  9.000E+00
#rwgt            1           1   4.1580937244798430E-002           4       73402           0
</event>
<event>
      5   9999  3.79277E-02  7.20844E+01 -1.00000E+00  1.30579E-01
       3    -1     0     0   502     0  0.000000000E+00  0.000000000E+00  5.560449151E+02  5.560449151E+02  0.000000000E+00  0.00000E+00  9.000E+00
      21    -1     0     0   501   502  0.000000000E+00  0.000000000E+00 -5.396339380E+02  5.396339380E+02  0.000000000E+00  0.00000E+00  9.000E+00
      25     1     1     2     0     0  1.710296913E+02 -1.779443511E+02 -2.430666710E+02  3.682685894E+02  1.250000000E+02  0.00000E+00  9.000E+00
      25     1     1     2     0     0 -1.155299929E+02  2.239437001E+02 -1.450678600E+02  3.164927236E+02  1.250000000E+02  0.00000E+00  9.000E+00
       3     1     1     2   501     0 -5.549969845E+01 -4.599934902E+01  4.045455081E+02  4.109175401E+02  7.629394531E-06  0.00000E+00  9.000E+00
#rwgt            1           1   2.6723596896749430E-002           4       73522           0
</event>
<event>
      5   9999  3.79277E-02  1.24972E+02 -1.00000E+00  1.19625E-01
      21    -1     0     0   502   501  0.000000000E+00  0.000000000E+00  5.286104731E+02  5.286104731E+02  0.000000000E+00  0.00000E+00  9.000E+00
      21    -1     0     0   511   502  0.000000000E+00  0.000000000E+00 -1.780444371E+02  1.780444371E+02  0.000000000E+00  0.00000E+00  9.000E+00
      25     1     1     2     0     0  7.179042962E+01 -5.152726152E+00 -2.003626534E+01  1.456257817E+02  1.250000000E+02  0.00000E+00  9.000E+00
      25     1     1     2     0     0  4.936392014E+01  3.580572961E+01  4.076161781E+02  4.306910674E+02  1.250000000E+02  0.00000E+00  9.000E+00
      21     1     1     2   511   501 -1.211543498E+02 -3.065300346E+01 -3.701387678E+01  1.303380611E+02  2.185142372E-06  0.00000E+00  9.000E+00
#rwgt            1           1   3.5989601950847827E-002           4       73678           0
</event>
<event>
      5   9999  3.79277E-02  1.93249E+01 -1.00000E+00  1.67609E-01
      21    -1     0     0   502   512  0.000000000E+00  0.000000000E+00  3.781134761E+02  3.781134761E+02  0.000000000E+00  0.00000E+00  9.000E+00
      21    -1     0     0   501   502  0.000000000E+00  0.000000000E+00 -1.150679706E+02  1.150679706E+02  0.000000000E+00  0.00000E+00  9.000E+00
      25     1     1     2     0     0 -3.140781915E+01 -1.367938031E+02  1.554297248E+02  2.438901290E+02  1.250000000E+02  0.00000E+00  9.000E+00
      25     1     1     2     0     0  1.802874959E+01  1.507384017E+02  7.322480240E+01  2.098427345E+02  1.250000000E+02  0.00000E+00  9.000E+00
      21     1     1     2   501   512  1.337906956E+01 -1.394459854E+01  3.439097827E+01  3.944858321E+01  6.743495762E-07  0.00000E+00  9.000E+00
#rwgt            1           1   4.2595305087648805E-002           4       73832           0
</event>
<event>
      5   9999  3.79277E-02  4.85155E+01 -1.00000E+00  1.39826E-01
      21    -1     0     0   502   501  0.000000000E+00  0.000000000E+00  2.486617518E+02  2.486617518E+02  0.000000000E+00  0.00000E+00  9.000E+00
      -1    -1     0     0     0   502  0.000000000E+00  0.000000000E+00 -7.861761355E+02  7.861761355E+02  0.000000000E+00  0.00000E+00  9.000E+00
      25     1     1     2     0     0  1.467978502E+02  1.288173284E+02  1.571961556E+02  2.801412934E+02  1.250000000E+02  0.00000E+00  9.000E+00
      25     1     1     2     0     0 -1.512186485E+02 -8.050366479E+01 -3.706925770E+02  4.270666299E+02  1.250000000E+02  0.00000E+00  9.000E+00
      -1     1     1     2     0   501  4.420798235E+00 -4.831366364E+01 -3.240179622E+02  3.276299641E+02  3.814697266E-06  0.00000E+00  9.000E+00
#rwgt            1           1   4.4585380726732834E-002           4       73973           0
</event>
<event>
      5   9999  3.79277E-02  2.70420E+01 -1.00000E+00  1.56238E-01
      21    -1     0     0   502   501  0.000000000E+00  0.000000000E+00  3.971344588E+01  3.971344588E+01  0.000000000E+00  0.00000E+00  9.000E+00
      21    -1     0     0   501   511  0.000000000E+00  0.000000000E+00 -7.280927871E+02  7.280927871E+02  0.000000000E+00  0.00000E+00  9.000E+00
      25     1     1     2     0     0 -5.733402010E+01 -3.598942992E+01 -4.015545738E+02  4.259735962E+02  1.250000000E+02  0.00000E+00  9.000E+00
      25     1     1     2     0     0  3.907707402E+01  5.593819186E+01 -1.692766604E+02  2.212141198E+02  1.250000000E+02  0.00000E+00  9.000E+00
      21     1     1     2   502   511  1.825694609E+01 -1.994876194E+01 -1.175481070E+02  1.206185170E+02  1.348699152E-06  0.00000E+00  9.000E+00
#rwgt            1           1  0.14115988698306656                4       74109           0
</event>
<event>
      5   9999  3.92078E-02  1.10797E+01 -1.00000E+00  1.90747E-01
      21    -1     0     0   502   512  0.000000000E+00  0.000000000E+00  6.082830366E+02  6.082830366E+02  0.000000000E+00  0.00000E+00  9.000E+00
      21    -1     0     0   501   502  0.000000000E+00  0.000000000E+00 -3.142044443E+02  3.142044443E+02  0.000000000E+00  0.00000E+00  9.000E+00
      25     1     1     2     0     0  2.715668939E+02 -8.762882243E+01  4.158703873E+02  5.196157883E+02  1.250000000E+02  0.00000E+00  9.000E+00
      25     1     1     2     0     0 -2.825750232E+02  8.888616447E+01 -1.628048331E+02  3.603884122E+02  1.250000000E+02  0.00000E+00  9.000E+00
      21     1     1     2   501   512  1.100812936E+01 -1.257342039E+00  4.101303800E+01  4.248328032E+01  6.743495762E-07  0.00000E+00  9.000E+00
#rwgt            1           1  0.33436487306012969                4       74326           0
</event>
<event>
      5   9999  3.79277E-02  5.38519E+01 -1.00000E+00  1.37261E-01
      21    -1     0     0   502   501  0.000000000E+00  0.000000000E+00  1.465108222E+02  1.465108222E+02  0.000000000E+00  0.00000E+00  9.000E+00
      21    -1     0     0   511   502  0.000000000E+00  0.000000000E+00 -4.868540146E+02  4.868540146E+02  0.000000000E+00  0.00000E+00  9.000E+00
      25     1     1     2     0     0 -3.554005282E+01  1.548976441E+01  8.895791344E+01  1.582451848E+02  1.250000000E+02  0.00000E+00  9.000E+00
      25     1     1     2     0     0  4.495843989E+01 -6.851167505E+01 -3.257035772E+02  3.583614532E+02  1.250000000E+02  0.00000E+00  9.000E+00
      21     1     1     2   511   501 -9.418387072E+00  5.302191065E+01 -1.035975287E+02  1.167581987E+02  1.348699152E-06  0.00000E+00  9.000E+00
#rwgt            1           1   4.7839010954326001E-002           4       74569           0
</event>
<event>
      5   9999  3.79277E-02  2.34726E+01 -1.00000E+00  1.60829E-01
      21    -1     0     0   502   501  0.000000000E+00  0.000000000E+00  2.323220983E+02  2.323220983E+02  0.000000000E+00  0.00000E+00  9.000E+00
      21    -1     0     0   501   512  0.000000000E+00  0.000000000E+00 -3.410233913E+02  3.410233913E+02  0.000000000E+00  0.00000E+00  9.000E+00
      25     1     1     2     0     0  1.315047578E+02  6.647329139E+01 -1.321213103E+02  2.340795600E+02  1.250000000E+02  0.00000E+00  9.000E+00
      25     1     1     2     0     0 -1.353719797E+02 -4.332141879E+01  1.303288461E+02  2.298106315E+02  1.250000000E+02  0.00000E+00  9.000E+00
      21     1     1     2   502   512  3.867221848E+00 -2.315187260E+01 -1.069088288E+02  1.094552981E+02  1.348699152E-06  0.00000E+00  9.000E+00
#rwgt            1           1   4.7646061848906469E-002           4       74797           0
</event>
<event>
      5   9999  3.79277E-02  6.89369E+01 -1.00000E+00  1.31558E-01
      -2    -1     0     0     0   501  0.000000000E+00  0.000000000E+00  1.277706065E+03  1.277706065E+03  0.000000000E+00  0.00000E+00  9.000E+00
      21    -1     0     0   501   502  0.000000000E+00  0.000000000E+00 -2.004184666E+02  2.004184666E+02  0.000000000E+00  0.00000E+00  9.000E+00
      25     1     1     2     0     0 -3.534336562E+01 -1.421501812E+02 -8.776240622E+01  2.116201017E+02  1.250000000E+02  0.00000E+00  9.000E+00
      25     1     1     2     0     0 -2.437313577E+01  1.077084778E+02  9.053590223E+01  1.897812307E+02  1.250000000E+02  0.00000E+00  9.000E+00
      -2     1     1     2     0   502  5.971650139E+01  3.444170336E+01  1.074514103E+03  1.076723200E+03  2.157918644E-05  0.00000E+00  9.000E+00
#rwgt            1           1   3.1296117442923869E-002           4       75080           0
</event>
<event>
      5   9999  3.79277E-02  3.61119E+01 -1.00000E+00  1.47649E-01
      21    -1     0     0   502   501  0.000000000E+00  0.000000000E+00  2.093716003E+01  2.093716003E+01  0.000000000E+00  0.00000E+00  9.000E+00
       1    -1     0     0   501     0  0.000000000E+00  0.000000000E+00 -2.524653814E+03  2.524653814E+03  0.000000000E+00  0.00000E+00  9.000E+00
      25     1     1     2     0     0  3.458296173E+01  7.036306247E+01 -3.395845991E+02  3.702561840E+02  1.250000000E+02  0.00000E+00  9.000E+00
      25     1     1     2     0     0 -7.027954294E+01 -7.582393439E+01 -1.248902100E+03  1.259392686E+03  1.250000000E+02  0.00000E+00  9.000E+00
       1     1     1     2   502     0  3.569658120E+01  5.460871916E+00 -9.152299552E+02  9.159421040E+02  1.078959322E-05  0.00000E+00  9.000E+00
#rwgt            1           1   3.5156088708277987E-002           4       75227           0
</event>
<event>
      5   9999  3.79277E-02  6.11108E+01 -1.00000E+00  1.34279E-01
      21    -1     0     0   502   511  0.000000000E+00  0.000000000E+00  1.308287548E+02  1.308287548E+02  0.000000000E+00  0.00000E+00  9.000E+00
      21    -1     0     0   501   502  0.000000000E+00  0.000000000E+00 -7.216776571E+02  7.216776571E+02  0.000000000E+00  0.00000E+00  9.000E+00
      25     1     1     2     0     0  3.486052323E+01 -1.482915515E+02 -5.905186114E+02  6.225294136E+02  1.250000000E+02  0.00000E+00  9.000E+00
      25     1     1     2     0     0 -1.929788925E+01  8.919556730E+01 -3.643268339E+01  1.589987364E+02  1.250000000E+02  0.00000E+00  9.000E+00
      21     1     1     2   501   511 -1.556263398E+01  5.909598421E+01  3.610239253E+01  7.097826197E+01  1.348699152E-06  0.00000E+00  9.000E+00
#rwgt            1           1   5.7843441198552357E-002           4       75303           0
</event>
<event>
      5   9999  3.79277E-02  3.72294E+01 -1.00000E+00  1.46800E-01
      21    -1     0     0   502   512  0.000000000E+00  0.000000000E+00  3.129973555E+01  3.129973555E+01  0.000000000E+00  0.00000E+00  9.000E+00
      21    -1     0     0   501   502  0.000000000E+00  0.000000000E+00 -1.248197731E+03  1.248197731E+03  0.000000000E+00  0.00000E+00  9.000E+00
      25     1     1     2     0     0  1.063208905E+02 -8.359550344E+00 -4.603414061E+02  4.887875039E+02  1.250000000E+02  0.00000E+00  9.000E+00
      25     1     1     2     0     0 -1.333656792E+02  3.394482816E+01 -6.882361014E+02  7.129043323E+02  1.250000000E+02  0.00000E+00  9.000E+00
      21     1     1     2   501   512  2.704478873E+01 -2.558527781E+01 -6.832048827E+01  7.780563062E+01  1.907348633E-06  0.00000E+00  9.000E+00
#rwgt            1           1   3.8763423179844075E-002           4       75496           0
</event>
<event>
      5   9999  5.08999E-02  8.60047E+01 -1.00000E+00  1.26846E-01
       2    -1     0     0   502     0  0.000000000E+00  0.000000000E+00  1.671928654E+03  1.671928654E+03  0.000000000E+00  0.00000E+00  9.000E+00
      21    -1     0     0   501   502  0.000000000E+00  0.000000000E+00 -3.560915278E+02  3.560915278E+02  0.000000000E+00  0.00000E+00  9.000E+00
      25     1     1     2     0     0  6.058666188E+01 -1.072293469E+02 -2.292417746E+02  2.886964975E+02  1.250000000E+02  0.00000E+00  9.000E+00
      25     1     1     2     0     0  2.541152253E+01  1.082879899E+02 -2.299248909E+01  1.688954966E+02  1.250000000E+02  0.00000E+00  9.000E+00
       2     1     1     2   501     0 -8.599818442E+01 -1.058643033E+00  1.568071390E+03  1.570428188E+03  0.000000000E+00  0.00000E+00  9.000E+00
#rwgt            2          18   5.5129978468337976E-002           4       75716           0
</event>
<event>
      5   9999  3.79277E-02  1.08642E+01 -1.00000E+00  1.91686E-01
      21    -1     0     0   502   501  0.000000000E+00  0.000000000E+00  2.014753373E+02  2.014753373E+02  0.000000000E+00  0.00000E+00  9.000E+00
      21    -1     0     0   501   511  0.000000000E+00  0.000000000E+00 -3.042785179E+02  3.042785179E+02  0.000000000E+00  0.00000E+00  9.000E+00
      25     1     1     2     0     0 -1.273931597E+02  2.158543895E+01 -5.173981145E+01  1.870747348E+02  1.250000000E+02  0.00000E+00  9.000E+00
      25     1     1     2     0     0  1.213820059E+02 -3.063510144E+01  7.499800492E+01  1.921504659E+02  1.250000000E+02  0.00000E+00  9.000E+00
      21     1     1     2   502   511  6.011153833E+00  9.049662484E+00 -1.260613741E+02  1.265286545E+02  1.907348633E-06  0.00000E+00  9.000E+00
#rwgt            1           1   3.5856428114330381E-002           4       75795           0
</event>
<event>
      5   9999  3.79277E-02  7.97727E+00 -1.00000E+00  2.07832E-01
      21    -1     0     0   512   501  0.000000000E+00  0.000000000E+00  9.750115013E+01  9.750115013E+01  0.000000000E+00  0.00000E+00  9.000E+00
      21    -1     0     0   501   502  0.000000000E+00  0.000000000E+00 -1.084664470E+03  1.084664470E+03  0.000000000E+00  0.00000E+00  9.000E+00
      25     1     1     2     0     0  1.735285845E+02  2.989275125E+01 -2.278198507E+02  3.138990771E+02  1.250000000E+02  0.00000E+00  9.000E+00
      25     1     1     2     0     0 -1.727512195E+02 -2.195344571E+01 -7.992880034E+02  8.275332320E+02  1.250000000E+02  0.00000E+00  9.000E+00
      21     1     1     2   512   502 -7.773649918E-01 -7.939305539E+00  3.994453394E+01  4.073331144E+01  1.168007728E-06  0.00000E+00  9.000E+00
#rwgt            1           1   1.6215780692170074E-002           4       76006           0
</event>
<event>
      5   9999  3.79277E-02  6.27712E+01 -1.00000E+00  1.33664E-01
      21    -1     0     0   502   501  0.000000000E+00  0.000000000E+00  6.625934949E+01  6.625934949E+01  0.000000000E+00  0.00000E+00  9.000E+00
      21    -1     0     0   511   502  0.000000000E+00  0.000000000E+00 -1.172220560E+03  1.172220560E+03  0.000000000E+00  0.00000E+00  9.000E+00
      25     1     1     2     0     0  8.297588036E+01  2.031897771E+02 -5.261065324E+02  5.835958924E+02  1.250000000E+02  0.00000E+00  9.000E+00
      25     1     1     2     0     0 -1.289541724E+02 -1.604555175E+02 -4.402639314E+02  5.018291352E+02  1.250000000E+02  0.00000E+00  9.000E+00
      21     1     1     2   511   501  4.597829205E+01 -4.273425957E+01 -1.395907466E+02  1.530548817E+02  0.000000000E+00  0.00000E+00  9.000E+00
#rwgt            2          11   2.6418070277823024E-003           4       76421           0
</event>
<event>
      5   9999  3.79277E-02  4.24982E+01 -1.00000E+00  1.43227E-01
      21    -1     0     0   502   501  0.000000000E+00  0.000000000E+00  2.557571201E+02  2.557571201E+02  0.000000000E+00  0.00000E+00  9.000E+00
      -2    -1     0     0     0   502  0.000000000E+00  0.000000000E+00 -2.792673563E+02  2.792673563E+02  0.000000000E+00  0.00000E+00  9.000E+00
      25     1     1     2     0     0  5.269876820E+01  5.494328116E+01  1.048077061E+02  1.800154982E+02  1.250000000E+02  0.00000E+00  9.000E+00
      25     1     1     2     0     0 -4.303863440E+01 -9.632897510E+01  5.051410790E+01  1.711965846E+02  1.250000000E+02  0.00000E+00  9.000E+00
      -2     1     1     2     0   501 -9.660133795E+00  4.138569394E+01 -1.788320503E+02  1.838123936E+02  1.907348633E-06  0.00000E+00  9.000E+00
#rwgt            1           1   4.4953791741838889E-002           4       76441           0
</event>
<event>
      5   9999  3.79277E-02  2.38952E+01 -1.00000E+00  1.60235E-01
      21    -1     0     0   511   501  0.000000000E+00  0.000000000E+00  1.083174062E+03  1.083174062E+03  0.000000000E+00  0.00000E+00  9.000E+00
      21    -1     0     0   501   502  0.000000000E+00  0.000000000E+00 -7.513315009E+01  7.513315009E+01  0.000000000E+00  0.00000E+00  9.000E+00
      25     1     1     2     0     0 -1.301797018E+02  5.126451942E+01  8.318316802E+01  2.052297375E+02  1.250000000E+02  0.00000E+00  9.000E+00
      25     1     1     2     0     0  1.341692462E+02 -7.482431579E+01  8.824401484E+02  9.043924372E+02  1.250000000E+02  0.00000E+00  9.000E+00
      21     1     1     2   511   502 -3.989544444E+00  2.355979637E+01  4.241759597E+01  4.868503792E+01  0.000000000E+00  0.00000E+00  9.000E+00
#rwgt            1           1   5.4526229931952767E-002           4       76562           0
</event>
<event>
      5   9999  3.79277E-02  2.94983E+01 -1.00000E+00  1.53550E-01
      21    -1     0     0   512   501  0.000000000E+00  0.000000000E+00  1.031151115E+03  1.031151115E+03  0.000000000E+00  0.00000E+00  9.000E+00
      21    -1     0     0   501   502  0.000000000E+00  0.000000000E+00 -1.362306859E+02  1.362306859E+02  0.000000000E+00  0.00000E+00  9.000E+00
      25     1     1     2     0     0  7.089891590E+01 -1.493907055E+02 -2.971629424E+01  2.094094012E+02  1.250000000E+02  0.00000E+00  9.000E+00
      25     1     1     2     0     0 -5.039055785E+01  1.705934840E+02  8.576794933E+02  8.848053223E+02  1.250000000E+02  0.00000E+00  9.000E+00
      21     1     1     2   512   502 -2.050835805E+01 -2.120277846E+01  6.695722967E+01  7.316707708E+01  9.536743164E-07  0.00000E+00  9.000E+00
#rwgt            1           1   4.5530211319625542E-002           4       76733           0
</event>
<event>
      5   9999  3.79277E-02  4.55502E+01 -1.00000E+00  1.41425E-01
      21    -1     0     0   511   501  0.000000000E+00  0.000000000E+00  3.884073026E+01  3.884073026E+01  0.000000000E+00  0.00000E+00  9.000E+00
      21    -1     0     0   501   502  0.000000000E+00  0.000000000E+00 -8.157755223E+02  8.157755223E+02  0.000000000E+00  0.00000E+00  9.000E+00
      25     1     1     2     0     0 -5.423599030E+01 -3.486670378E+01 -5.153547602E+02  5.342029189E+02  1.250000000E+02  0.00000E+00  9.000E+00
      25     1     1     2     0     0  5.838704879E+01 -1.049395503E+01 -1.807003908E+02  2.275891073E+02  1.250000000E+02  0.00000E+00  9.000E+00
      21     1     1     2   511   502 -4.151058485E+00  4.536065881E+01 -8.087964106E+01  9.282422632E+01  1.348699152E-06  0.00000E+00  9.000E+00
#rwgt            1           1   3.3542712723493191E-002           4       76921           0
</event>
<event>
      5   9999  3.79277E-02  2.75278E+01 -1.00000E+00  1.55680E-01
      21    -1     0     0   512   501  0.000000000E+00  0.000000000E+00  5.730284131E+01  5.730284131E+01  0.000000000E+00  0.00000E+00  9.000E+00
      21    -1     0     0   501   502  0.000000000E+00  0.000000000E+00 -1.077097036E+03  1.077097036E+03  0.000000000E+00  0.00000E+00  9.000E+00
      25     1     1     2     0     0  2.053715440E+02 -3.515559552E+01 -5.945420474E+02  6.422761346E+02  1.250000000E+02  0.00000E+00  9.000E+00
      25     1     1     2     0     0 -1.778456595E+02  3.483220656E+01 -3.784702407E+02  4.378436756E+02  1.250000000E+02  0.00000E+00  9.000E+00
      21     1     1     2   512   502 -2.752588452E+01  3.233889642E-01 -4.678190704E+01  5.428006748E+01  1.168007728E-06  0.00000E+00  9.000E+00
#rwgt            1           1  0.16719607196068195                4       77026           0
</event>
<event>
      5   9999  3.79277E-02  2.48435E+01 -1.00000E+00  1.58955E-01
      21    -1     0     0   511   501  0.000000000E+00  0.000000000E+00  3.033826366E+02  3.033826366E+02  0.000000000E+00  0.00000E+00  9.000E+00
      21    -1     0     0   501   502  0.000000000E+00  0.000000000E+00 -5.043936430E+02  5.043936430E+02  0.000000000E+00  0.00000E+00  9.000E+00
      25     1     1     2     0     0 -2.765374996E+02 -7.553842856E+01 -2.975801277E+02  4.316919912E+02  1.250000000E+02  0.00000E+00  9.000E+00
      25     1     1     2     0     0  3.013255518E+02  7.719800018E+01  7.578485238E+01  3.436931237E+02  1.250000000E+02  0.00000E+00  9.000E+00
      21     1     1     2   511   502 -2.478805220E+01 -1.659571626E+00  2.078426903E+01  3.239116468E+01  4.129530925E-07  0.00000E+00  9.000E+00
#rwgt            1           1   7.2051145089845670E-002           4       77146           0
</event>
<event>
      5   9999  3.79277E-02  1.26283E+02 -1.00000E+00  1.19435E-01
      21    -1     0     0   502   501  0.000000000E+00  0.000000000E+00  2.957808735E+02  2.957808735E+02  0.000000000E+00  0.00000E+00  9.000E+00
       2    -1     0     0   501     0  0.000000000E+00  0.000000000E+00 -1.372366105E+03  1.372366105E+03  0.000000000E+00  0.00000E+00  9.000E+00
      25     1     1     2     0     0 -2.573655081E+02  1.362835899E+02  9.447641822E+01  3.306977702E+02  1.250000000E+02  0.00000E+00  9.000E+00
      25     1     1     2     0     0  2.982513323E+02 -1.680211859E+01 -2.535213485E+02  4.112593374E+02  1.250000000E+02  0.00000E+00  9.000E+00
       2     1     1     2   502     0 -4.088582427E+01 -1.194814713E+02 -9.175403012E+02  9.261898709E+02  1.078959322E-05  0.00000E+00  9.000E+00
#rwgt            2          13   1.0775505927075851E-003           4       77318           0
</event>
<event>
      5   9999  3.79277E-02  8.79611E+01 -1.00000E+00  1.26387E-01
      21    -1     0     0   502   501  0.000000000E+00  0.000000000E+00  1.550204203E+02  1.550204203E+02  0.000000000E+00  0.00000E+00  9.000E+00
       2    -1     0     0   501     0  0.000000000E+00  0.000000000E+00 -1.086838225E+03  1.086838225E+03  0.000000000E+00  0.00000E+00  9.000E+00
      25     1     1     2     0     0 -1.745675236E+02  1.372451530E+02 -2.249583228E+02  3.399136644E+02  1.250000000E+02  0.00000E+00  9.000E+00
      25     1     1     2     0     0  2.462454616E+02 -8.626062714E+01 -1.278704550E+02  3.163124664E+02  1.250000000E+02  0.00000E+00  9.000E+00
       2     1     1     2   502     0 -7.167793804E+01 -5.098452583E+01 -5.789890265E+02  5.856325140E+02  0.000000000E+00  0.00000E+00  9.000E+00
#rwgt            1           1   4.6812071364479645E-002           4       77382           0
</event>
<event>
      5   9999 -3.79277E-02  2.76397E+01 -1.00000E+00  1.55553E-01
      21    -1     0     0   502   501  0.000000000E+00  0.000000000E+00  5.337240789E+02  5.337240789E+02  0.000000000E+00  0.00000E+00  9.000E+00
      21    -1     0     0   511   502  0.000000000E+00  0.000000000E+00 -1.156996876E+02  1.156996876E+02  0.000000000E+00  0.00000E+00  9.000E+00
      25     1     1     2     0     0  2.071081441E+02 -1.290227824E+01  2.605334563E+02  3.557568467E+02  1.250000000E+02  0.00000E+00  9.000E+00
      25     1     1     2     0     0 -1.801227690E+02  1.888088647E+01  1.432268104E+02  2.625635523E+02  1.250000000E+02  0.00000E+00  9.000E+00
      21     1     1     2   511   501 -2.698537508E+01 -5.978608231E+00  1.426412459E+01  3.110336758E+01  3.371747881E-07  0.00000E+00  9.000E+00
#rwgt            1           1 -0.28486197155533682                4       77567           0
</event>
<event>
      5   9999  3.79277E-02  1.98733E+01 -1.00000E+00  1.66597E-01
      21    -1     0     0   502   501  0.000000000E+00  0.000000000E+00  1.453643851E+02  1.453643851E+02  0.000000000E+00  0.00000E+00  9.000E+00
      21    -1     0     0   512   502  0.000000000E+00  0.000000000E+00 -5.572842095E+02  5.572842095E+02  0.000000000E+00  0.00000E+00  9.000E+00
      25     1     1     2     0     0  1.808793797E+02 -1.268209915E+02 -3.065864873E+02  3.980215925E+02  1.250000000E+02  0.00000E+00  9.000E+00
      25     1     1     2     0     0 -1.746625598E+02  1.456968664E+02 -7.833183614E+01  2.711004670E+02  1.250000000E+02  0.00000E+00  9.000E+00
      21     1     1     2   512   501 -6.216819892E+00 -1.887587492E+01 -2.700150097E+01  3.352653513E+01  4.768371582E-07  0.00000E+00  9.000E+00
#rwgt            1           1  0.32187124991530230                4       77838           0
</event>
<event>
      5   9999  3.79277E-02  5.41576E+01 -1.00000E+00  1.37125E-01
      21    -1     0     0   502   501  0.000000000E+00  0.000000000E+00  1.845399340E+02  1.845399340E+02  0.000000000E+00  0.00000E+00  9.000E+00
      21    -1     0     0   511   502  0.000000000E+00  0.000000000E+00 -8.869630855E+02  8.869630855E+02  0.000000000E+00  0.00000E+00  9.000E+00
      25     1     1     2     0     0  1.734012956E+02  2.413374666E+02 -4.490078757E+02  5.527611189E+02  1.250000000E+02  0.00000E+00  9.000E+00
      25     1     1     2     0     0 -1.198459415E+02 -2.332833363E+02 -3.373521195E+01  2.924845794E+02  1.250000000E+02  0.00000E+00  9.000E+00
      21     1     1     2   511   501 -5.355535406E+01 -8.054130349E+00 -2.196800638E+02  2.262573212E+02  0.000000000E+00  0.00000E+00  9.000E+00
#rwgt            1           1   2.9845529764195990E-002           4       78110           0
</event>
<event>
      5   9999  3.79277E-02  1.04257E+02 -1.00000E+00  1.23019E-01
      21    -1     0     0   502   501  0.000000000E+00  0.000000000E+00  1.340365951E+02  1.340365951E+02  0.000000000E+00  0.00000E+00  9.000E+00
       2    -1     0     0   501     0  0.000000000E+00  0.000000000E+00 -1.908903713E+03  1.908903713E+03  0.000000000E+00  0.00000E+00  9.000E+00
      25     1     1     2     0     0 -1.649922007E+02 -2.015078590E+02 -3.488590281E+02  4.529409068E+02  1.250000000E+02  0.00000E+00  9.000E+00
      25     1     1     2     0     0  1.837761231E+02  9.895704839E+01 -1.051660909E+02  2.650491794E+02  1.250000000E+02  0.00000E+00  9.000E+00
       2     1     1     2   502     0 -1.878392239E+01  1.025508106E+02 -1.320841998E+03  1.324950221E+03  1.525878906E-05  0.00000E+00  9.000E+00
#rwgt            1           1   4.3368323710035239E-002           4       78268           0
</event>
<event>
      5   9999  3.79277E-02  3.73292E+01 -1.00000E+00  1.46726E-01
      21    -1     0     0   502   511  0.000000000E+00  0.000000000E+00  6.560707073E+01  6.560707073E+01  0.000000000E+00  0.00000E+00  9.000E+00
      21    -1     0     0   501   502  0.000000000E+00  0.000000000E+00 -9.845570216E+02  9.845570216E+02  0.000000000E+00  0.00000E+00  9.000E+00
      25     1     1     2     0     0  1.176640606E+02 -1.093478180E+02 -4.821779292E+02  5.233758992E+02  1.250000000E+02  0.00000E+00  9.000E+00
      25     1     1     2     0     0 -9.516694601E+01  1.391361759E+02 -4.418122288E+02  4.891203007E+02  1.250000000E+02  0.00000E+00  9.000E+00
      21     1     1     2   501   511 -2.249711459E+01 -2.978835790E+01  5.040207128E+00  3.766789242E+01  6.107658604E-07  0.00000E+00  9.000E+00
#rwgt            1           1   2.8795532377410150E-002           4       78352           0
</event>
<event>
      5   9999  3.79277E-02  2.78695E+02 -1.00000E+00  1.06642E-01
       2    -1     0     0   502     0  0.000000000E+00  0.000000000E+00  6.871961601E+02  6.871961601E+02  0.000000000E+00  0.00000E+00  9.000E+00
      21    -1     0     0   501   502  0.000000000E+00  0.000000000E+00 -3.604227117E+02  3.604227117E+02  0.000000000E+00  0.00000E+00  9.000E+00
      25     1     1     2     0     0  2.571778123E+02 -2.883281577E+01  9.754803408E+01  3.035002099E+02  1.250000000E+02  0.00000E+00  9.000E+00
      25     1     1     2     0     0 -1.379837082E+02 -2.230868951E+02 -1.049836869E+02  3.089560503E+02  1.250000000E+02  0.00000E+00  9.000E+00
       2     1     1     2   501     0 -1.191941041E+02  2.519197109E+02  3.342091012E+02  4.351626116E+02  7.629394531E-06  0.00000E+00  9.000E+00
#rwgt            1           1   4.2075949765578567E-002           4       78495           0
</event>
<event>
      5   9999  3.79277E-02  2.36386E+01 -1.00000E+00  1.60594E-01
      21    -1     0     0   502   501  0.000000000E+00  0.000000000E+00  4.540680858E+01  4.540680858E+01  0.000000000E+00  0.00000E+00  9.000E+00
      21    -1     0     0   501   511  0.000000000E+00  0.000000000E+00 -1.667925818E+03  1.667925818E+03  0.000000000E+00  0.00000E+00  9.000E+00
      25     1     1     2     0     0  2.957549667E+01  1.615873571E+02 -1.140576728E+03  1.159105456E+03  1.250000000E+02  0.00000E+00  9.000E+00
      25     1     1     2     0     0 -1.080263326E+01 -1.759526274E+02 -2.944044486E+02  3.652054262E+02  1.250000000E+02  0.00000E+00  9.000E+00
      21     1     1     2   502   511 -1.877286341E+01  1.436527025E+01 -1.875378320E+02  1.890217443E+02  2.697398305E-06  0.00000E+00  9.000E+00
#rwgt            1           1   4.1772416584157743E-002           4       78577           0
</event>
<event>
      5   9999  3.79277E-02  3.58020E+01 -1.00000E+00  1.47891E-01
      21    -1     0     0   502   501  0.000000000E+00  0.000000000E+00  2.496299836E+02  2.496299836E+02  0.000000000E+00  0.00000E+00  9.000E+00
      21    -1     0     0   512   502  0.000000000E+00  0.000000000E+00 -3.220955833E+02  3.220955833E+02  0.000000000E+00  0.00000E+00  9.000E+00
      25     1     1     2     0     0 -2.207728649E+02  9.746453656E+01 -7.419351823E+01  2.817262358E+02  1.250000000E+02  0.00000E+00  9.000E+00
      25     1     1     2     0     0  1.876139090E+02 -1.109651845E+02  1.523845490E+01  2.517329171E+02  1.250000000E+02  0.00000E+00  9.000E+00
      21     1     1     2   512   501  3.315895589E+01  1.350064797E+01 -1.351053634E+01  3.826641404E+01  0.000000000E+00  0.00000E+00  9.000E+00
#rwgt            1           1   3.6912631511997154E-002           4       78743           0
</event>
<event>
      5   9999  3.79277E-02  1.80340E+01 -1.00000E+00  1.70164E-01
      21    -1     0     0   502   501  0.000000000E+00  0.000000000E+00  3.895596104E+01  3.895596104E+01  0.000000000E+00  0.00000E+00  9.000E+00
       2    -1     0     0   501     0  0.000000000E+00  0.000000000E+00 -2.072375275E+03  2.072375275E+03  0.000000000E+00  0.00000E+00  9.000E+00
      25     1     1     2     0     0  5.940645244E+01  6.760970642E+01 -7.716982262E+02  7.869201683E+02  1.250000000E+02  0.00000E+00  9.000E+00
      25     1     1     2     0     0 -7.708150642E+01 -7.118980371E+01 -1.816723173E+02  2.442117475E+02  1.250000000E+02  0.00000E+00  9.000E+00
       2     1     1     2   502     0  1.767505398E+01  3.580097286E+00 -1.080048770E+03  1.080199320E+03  2.157918644E-05  0.00000E+00  9.000E+00
#rwgt            1           1   4.2832899130842192E-002           4       78891           0
</event>
<event>
      5   9999  3.79277E-02  7.33066E+01 -1.00000E+00  1.30213E-01
      21    -1     0     0   511   501  0.000000000E+00  0.000000000E+00  1.194402099E+02  1.194402099E+02  0.000000000E+00  0.00000E+00  9.000E+00
      21    -1     0     0   501   502  0.000000000E+00  0.000000000E+00 -1.094927583E+03  1.094927583E+03  0.000000000E+00  0.00000E+00  9.000E+00
      25     1     1     2     0     0 -5.626921494E+01 -2.709804687E+02 -2.274675491E+02  3.794247289E+02  1.250000000E+02  0.00000E+00  9.000E+00
      25     1     1     2     0     0  2.216574031E+01  2.060896795E+02 -7.144048759E+02  7.542967604E+02  1.250000000E+02  0.00000E+00  9.000E+00
      21     1     1     2   511   502  3.410347464E+01  6.489078924E+01 -3.361494777E+01  8.064630322E+01  1.507891493E-06  0.00000E+00  9.000E+00
#rwgt            1           1   2.1801862096899341E-002           4       79087           0
</event>
<event>
      5   9999 -3.79277E-02  2.25068E+01 -1.00000E+00  1.62246E-01
      21    -1     0     0   502   501  0.000000000E+00  0.000000000E+00  6.048893117E+02  6.048893117E+02  0.000000000E+00  0.00000E+00  9.000E+00
      21    -1     0     0   501   512  0.000000000E+00  0.000000000E+00 -6.057584276E+02  6.057584276E+02  0.000000000E+00  0.00000E+00  9.000E+00
      25     1     1     2     0     0  8.203610410E+01 -1.279565812E+02  3.363898192E+02  3.897254412E+02  1.250000000E+02  0.00000E+00  9.000E+00
      25     1     1     2     0     0 -7.617712897E+01  1.062257626E+02  2.077501370E+02  2.754487013E+02  1.250000000E+02  0.00000E+00  9.000E+00
      21     1     1     2   502   512 -5.858975134E+00  2.173081864E+01 -5.450090722E+02  5.454735968E+02  1.078959322E-05  0.00000E+00  9.000E+00
#rwgt            1           1  -4.3994073323950347E-002           4       79219           0
</event>
<event>
      5   9999  3.79277E-02  3.48646E+02 -1.00000E+00  1.03514E-01
       2    -1     0     0   502     0  0.000000000E+00  0.000000000E+00  6.900321369E+02  6.900321369E+02  0.000000000E+00  0.00000E+00  9.000E+00
      21    -1     0     0   501   502  0.000000000E+00  0.000000000E+00 -6.241652709E+02  6.241652709E+02  0.000000000E+00  0.00000E+00  9.000E+00
      25     1     1     2     0     0  2.148344014E+02 -2.204680911E+01  6.219895441E+01  2.571645227E+02  1.250000000E+02  0.00000E+00  9.000E+00
      25     1     1     2     0     0  5.468821201E+01 -1.991133318E+02 -4.345230820E+02  4.970636058E+02  1.250000000E+02  0.00000E+00  9.000E+00
       2     1     1     2   501     0 -2.695226134E+02  2.211601409E+02  4.381909936E+02  5.599692794E+02  9.344061824E-06  0.00000E+00  9.000E+00
#rwgt            2          18   3.5577005180452767E-004           4       79546           0
</event>
<event>
      5   9999  3.79277E-02  4.87575E+01 -1.00000E+00  1.39702E-01
      21    -1     0     0   511   501  0.000000000E+00  0.000000000E+00  4.392472382E+02  4.392472382E+02  0.000000000E+00  0.00000E+00  9.000E+00
      21    -1     0     0   501   502  0.000000000E+00  0.000000000E+00 -1.551600280E+02  1.551600280E+02  0.000000000E+00  0.00000E+00  9.000E+00
      25     1     1     2     0     0 -9.609280876E+01 -8.884998679E+01  3.142405710E+02  3.626296795E+02  1.250000000E+02  0.00000E+00  9.000E+00
      25     1     1     2     0     0  4.735184442E+01  8.758035273E+01 -6.429623549E+01  1.722542344E+02  1.250000000E+02  0.00000E+00  9.000E+00
      21     1     1     2   511   502  4.874096434E+01  1.269634064E+00  3.414287474E+01  5.952335232E+01  1.507891493E-06  0.00000E+00  9.000E+00
#rwgt            1           1   3.9867327924524909E-002           4       79565           0
</event>
<event>
      5   9999  3.79277E-02  6.30841E+01 -1.00000E+00  1.33550E-01
       1    -1     0     0   502     0  0.000000000E+00  0.000000000E+00  6.174579823E+02  6.174579823E+02  0.000000000E+00  0.00000E+00  9.000E+00
      21    -1     0     0   501   502  0.000000000E+00  0.000000000E+00 -4.406387643E+02  4.406387643E+02  0.000000000E+00  0.00000E+00  9.000E+00
      25     1     1     2     0     0 -2.111985109E+02 -5.634674320E+01 -9.340944432E+01  2.685704577E+02  1.250000000E+02  0.00000E+00  9.000E+00
      25     1     1     2     0     0  1.803593757E+02  1.113789659E+02 -1.987494275E+02  3.163243800E+02  1.250000000E+02  0.00000E+00  9.000E+00
       1     1     1     2   501     0  3.083913511E+01 -5.503222271E+01  4.689780898E+02  4.732019088E+02  5.394796609E-06  0.00000E+00  9.000E+00
#rwgt            1           1   3.1100062593237866E-002           4       79740           0
</event>
<event>
      5   9999  3.79277E-02  4.46879E+01 -1.00000E+00  1.41917E-01
      21    -1     0     0   502   501  0.000000000E+00  0.000000000E+00  8.010160416E+01  8.010160416E+01  0.000000000E+00  0.00000E+00  9.000E+00
       2    -1     0     0   501     0  0.000000000E+00  0.000000000E+00 -2.300856856E+03  2.300856856E+03  0.000000000E+00  0.00000E+00  9.000E+00
      25     1     1     2     0     0  1.100979551E+02 -3.217875667E+01 -3.410924857E+02  3.809542176E+02  1.250000000E+02  0.00000E+00  9.000E+00
      25     1     1     2     0     0 -1.198618562E+02 -1.142945395E+01 -6.583378306E+01  1.856248474E+02  1.250000000E+02  0.00000E+00  9.000E+00
       2     1     1     2   502     0  9.763901120E+00  4.360821062E+01 -1.813828983E+03  1.814379395E+03  2.157918644E-05  0.00000E+00  9.000E+00
#rwgt            1           1   2.4796767278386162E-002           4       79877           0
</event>
<event>
      5   9999  3.79277E-02  1.31701E+02 -1.00000E+00  1.18678E-01
      21    -1     0     0   502   511  0.000000000E+00  0.000000000E+00  1.769122417E+02  1.769122417E+02  0.000000000E+00  0.00000E+00  9.000E+00
      21    -1     0     0   501   502  0.000000000E+00  0.000000000E+00 -4.710395645E+02  4.710395645E+02  0.000000000E+00  0.00000E+00  9.000E+00
      25     1     1     2     0     0 -9.376906831E+01  1.357792819E+02 -1.523940225E+02  2.570556159E+02  1.250000000E+02  0.00000E+00  9.000E+00
      25     1     1     2     0     0  1.584341748E+02 -2.104611399E+01 -1.593847624E+02  2.580171102E+02  1.250000000E+02  0.00000E+00  9.000E+00
      21     1     1     2   501   511 -6.466510646E+01 -1.147331679E+02  1.765146210E+01  1.328790801E+02  4.768371582E-07  0.00000E+00  9.000E+00
#rwgt            1           1   3.9065931088016398E-002           4       80015           0
</event>
<event>
      5   9999  3.79277E-02  3.48541E+01 -1.00000E+00  1.48650E-01
      21    -1     0     0   502   501  0.000000000E+00  0.000000000E+00  2.461798289E+03  2.461798289E+03  0.000000000E+00  0.00000E+00  9.000E+00
      21    -1     0     0   512   502  0.000000000E+00  0.000000000E+00 -1.292808676E+02  1.292808676E+02  0.000000000E+00  0.00000E+00  9.000E+00
      25     1     1     2     0     0 -4.119943030E+01  8.649967074E+01  1.941653897E+03  1.948030914E+03  1.250000000E+02  0.00000E+00  9.000E+00
      25     1     1     2     0     0  5.590275869E+01 -5.489876189E+01  5.037478670E+02  5.249056163E+02  1.250000000E+02  0.00000E+00  9.000E+00
      21     1     1     2   512   501 -1.470332840E+01 -3.160090886E+01 -1.128843427E+02  1.181426263E+02  8.529922400E-06  0.00000E+00  9.000E+00
#rwgt            1           1   5.6368580477005950E-002           4       80080           0
</event>
<event>
      5   9999  3.79277E-02  5.69342E+01 -1.00000E+00  1.35932E-01
      21    -1     0     0   502   501  0.000000000E+00  0.000000000E+00  1.044639943E+03  1.044639943E+03  0.000000000E+00  0.00000E+00  9.000E+00
      21    -1     0     0   501   511  0.000000000E+00  0.000000000E+00 -1.556820749E+02  1.556820749E+02  0.000000000E+00  0.00000E+00  9.000E+00
      25     1     1     2     0     0  1.851198840E+02  2.754824453E+02  4.390788686E+02  5.644246646E+02  1.250000000E+02  0.00000E+00  9.000E+00
      25     1     1     2     0     0 -1.704050821E+02 -3.304822268E+02  3.990873946E+02  5.595999846E+02  1.250000000E+02  0.00000E+00  9.000E+00
      21     1     1     2   502   511 -1.471480190E+01  5.499978151E+01  5.079160511E+01  7.629736897E+01  6.743495762E-07  0.00000E+00  9.000E+00
#rwgt            1           1   3.1340922932426143E-002           4       80257           0
</event>
<event>
      5   9999  3.79277E-02  9.59034E+00 -1.00000E+00  1.97881E-01
      21    -1     0     0   502   512  0.000000000E+00  0.000000000E+00  1.894018758E+02  1.894018758E+02  0.000000000E+00  0.00000E+00  9.000E+00
      21    -1     0     0   501   502  0.000000000E+00  0.000000000E+00 -2.236431429E+02  2.236431429E+02  0.000000000E+00  0.00000E+00  9.000E+00
      25     1     1     2     0     0 -3.199726446E+01  6.453270220E+01 -1.544136783E+02  2.113217420E+02  1.250000000E+02  0.00000E+00  9.000E+00
      25     1     1     2     0     0  2.802689617E+01 -7.326258616E+01  9.687604429E+01  1.765301147E+02  1.250000000E+02  0.00000E+00  9.000E+00
      21     1     1     2   501   512  3.970368290E+00  8.729883962E+00  2.329636689E+01  2.519316194E+01  3.371747881E-07  0.00000E+00  9.000E+00
#rwgt            1           1   3.7769071747328964E-002           4       80405           0
</event>
<event>
      5   9999  3.79277E-02  2.39528E+01 -1.00000E+00  1.60156E-01
       2    -1     0     0   502     0  0.000000000E+00  0.000000000E+00  4.073135357E+02  4.073135357E+02  0.000000000E+00  0.00000E+00  9.000E+00
      21    -1     0     0   501   502  0.000000000E+00  0.000000000E+00 -8.045144328E+01  8.045144328E+01  0.000000000E+00  0.00000E+00  9.000E+00
      25     1     1     2     0     0  2.429525441E+01  8.389417360E+01  1.311277740E+02  2.011168438E+02  1.250000000E+02  0.00000E+00  9.000E+00
      25     1     1     2     0     0 -4.824308768E+01 -8.438206189E+01  9.844020108E+01  1.864489235E+02  1.250000000E+02  0.00000E+00  9.000E+00
       2     1     1     2   501     0  2.394783328E+01  4.878882922E-01  9.729411729E+01  1.001992116E+02  1.907348633E-06  0.00000E+00  9.000E+00
#rwgt            1           1   3.5901622832202655E-002           4       80808           0
</event>
<event>
      5   9999 -3.79277E-02  1.23619E+01 -1.00000E+00  1.85681E-01
      21    -1     0     0   502   511  0.000000000E+00  0.000000000E+00  6.556291886E+01  6.556291886E+01  0.000000000E+00  0.00000E+00  9.000E+00
      21    -1     0     0   501   502  0.000000000E+00  0.000000000E+00 -6.420273556E+02  6.420273556E+02  0.000000000E+00  0.00000E+00  9.000E+00
      25     1     1     2     0     0 -1.059530814E+02 -8.097524050E+01 -1.427776567E+02  2.319342672E+02  1.250000000E+02  0.00000E+00  9.000E+00
      25     1     1     2     0     0  1.071949783E+02  6.867584581E+01 -4.238075064E+02  4.598314230E+02  1.250000000E+02  0.00000E+00  9.000E+00
      21     1     1     2   501   511 -1.241896891E+00  1.229939469E+01 -9.879273744E+00  1.582458427E+01  2.064765462E-07  0.00000E+00  9.000E+00
#rwgt            1           1 -0.23046522646424270                4       80989           0
</event>
<event>
      5   9999  3.79277E-02  1.40900E+01 -1.00000E+00  1.79983E-01
      21    -1     0     0   502   501  0.000000000E+00  0.000000000E+00  3.737553092E+02  3.737553092E+02  0.000000000E+00  0.00000E+00  9.000E+00
      21    -1     0     0   501   512  0.000000000E+00  0.000000000E+00 -2.150575951E+02  2.150575951E+02  0.000000000E+00  0.00000E+00  9.000E+00
      25     1     1     2     0     0  1.133890069E+02 -2.063993006E+02  2.198969982E+01  2.675187565E+02  1.250000000E+02  0.00000E+00  9.000E+00
      25     1     1     2     0     0 -1.274189412E+02  2.050992832E+02  1.413733420E+02  3.064518304E+02  1.250000000E+02  0.00000E+00  9.000E+00
      21     1     1     2   502   512  1.402993427E+01  1.300017459E+00 -4.665327739E+00  1.484231733E+01  3.475518164E-07  0.00000E+00  9.000E+00
#rwgt            1           1   3.8316269894067896E-002           4       81227           0
</event>
<event>
      5   9999  3.79277E-02  6.53133E+01 -1.00000E+00  1.32763E-01
      21    -1     0     0   502   501  0.000000000E+00  0.000000000E+00  4.625905972E+01  4.625905972E+01  0.000000000E+00  0.00000E+00  9.000E+00
      21    -1     0     0   501   511  0.000000000E+00  0.000000000E+00 -2.559057694E+03  2.559057694E+03  0.000000000E+00  0.00000E+00  9.000E+00
      25     1     1     2     0     0 -2.351851184E+02  4.123771805E+01 -8.589864245E+02  9.002751062E+02  1.250000000E+02  0.00000E+00  9.000E+00
      25     1     1     2     0     0  2.994930855E+02 -5.265315964E+01 -1.120311383E+03  1.167557733E+03  1.250000000E+02  0.00000E+00  9.000E+00
      21     1     1     2   502   511 -6.430796708E+01  1.141544159E+01 -5.335008265E+02  5.374839149E+02  0.000000000E+00  0.00000E+00  9.000E+00
#rwgt            1           1   2.3834724362123725E-002           4       81597           0
</event>
<event>
      5   9999  3.79277E-02  5.22450E+01 -1.00000E+00  1.37996E-01
      21    -1     0     0   512   501  0.000000000E+00  0.000000000E+00  3.239996167E+02  3.239996167E+02  0.000000000E+00  0.00000E+00  9.000E+00
      21    -1     0     0   501   502  0.000000000E+00  0.000000000E+00 -7.593209841E+02  7.593209841E+02  0.000000000E+00  0.00000E+00  9.000E+00
      25     1     1     2     0     0 -5.439301288E+01  7.883553888E+01  1.514032544E+02  2.184527122E+02  1.250000000E+02  0.00000E+00  9.000E+00
      25     1     1     2     0     0  2.648868810E+00 -8.605268059E+01 -7.125979170E+02  7.285827830E+02  1.250000000E+02  0.00000E+00  9.000E+00
      21     1     1     2   512   502  5.174414407E+01  7.217141710E+00  1.258732952E+02  1.362851056E+02  1.348699152E-06  0.00000E+00  9.000E+00
#rwgt            1           1   3.7265709983277620E-002           4       81708           0
</event>
<event>
      5   9999  3.79277E-02  2.76252E+01 -1.00000E+00  1.55570E-01
      21    -1     0     0   502   501  0.000000000E+00  0.000000000E+00  1.149117386E+02  1.149117386E+02  0.000000000E+00  0.00000E+00  9.000E+00
      21    -1     0     0   511   502  0.000000000E+00  0.000000000E+00 -4.396921923E+02  4.396921923E+02  0.000000000E+00  0.00000E+00  9.000E+00
      25     1     1     2     0     0  1.535818101E+01 -2.739941875E+01 -2.360322679E+02  2.689290489E+02  1.250000000E+02  0.00000E+00  9.000E+00
      25     1     1     2     0     0 -4.375615225E+00  5.274769454E+01  4.965552160E+01  1.445411226E+02  1.250000000E+02  0.00000E+00  9.000E+00
      21     1     1     2   511   501 -1.098256579E+01 -2.534827579E+01 -1.384037073E+02  1.411337594E+02  2.697398305E-06  0.00000E+00  9.000E+00
#rwgt            1           1   5.3110148301573283E-002           4       81878           0
</event>
<event>
      5   9999  3.79277E-02  1.32264E+02 -1.00000E+00  1.18601E-01
      21    -1     0     0   502   501  0.000000000E+00  0.000000000E+00  7.761517337E+01  7.761517337E+01  0.000000000E+00  0.00000E+00  9.000E+00
      21    -1     0     0   501   512  0.000000000E+00  0.000000000E+00 -1.065300284E+03  1.065300284E+03  0.000000000E+00  0.00000E+00  9.000E+00
      25     1     1     2     0     0 -1.337543702E+02 -4.495065669E+01 -4.624272846E+02  4.993743953E+02  1.250000000E+02  0.00000E+00  9.000E+00
      25     1     1     2     0     0  1.763850028E+00  5.345063475E+01 -4.168528982E+01  1.422066978E+02  1.250000000E+02  0.00000E+00  9.000E+00
      21     1     1     2   502   512  1.319905201E+02 -8.499978057E+00 -4.835725359E+02  5.013343639E+02  7.629394531E-06  0.00000E+00  9.000E+00
#rwgt            1           1   6.1541236829958261E-002           4       82026           0
</event>
<event>
      5   9999  3.79277E-02  1.18807E+02 -1.00000E+00  1.20553E-01
       2    -1     0     0   502     0  0.000000000E+00  0.000000000E+00  8.740545880E+02  8.740545880E+02  0.000000000E+00  0.00000E+00  9.000E+00
      21    -1     0     0   501   502  0.000000000E+00  0.000000000E+00 -1.435406903E+02  1.435406903E+02  0.000000000E+00  0.00000E+00  9.000E+00
      25     1     1     2     0     0 -4.270982715E+01  2.382947184E+02  6.936233170E+01  2.811487777E+02  1.250000000E+02  0.00000E+00  9.000E+00
      25     1     1     2     0     0  2.728915840E+00 -1.264167305E+02  2.389266199E+02  2.978247243E+02  1.250000000E+02  0.00000E+00  9.000E+00
       2     1     1     2   501     0  3.998091130E+01 -1.118779880E+02  4.222249462E+02  4.386217763E+02  5.394796609E-06  0.00000E+00  9.000E+00
#rwgt            1           1   6.3478254273580018E-002           4       82142           0
</event>
<event>
      5   9999  3.79277E-02  2.94121E+01 -1.00000E+00  1.53639E-01
      21    -1     0     0   511   501  0.000000000E+00  0.000000000E+00  4.160584867E+02  4.160584867E+02  0.000000000E+00  0.00000E+00  9.000E+00
      21    -1     0     0   501   502  0.000000000E+00  0.000000000E+00 -1.789696146E+02  1.789696146E+02  0.000000000E+00  0.00000E+00  9.000E+00
      25     1     1     2     0     0  1.487214648E+02  1.335757638E+02 -1.913636707E+00  2.357736643E+02  1.250000000E+02  0.00000E+00  9.000E+00
      25     1     1     2     0     0 -1.672943805E+02 -1.107696098E+02  2.261783741E+02  3.271681114E+02  1.250000000E+02  0.00000E+00  9.000E+00
      21     1     1     2   511   502  1.857291572E+01 -2.280615397E+01  1.282413471E+01  3.208632557E+01  6.307962682E-07  0.00000E+00  9.000E+00
#rwgt            1           1   3.7087182476871129E-002           4       82292           0
</event>
<event>
      5   9999  3.79277E-02  7.56698E+01 -1.00000E+00  1.29530E-01
       1    -1     0     0   502     0  0.000000000E+00  0.000000000E+00  1.510119954E+03  1.510119954E+03  0.000000000E+00  0.00000E+00  9.000E+00
      21    -1     0     0   501   502  0.000000000E+00  0.000000000E+00 -4.711515971E+02  4.711515971E+02  0.000000000E+00  0.00000E+00  9.000E+00
      25     1     1     2     0     0  8.268444135E+01 -6.821958050E+01 -2.979738873E+02  3.404468615E+02  1.250000000E+02  0.00000E+00  9.000E+00
      25     1     1     2     0     0 -7.361799021E+01  1.433442180E+02 -8.204141287E+01  2.198248547E+02  1.250000000E+02  0.00000E+00  9.000E+00
       1     1     1     2   501     0 -9.066451139E+00 -7.512463745E+01  1.418983657E+03  1.420999834E+03  2.157918644E-05  0.00000E+00  9.000E+00
#rwgt            1           1   8.6610625841053404E-002           4       82449           0
</event>
<event>
      5   9999  3.79277E-02  6.32905E+01 -1.00000E+00  1.33476E-01
      21    -1     0     0   502   511  0.000000000E+00  0.000000000E+00  2.024166624E+02  2.024166624E+02  0.000000000E+00  0.00000E+00  9.000E+00
      21    -1     0     0   501   502  0.000000000E+00  0.000000000E+00 -2.986524633E+02  2.986524633E+02  0.000000000E+00  0.00000E+00  9.000E+00
      25     1     1     2     0     0 -8.173653779E+01 -1.956457292E+01  8.034754823E+01  1.707172007E+02  1.250000000E+02  0.00000E+00  9.000E+00
      25     1     1     2     0     0  1.037891956E+02  7.888887918E+01 -1.936470177E+02  2.648014725E+02  1.250000000E+02  0.00000E+00  9.000E+00
      21     1     1     2   501   511 -2.205265786E+01 -5.932430626E+01  1.706366848E+01  6.555045243E+01  6.307962682E-07  0.00000E+00  9.000E+00
#rwgt            1           1   4.4674095910373246E-002           4       82788           0
</event>
<event>
      5   9999  3.79277E-02  2.52482E+01 -1.00000E+00  1.58430E-01
      21    -1     0     0   502   512  0.000000000E+00  0.000000000E+00  1.867295733E+02  1.867295733E+02  0.000000000E+00  0.00000E+00  9.000E+00
      21    -1     0     0   501   502  0.000000000E+00  0.000000000E+00 -3.552594621E+02  3.552594621E+02  0.000000000E+00  0.00000E+00  9.000E+00
      25     1     1     2     0     0  5.107836991E+01 -2.951328042E+00 -3.006428290E+02  3.295888664E+02  1.250000000E+02  0.00000E+00  9.000E+00
      25     1     1     2     0     0 -3.079176411E+01 -1.207955673E+01  7.385898284E+01  1.489100325E+02  1.250000000E+02  0.00000E+00  9.000E+00
      21     1     1     2   501   512 -2.028660581E+01  1.503088477E+01  5.825395748E+01  6.349013651E+01  1.168007728E-06  0.00000E+00  9.000E+00
#rwgt            1           1   4.0641957621536433E-002           4       82951           0
</event>
<event>
      5   9999  3.79277E-02  9.43990E+01 -1.00000E+00  1.24964E-01
      21    -1     0     0   502   501  0.000000000E+00  0.000000000E+00  1.438062897E+02  1.438062897E+02  0.000000000E+00  0.00000E+00  9.000E+00
       1    -1     0     0   501     0  0.000000000E+00  0.000000000E+00 -1.785643185E+03  1.785643185E+03  0.000000000E+00  0.00000E+00  9.000E+00
      25     1     1     2     0     0 -1.999404361E+01 -1.857291697E+02 -2.801661922E+00  2.247841978E+02  1.250000000E+02  0.00000E+00  9.000E+00
      25     1     1     2     0     0  6.958214934E+01  1.054036925E+02 -2.214058844E+02  2.838964240E+02  1.250000000E+02  0.00000E+00  9.000E+00
       1     1     1     2   502     0 -4.958810573E+01  8.032547721E+01 -1.417629349E+03  1.420768853E+03  0.000000000E+00  0.00000E+00  9.000E+00
#rwgt            2          12   5.4391032306177513E-004           4       83091           0
</event>
<event>
      5   9999  3.79277E-02  1.30836E+02 -1.00000E+00  1.18796E-01
      21    -1     0     0   502   501  0.000000000E+00  0.000000000E+00  2.115628727E+02  2.115628727E+02  0.000000000E+00  0.00000E+00  9.000E+00
      21    -1     0     0   501   511  0.000000000E+00  0.000000000E+00 -2.700647731E+02  2.700647731E+02  0.000000000E+00  0.00000E+00  9.000E+00
      25     1     1     2     0     0 -5.837259666E+01  4.983732432E+01  8.252251269E+01  1.683035473E+02  1.250000000E+02  0.00000E+00  9.000E+00
      25     1     1     2     0     0 -5.398594602E+01  1.719676096E+01 -1.169062472E+02  1.802838917E+02  1.250000000E+02  0.00000E+00  9.000E+00
      21     1     1     2   502   511  1.123585427E+02 -6.703408529E+01 -2.411816595E+01  1.330402068E+02  2.454669509E-06  0.00000E+00  9.000E+00
#rwgt            1           1   3.7917204573242443E-002           4       83125           0
</event>
<event>
      5   9999  3.79277E-02  5.87414E+01 -1.00000E+00  1.35197E-01
       2    -1     0     0   502     0  0.000000000E+00  0.000000000E+00  1.573569402E+02  1.573569402E+02  0.000000000E+00  0.00000E+00  9.000E+00
      21    -1     0     0   501   502  0.000000000E+00  0.000000000E+00 -5.808540450E+02  5.808540450E+02  0.000000000E+00  0.00000E+00  9.000E+00
      25     1     1     2     0     0  1.100559548E+01 -1.230376459E+02 -3.379182377E+02  3.808846555E+02  1.250000000E+02  0.00000E+00  9.000E+00
      25     1     1     2     0     0 -3.695695230E+01  1.757356985E+02 -1.536893721E+02  2.673841341E+02  1.250000000E+02  0.00000E+00  9.000E+00
       2     1     1     2   501     0  2.595135681E+01 -5.269805269E+01  6.811050493E+01  8.994219565E+01  9.536743164E-07  0.00000E+00  9.000E+00
#rwgt            1           1   4.5192109915424349E-002           4       83481           0
</event>
<event>
      5   9999 -3.79277E-02  1.54972E+01 -1.00000E+00  1.76060E-01
      21    -1     0     0   502   511  0.000000000E+00  0.000000000E+00  3.945292960E+02  3.945292960E+02  0.000000000E+00  0.00000E+00  9.000E+00
      21    -1     0     0   501   502  0.000000000E+00  0.000000000E+00 -4.532351128E+02  4.532351128E+02  0.000000000E+00  0.00000E+00  9.000E+00
      25     1     1     2     0     0  1.025413968E+02  9.584938496E+01 -1.817478473E+02  2.614557757E+02  1.250000000E+02  0.00000E+00  9.000E+00
      25     1     1     2     0     0 -8.711850406E+01 -9.433359462E+01 -1.967577617E+02  2.661335710E+02  1.250000000E+02  0.00000E+00  9.000E+00
      21     1     1     2   501   511 -1.542289272E+01 -1.515790339E+00  3.197997922E+02  3.201750620E+02  0.000000000E+00  0.00000E+00  9.000E+00
#rwgt            1           1 -0.12686804041444388                4       83687           0
</event>
<event>
      5   9999  3.79277E-02  3.44831E+01 -1.00000E+00  1.48954E-01
      21    -1     0     0   502   512  0.000000000E+00  0.000000000E+00  1.155439029E+03  1.155439029E+03  0.000000000E+00  0.00000E+00  9.000E+00
      21    -1     0     0   501   502  0.000000000E+00  0.000000000E+00 -5.945476533E+01  5.945476533E+01  0.000000000E+00  0.00000E+00  9.000E+00
      25     1     1     2     0     0 -4.059123616E+01 -8.529097017E+01  9.343542186E+02  9.473990731E+02  1.250000000E+02  0.00000E+00  9.000E+00
      25     1     1     2     0     0  9.190291599E+00  9.954096952E+01  8.011660642E+01  1.789875322E+02  1.250000000E+02  0.00000E+00  9.000E+00
      21     1     1     2   501   512  3.140094456E+01 -1.424999935E+01  8.151343828E+01  8.850718853E+01  0.000000000E+00  0.00000E+00  9.000E+00
#rwgt            1           1   1.4249916629698984E-002           4       83862           0
</event>
<event>
      5   9999  3.79277E-02  4.70912E+01 -1.00000E+00  1.40577E-01
      21    -1     0     0   502   501  0.000000000E+00  0.000000000E+00  8.422133326E+01  8.422133326E+01  0.000000000E+00  0.00000E+00  9.000E+00
      21    -1     0     0   501   511  0.000000000E+00  0.000000000E+00 -9.048982976E+02  9.048982976E+02  0.000000000E+00  0.00000E+00  9.000E+00
      25     1     1     2     0     0 -1.949146922E+02  3.217406715E+00 -1.521678161E+02  2.770958917E+02  1.250000000E+02  0.00000E+00  9.000E+00
      25     1     1     2     0     0  1.518770936E+02  1.589671530E+01 -5.179145743E+02  5.542380927E+02  1.250000000E+02  0.00000E+00  9.000E+00
      21     1     1     2   502   511  4.303759859E+01 -1.911412201E+01 -1.505945739E+02  1.577856465E+02  2.697398305E-06  0.00000E+00  9.000E+00
#rwgt            1           1   4.0345152858579932E-002           4       84020           0
</event>
<event>
      5   9999  3.79277E-02  1.17293E+01 -1.00000E+00  1.88076E-01
      21    -1     0     0   502   501  0.000000000E+00  0.000000000E+00  1.171947745E+02  1.171947745E+02  0.000000000E+00  0.00000E+00  9.000E+00
      21    -1     0     0   501   512  0.000000000E+00  0.000000000E+00 -1.057300937E+03  1.057300937E+03  0.000000000E+00  0.00000E+00  9.000E+00
      25     1     1     2     0     0 -6.977447499E+01 -1.931082091E+02 -1.277469454E+02  2.722196537E+02  1.250000000E+02  0.00000E+00  9.000E+00
      25     1     1     2     0     0  7.888517443E+01  1.857209565E+02 -2.688366656E+02  3.586269610E+02  1.250000000E+02  0.00000E+00  9.000E+00
      21     1     1     2   502   512 -9.110699433E+00  7.387252684E+00 -5.435225518E+02  5.436490970E+02  1.078959322E-05  0.00000E+00  9.000E+00
#rwgt            1           1   4.1147189919525748E-002           4       84095           0
</event>
<event>
      5   9999  3.79277E-02  4.41642E+01 -1.00000E+00  1.42222E-01
       2    -1     0     0   502     0  0.000000000E+00  0.000000000E+00  5.572270283E+02  5.572270283E+02  0.000000000E+00  0.00000E+00  9.000E+00
      21    -1     0     0   501   502  0.000000000E+00  0.000000000E+00 -1.678268555E+02  1.678268555E+02  0.000000000E+00  0.00000E+00  9.000E+00
      25     1     1     2     0     0  1.761335710E+02  6.844809346E+01  1.225670978E+02  2.575963311E+02  1.250000000E+02  0.00000E+00  9.000E+00
      25     1     1     2     0     0 -1.330198668E+02 -7.802320433E+01  1.544265193E+00  1.985177325E+02  1.250000000E+02  0.00000E+00  9.000E+00
       2     1     1     2   501     0 -4.311370421E+01  9.575110876E+00  2.652888098E+02  2.689398201E+02  3.814697266E-06  0.00000E+00  9.000E+00
#rwgt            1           1   3.2694842452536156E-002           4       84283           0
</event>
<event>
      5   9999  3.79277E-02  2.16314E+01 -1.00000E+00  1.63607E-01
      21    -1     0     0   511   501  0.000000000E+00  0.000000000E+00  4.012521573E+02  4.012521573E+02  0.000000000E+00  0.00000E+00  9.000E+00
      21    -1     0     0   501   502  0.000000000E+00  0.000000000E+00 -1.991719985E+02  1.991719985E+02  0.000000000E+00  0.00000E+00  9.000E+00
      25     1     1     2     0     0  1.289630210E+02  1.925522892E+02  7.164485116E+01  2.728842787E+02  1.250000000E+02  0.00000E+00  9.000E+00
      25     1     1     2     0     0 -1.505943318E+02 -1.924977276E+02  1.044166642E+02  2.937037073E+02  1.250000000E+02  0.00000E+00  9.000E+00
      21     1     1     2   511   502  2.163131081E+01 -5.456163602E-02  2.601864344E+01  3.383616986E+01  0.000000000E+00  0.00000E+00  9.000E+00
#rwgt            1           1   3.2240611805565998E-002           4       84384           0
</event>
<event>
      5   9999  3.79277E-02  3.22475E+01 -1.00000E+00  1.50892E-01
       2    -1     0     0   502     0  0.000000000E+00  0.000000000E+00  2.740178483E+03  2.740178483E+03  0.000000000E+00  0.00000E+00  9.000E+00
      21    -1     0     0   501   502  0.000000000E+00  0.000000000E+00 -1.516296809E+02  1.516296809E+02  0.000000000E+00  0.00000E+00  9.000E+00
      25     1     1     2     0     0  1.549058403E+02  3.949144588E+00  1.076346204E+02  2.263219535E+02  1.250000000E+02  0.00000E+00  9.000E+00
      25     1     1     2     0     0 -1.680797424E+02 -3.338300839E+01  2.983742623E+01  2.141973320E+02  1.250000000E+02  0.00000E+00  9.000E+00
       2     1     1     2   501     0  1.317390205E+01  2.943386380E+01  2.451076756E+03  2.451288879E+03  3.051757812E-05  0.00000E+00  9.000E+00
#rwgt            1           1   3.3852849020949247E-002           4       84600           0
</event>
<event>
      5   9999  3.79277E-02  1.12097E+01 -1.00000E+00  1.90194E-01
      21    -1     0     0   502   501  0.000000000E+00  0.000000000E+00  5.130056490E+02  5.130056490E+02  0.000000000E+00  0.00000E+00  9.000E+00
      21    -1     0     0   511   502  0.000000000E+00  0.000000000E+00 -1.021901430E+02  1.021901430E+02  0.000000000E+00  0.00000E+00  9.000E+00
      25     1     1     2     0     0 -1.057959021E+02  1.948802219E+01  4.094881980E+02  4.414500427E+02  1.250000000E+02  0.00000E+00  9.000E+00
      25     1     1     2     0     0  9.976634522E+01 -2.893796997E+01  1.045891418E+00  1.625325310E+02  1.250000000E+02  0.00000E+00  9.000E+00
      21     1     1     2   511   501  6.029556900E+00  9.449947776E+00  2.814166974E-01  1.121321830E+01  6.098563054E-08  0.00000E+00  9.000E+00
#rwgt            1           1   4.8842966436914298E-002           4       84810           0
</event>
<event>
      5   9999  3.79277E-02  2.22016E+02 -1.00000E+00  1.10021E-01
      21    -1     0     0   502   512  0.000000000E+00  0.000000000E+00  5.600181690E+02  5.600181690E+02  0.000000000E+00  0.00000E+00  9.000E+00
      21    -1     0     0   501   502  0.000000000E+00  0.000000000E+00 -6.957423549E+02  6.957423549E+02  0.000000000E+00  0.00000E+00  9.000E+00
      25     1     1     2     0     0  9.118440989E+01 -3.493346228E+01  1.987184278E+02  2.542615915E+02  1.250000000E+02  0.00000E+00  9.000E+00
      25     1     1     2     0     0 -3.131979004E+02  3.607847680E+01 -5.791135298E+02  6.711125552E+02  1.250000000E+02  0.00000E+00  9.000E+00
      21     1     1     2   501   512  2.220134905E+02 -1.145014521E+00  2.446709162E+02  3.303863772E+02  3.814697266E-06  0.00000E+00  9.000E+00
#rwgt            2          11   1.6931662107895027E-003           4       85308           0
</event>
<event>
      5   9999  3.79277E-02  5.97254E+01 -1.00000E+00  1.34810E-01
      21    -1     0     0   502   511  0.000000000E+00  0.000000000E+00  2.354069105E+02  2.354069105E+02  0.000000000E+00  0.00000E+00  9.000E+00
      21    -1     0     0   501   502  0.000000000E+00  0.000000000E+00 -2.951935069E+02  2.951935069E+02  0.000000000E+00  0.00000E+00  9.000E+00
      25     1     1     2     0     0 -1.706686748E+02 -3.104199994E+00 -1.120753388E+02  2.394228773E+02  1.250000000E+02  0.00000E+00  9.000E+00
      25     1     1     2     0     0  1.566707733E+02  6.116605889E+01 -3.311143212E+00  2.095781039E+02  1.250000000E+02  0.00000E+00  9.000E+00
      21     1     1     2   501   511  1.399790145E+01 -5.806185889E+01  5.559988557E+01  8.159943614E+01  1.907348633E-06  0.00000E+00  9.000E+00
#rwgt            1           1   9.1124497083226716E-002           4       85343           0
</event>
<event>
      5   9999  3.79277E-02  1.80645E+02 -1.00000E+00  1.13281E-01
       2    -1     0     0   502     0  0.000000000E+00  0.000000000E+00  3.513870855E+03  3.513870855E+03  0.000000000E+00  0.00000E+00  9.000E+00
      21    -1     0     0   501   502  0.000000000E+00  0.000000000E+00 -3.716356576E+01  3.716356576E+01  0.000000000E+00  0.00000E+00  9.000E+00
      25     1     1     2     0     0  1.375764770E+02  1.814938015E+02  1.460459300E+03  1.483385875E+03  1.250000000E+02  0.00000E+00  9.000E+00
      25     1     1     2     0     0 -7.363184697E+01 -1.254467121E+01  2.295419442E+02  2.718336289E+02  1.250000000E+02  0.00000E+00  9.000E+00
       2     1     1     2   501     0 -6.394463006E+01 -1.689491303E+02  1.786706045E+03  1.795814917E+03  3.051757812E-05  0.00000E+00  9.000E+00
#rwgt            1           1   4.9028820222856428E-002           4       85435           0
</event>
<event>
      5   9999  3.79277E-02  2.50875E+01 -1.00000E+00  1.58637E-01
      21    -1     0     0   502   501  0.000000000E+00  0.000000000E+00  2.194896942E+02  2.194896942E+02  0.000000000E+00  0.00000E+00  9.000E+00
      21    -1     0     0   501   511  0.000000000E+00  0.000000000E+00 -2.125770168E+02  2.125770168E+02  0.000000000E+00  0.00000E+00  9.000E+00
      25     1     1     2     0     0 -1.028412278E+02 -7.794874815E+01  1.061881444E+02  2.086941482E+02  1.250000000E+02  0.00000E+00  9.000E+00
      25     1     1     2     0     0  8.145123018E+01  9.105799315E+01 -8.322922934E+01  1.935922665E+02  1.250000000E+02  0.00000E+00  9.000E+00
      21     1     1     2   502   511  2.138999766E+01 -1.310924500E+01 -1.604623773E+01  2.978029634E+01  4.768371582E-07  0.00000E+00  9.000E+00
#rwgt            1           1   4.6706145593364959E-002           4       85512           0
</event>
<event>
      5   9999  3.79277E-02  4.00356E+01 -1.00000E+00  1.44816E-01
      21    -1     0     0   502   501  0.000000000E+00  0.000000000E+00  2.754030865E+01  2.754030865E+01  0.000000000E+00  0.00000E+00  9.000E+00
      21    -1     0     0   512   502  0.000000000E+00  0.000000000E+00 -1.413180300E+03  1.413180300E+03  0.000000000E+00  0.00000E+00  9.000E+00
      25     1     1     2     0     0  1.295129340E+01  6.635286480E+01 -2.130710414E+02  2.561146371E+02  1.250000000E+02  0.00000E+00  9.000E+00
      25     1     1     2     0     0 -1.194561922E+01 -2.632991298E+01 -9.113700681E+02  9.203566500E+02  1.250000000E+02  0.00000E+00  9.000E+00
      21     1     1     2   512   501 -1.005674183E+00 -4.002295181E+01 -2.611988824E+02  2.642493221E+02  5.394796609E-06  0.00000E+00  9.000E+00
#rwgt            1           1   4.3346753666260708E-002           4       85659           0
</event>
<event>
      5   9999 -4.36808E-02  5.84914E+01 -1.00000E+00  1.35297E-01
      21    -1     0     0   502   501  0.000000000E+00  0.000000000E+00  1.373683881E+03  1.373683881E+03  0.000000000E+00  0.00000E+00  9.000E+00
      21    -1     0     0   511   502  0.000000000E+00  0.000000000E+00 -9.228742253E+01  9.228742253E+01  0.000000000E+00  0.00000E+00  9.000E+00
      25     1     1     2     0     0  1.381146285E+02 -2.226986717E+02  3.322731007E+02  4.412490934E+02  1.250000000E+02  0.00000E+00  9.000E+00
      25     1     1     2     0     0 -8.200975743E+01  2.392362616E+02  9.138846029E+02  9.564359135E+02  1.250000000E+02  0.00000E+00  9.000E+00
      21     1     1     2   511   501 -5.610487112E+01 -1.653758992E+01  3.523875457E+01  6.828629633E+01  1.430511475E-06  0.00000E+00  9.000E+00
#rwgt            1           1 -0.23178487958326474                4       85797           0
</event>
<event>
      5   9999  3.79277E-02  2.25112E+01 -1.00000E+00  1.62239E-01
      21    -1     0     0   502   512  0.000000000E+00  0.000000000E+00  6.790485072E+02  6.790485072E+02  0.000000000E+00  0.00000E+00  9.000E+00
      21    -1     0     0   501   502  0.000000000E+00  0.000000000E+00 -7.199914894E+01  7.199914894E+01  0.000000000E+00  0.00000E+00  9.000E+00
      25     1     1     2     0     0 -5.299729497E+01  8.290174899E+01  3.541609968E+02  3.882478911E+02  1.250000000E+02  0.00000E+00  9.000E+00
      25     1     1     2     0     0  4.012262335E+01 -6.443565730E+01  4.402272300E+01  1.527245199E+02  1.250000000E+02  0.00000E+00  9.000E+00
      21     1     1     2   501   512  1.287467162E+01 -1.846609169E+01  2.088656385E+02  2.100752452E+02  0.000000000E+00  0.00000E+00  9.000E+00
#rwgt            1           1   1.5938805622677750E-002           4       85916           0
</event>
<event>
      5   9999  3.79277E-02  1.73539E+01 -1.00000E+00  1.71620E-01
      21    -1     0     0   502   501  0.000000000E+00  0.000000000E+00  1.493065860E+02  1.493065860E+02  0.000000000E+00  0.00000E+00  9.000E+00
      21    -1     0     0   501   511  0.000000000E+00  0.000000000E+00 -1.871138920E+02  1.871138920E+02  0.000000000E+00  0.00000E+00  9.000E+00
      25     1     1     2     0     0  3.076885509E+01 -3.015886018E+01  6.291553540E+01  1.464228257E+02  1.250000000E+02  0.00000E+00  9.000E+00
      25     1     1     2     0     0 -4.782116158E+01  2.693765902E+01 -6.700540217E+01  1.520763785E+02  1.250000000E+02  0.00000E+00  9.000E+00
      21     1     1     2   502   511  1.705230649E+01  3.221201163E+00 -3.371743923E+01  3.792127373E+01  0.000000000E+00  0.00000E+00  9.000E+00
#rwgt            1           1   9.5808208515586926E-002           4       86091           0
</event>
<event>
      5   9999  3.79277E-02  2.40979E+01 -1.00000E+00  1.59956E-01
      21    -1     0     0   502   501  0.000000000E+00  0.000000000E+00  2.895383645E+02  2.895383645E+02  0.000000000E+00  0.00000E+00  9.000E+00
      21    -1     0     0   512   502  0.000000000E+00  0.000000000E+00 -1.465809554E+02  1.465809554E+02  0.000000000E+00  0.00000E+00  9.000E+00
      25     1     1     2     0     0 -8.976517388E+01 -8.294611173E+01  1.634340002E+02  2.393188591E+02  1.250000000E+02  0.00000E+00  9.000E+00
      25     1     1     2     0     0  6.587929520E+01  7.975682541E+01  4.201798170E+00  1.623080030E+02  1.250000000E+02  0.00000E+00  9.000E+00
      21     1     1     2   512   501  2.388587868E+01  3.189286320E+00 -2.467838932E+01  3.449245783E+01  0.000000000E+00  0.00000E+00  9.000E+00
#rwgt            1           1   4.6202810132223479E-002           4       86231           0
</event>
<event>
      5   9999  3.79277E-02  2.46616E+01 -1.00000E+00  1.59196E-01
      21    -1     0     0   502   501  0.000000000E+00  0.000000000E+00  2.582962086E+02  2.582962086E+02  0.000000000E+00  0.00000E+00  9.000E+00
      21    -1     0     0   501   511  0.000000000E+00  0.000000000E+00 -1.809743159E+02  1.809743159E+02  0.000000000E+00  0.00000E+00  9.000E+00
      25     1     1     2     0     0  2.332031059E+01  6.054603542E+01 -7.285137656E+01  1.585622350E+02  1.250000000E+02  0.00000E+00  9.000E+00
      25     1     1     2     0     0 -2.058517824E+00 -4.805087191E+01  1.908399821E+02  2.331480701E+02  1.250000000E+02  0.00000E+00  9.000E+00
      21     1     1     2   502   511 -2.126179276E+01 -1.249516351E+01 -4.066671289E+01  4.756021951E+01  4.768371582E-07  0.00000E+00  9.000E+00
#rwgt            1           1   4.0415792183651267E-002           4       86521           0
</event>
<event>
      5   9999  3.79277E-02  5.06552E+01 -1.00000E+00  1.38754E-01
      21    -1     0     0   512   501  0.000000000E+00  0.000000000E+00  2.326652897E+02  2.326652897E+02  0.000000000E+00  0.00000E+00  9.000E+00
      21    -1     0     0   501   502  0.000000000E+00  0.000000000E+00 -3.725898730E+02  3.725898730E+02  0.000000000E+00  0.00000E+00  9.000E+00
      25     1     1     2     0     0  1.026643326E+02 -8.690799020E+00  1.224411130E+02  2.030574336E+02  1.250000000E+02  0.00000E+00  9.000E+00
      25     1     1     2     0     0 -1.504987139E+02 -7.977109804E+00 -2.857560452E+02  3.464029655E+02  1.250000000E+02  0.00000E+00  9.000E+00
      21     1     1     2   512   502  4.783438131E+01  1.666790882E+01  2.339034892E+01  5.579476357E+01  3.371747881E-07  0.00000E+00  9.000E+00
#rwgt            1           1   4.8146183706912336E-002           4       86690           0
</event>
<event>
      5   9999  3.79277E-02  5.65438E+00 -1.00000E+00  2.29549E-01
      21    -1     0     0   502   501  0.000000000E+00  0.000000000E+00  2.297123083E+02  2.297123083E+02  0.000000000E+00  0.00000E+00  9.000E+00
      21    -1     0     0   511   502  0.000000000E+00  0.000000000E+00 -1.759257532E+02  1.759257532E+02  0.000000000E+00  0.00000E+00  9.000E+00
      25     1     1     2     0     0 -1.065769484E+02 -7.020009493E+01  1.150818474E+02  2.124983079E+02  1.250000000E+02  0.00000E+00  9.000E+00
      25     1     1     2     0     0  1.021821767E+02  7.375789581E+01 -5.947260359E+01  1.871988649E+02  1.250000000E+02  0.00000E+00  9.000E+00
      21     1     1     2   511   501  4.394771675E+00 -3.557800877E+00 -1.822688720E+00  5.940888766E+00  1.281846354E-07  0.00000E+00  9.000E+00
#rwgt            1           1   5.1570114252489849E-002           4       86896           0
</event>
<event>
      5   9999  3.79277E-02  1.68763E+01 -1.00000E+00  1.72693E-01
      21    -1     0     0   502   512  0.000000000E+00  0.000000000E+00  3.903383728E+02  3.903383728E+02  0.000000000E+00  0.00000E+00  9.000E+00
      21    -1     0     0   501   502  0.000000000E+00  0.000000000E+00 -1.233687382E+02  1.233687382E+02  0.000000000E+00  0.00000E+00  9.000E+00
      25     1     1     2     0     0 -1.311567426E+02  7.053380158E+01  2.100813047E+02  2.862451098E+02  1.250000000E+02  0.00000E+00  9.000E+00
      25     1     1     2     0     0  1.370976228E+02 -5.473772330E+01  3.004466483E+01  1.957540764E+02  1.250000000E+02  0.00000E+00  9.000E+00
      21     1     1     2   501   512 -5.940880175E+00 -1.579607828E+01  2.684366497E+01  3.170792480E+01  3.371747881E-07  0.00000E+00  9.000E+00
#rwgt            1           1   4.3073997796427579E-002           4       87289           0
</event>
<event>
      5   9999  3.79277E-02  8.94051E+01 -1.00000E+00  1.26056E-01
      21    -1     0     0   502   511  0.000000000E+00  0.000000000E+00  9.819702325E+02  9.819702325E+02  0.000000000E+00  0.00000E+00  9.000E+00
      21    -1     0     0   501   502  0.000000000E+00  0.000000000E+00 -1.340412645E+02  1.340412645E+02  0.000000000E+00  0.00000E+00  9.000E+00
      25     1     1     2     0     0  3.209970494E+01  1.862106619E+02  5.938879518E+01  2.342153510E+02  1.250000000E+02  0.00000E+00  9.000E+00
      25     1     1     2     0     0 -4.908782670E+01 -2.739869665E+02  6.195931939E+02  6.906512857E+02  1.250000000E+02  0.00000E+00  9.000E+00
      21     1     1     2   501   511  1.698812176E+01  8.777630466E+01  1.689469789E+02  1.911448603E+02  1.907348633E-06  0.00000E+00  9.000E+00
#rwgt            1           1   3.4369548597235219E-002           4       87446           0
</event>
<event>
      5   9999  3.79277E-02  2.14954E+01 -1.00000E+00  1.63826E-01
      21    -1     0     0   512   501  0.000000000E+00  0.000000000E+00  6.217240690E+01  6.217240690E+01  0.000000000E+00  0.00000E+00  9.000E+00
      21    -1     0     0   501   502  0.000000000E+00  0.000000000E+00 -1.036183928E+03  1.036183928E+03  0.000000000E+00  0.00000E+00  9.000E+00
      25     1     1     2     0     0  2.018050515E+02  1.920301894E+01 -4.194156128E+02  4.823157586E+02  1.250000000E+02  0.00000E+00  9.000E+00
      25     1     1     2     0     0 -2.118979653E+02 -2.244789744E-01 -5.208522202E+02  5.760319725E+02  1.250000000E+02  0.00000E+00  9.000E+00
      21     1     1     2   512   502  1.009291376E+01 -1.897853996E+01 -3.374368801E+01  4.000860367E+01  4.768371582E-07  0.00000E+00  9.000E+00
#rwgt            1           1   3.9712183981366174E-002           4       87664           0
</event>
<event>
      5   9999  3.79277E-02  5.37573E+01 -1.00000E+00  1.37304E-01
      21    -1     0     0   502   511  0.000000000E+00  0.000000000E+00  2.877860031E+02  2.877860031E+02  0.000000000E+00  0.00000E+00  9.000E+00
      21    -1     0     0   501   502  0.000000000E+00  0.000000000E+00 -2.451351752E+02  2.451351752E+02  0.000000000E+00  0.00000E+00  9.000E+00
      25     1     1     2     0     0  2.687246507E+01  2.078562931E+02 -1.112591419E+01  2.442849851E+02  1.250000000E+02  0.00000E+00  9.000E+00
      25     1     1     2     0     0  1.809174430E+01 -1.783933993E+02  9.150955095E+00  2.187698702E+02  1.250000000E+02  0.00000E+00  9.000E+00
      21     1     1     2   501   511 -4.496420937E+01 -2.946289377E+01  4.462578701E+01  6.986632307E+01  9.536743164E-07  0.00000E+00  9.000E+00
#rwgt            1           1   2.6051797890193552E-002           4       87932           0
</event>
<event>
      5   9999  3.79277E-02  3.96655E+01 -1.00000E+00  1.45067E-01
      21    -1     0     0   502   501  0.000000000E+00  0.000000000E+00  1.083845233E+02  1.083845233E+02  0.000000000E+00  0.00000E+00  9.000E+00
      21    -1     0     0   501   512  0.000000000E+00  0.000000000E+00 -7.162180595E+02  7.162180595E+02  0.000000000E+00  0.00000E+00  9.000E+00
      25     1     1     2     0     0 -1.810673427E+02  1.539573519E+02 -2.408285570E+02  3.607099149E+02  1.250000000E+02  0.00000E+00  9.000E+00
      25     1     1     2     0     0  1.672983238E+02 -1.167583820E+02 -2.801964320E+02  3.684512036E+02  1.250000000E+02  0.00000E+00  9.000E+00
      21     1     1     2   502   512  1.376901894E+01 -3.719896985E+01 -8.680854723E+01  9.544146433E+01  0.000000000E+00  0.00000E+00  9.000E+00
#rwgt            1           1   2.8470512628364888E-002           4       88057           0
</event>
<event>
      5   9999  3.79277E-02  5.37274E+01 -1.00000E+00  1.37317E-01
      21    -1     0     0   502   501  0.000000000E+00  0.000000000E+00  6.580704078E+02  6.580704078E+02  0.000000000E+00  0.00000E+00  9.000E+00
      21    -1     0     0   511   502  0.000000000E+00  0.000000000E+00 -4.772062958E+02  4.772062958E+02  0.000000000E+00  0.00000E+00  9.000E+00
      25     1     1     2     0     0  1.235087390E+02 -1.587812759E+02  3.256036186E+02  4.026271459E+02  1.250000000E+02  0.00000E+00  9.000E+00
      25     1     1     2     0     0 -1.466650990E+02  1.103002078E+02  2.499440400E+02  3.343259043E+02  1.250000000E+02  0.00000E+00  9.000E+00
      21     1     1     2   511   501  2.315636006E+01  4.848106804E+01 -3.946835466E+02  3.983236535E+02  5.394796609E-06  0.00000E+00  9.000E+00
#rwgt            1           1   4.0766128092063050E-002           4       88238           0
</event>
<event>
      5   9999  3.79277E-02  2.31385E+01 -1.00000E+00  1.61310E-01
      21    -1     0     0   502   501  0.000000000E+00  0.000000000E+00  5.221325717E+02  5.221325717E+02  0.000000000E+00  0.00000E+00  9.000E+00
      21    -1     0     0   501   512  0.000000000E+00  0.000000000E+00 -1.066651644E+02  1.066651644E+02  0.000000000E+00  0.00000E+00  9.000E+00
      25     1     1     2     0     0 -1.530919448E+02  3.947301191E+01  1.981219805E+02  2.826173763E+02  1.250000000E+02  0.00000E+00  9.000E+00
      25     1     1     2     0     0  1.628994353E+02 -6.043017654E+01  2.344107773E+02  3.174294327E+02  1.250000000E+02  0.00000E+00  9.000E+00
      21     1     1     2   502   512 -9.807490539E+00  2.095716462E+01 -1.706535047E+01  2.875092705E+01  7.539457465E-07  0.00000E+00  9.000E+00
#rwgt            1           1   5.8178235851666406E-002           4       88320           0
</event>
<event>
      5   9999  3.79277E-02  7.92457E+01 -1.00000E+00  1.28549E-01
      21    -1     0     0   502   511  0.000000000E+00  0.000000000E+00  5.617122266E+01  5.617122266E+01  0.000000000E+00  0.00000E+00  9.000E+00
      21    -1     0     0   501   502  0.000000000E+00  0.000000000E+00 -1.171897930E+03  1.171897930E+03  0.000000000E+00  0.00000E+00  9.000E+00
      25     1     1     2     0     0 -1.742069122E+02  1.413097259E+01 -2.754088929E+02  3.493176075E+02  1.250000000E+02  0.00000E+00  9.000E+00
      25     1     1     2     0     0  9.724694853E+01 -3.302652873E+01 -6.912479447E+02  7.099270679E+02  1.250000000E+02  0.00000E+00  9.000E+00
      21     1     1     2   501   511  7.695996367E+01  1.889555614E+01 -1.490698694E+02  1.688244769E+02  2.697398305E-06  0.00000E+00  9.000E+00
#rwgt            1           1   1.9472340472688504E-002           4       88500           0
</event>
<event>
      5   9999  3.79277E-02  9.20800E+01 -1.00000E+00  1.25461E-01
      21    -1     0     0   502   512  0.000000000E+00  0.000000000E+00  1.775299422E+02  1.775299422E+02  0.000000000E+00  0.00000E+00  9.000E+00
      21    -1     0     0   501   502  0.000000000E+00  0.000000000E+00 -3.152748529E+02  3.152748529E+02  0.000000000E+00  0.00000E+00  9.000E+00
      25     1     1     2     0     0  1.381084814E+01  1.006395080E+02 -6.813425855E+01  1.748894716E+02  1.250000000E+02  0.00000E+00  9.000E+00
      25     1     1     2     0     0  6.875234746E+01 -1.414076650E+02 -9.528584977E+01  2.223227523E+02  1.250000000E+02  0.00000E+00  9.000E+00
      21     1     1     2   501   512 -8.256319560E+01  4.076815698E+01  2.567519764E+01  9.559257119E+01  1.430511475E-06  0.00000E+00  9.000E+00
#rwgt            1           1   3.7270227938786267E-002           4       88584           0
</event>
<event>
      5   9999  3.79277E-02  2.95679E+01 -1.00000E+00  1.53479E-01
      21    -1     0     0   511   501  0.000000000E+00  0.000000000E+00  2.681599024E+02  2.681599024E+02  0.000000000E+00  0.00000E+00  9.000E+00
      21    -1     0     0   501   502  0.000000000E+00  0.000000000E+00 -4.234713067E+02  4.234713067E+02  0.000000000E+00  0.00000E+00  9.000E+00
      25     1     1     2     0     0  2.530357339E+02 -1.187443879E+02  2.637260636E+01  3.073236513E+02  1.250000000E+02  0.00000E+00  9.000E+00
      25     1     1     2     0     0 -2.333229044E+02  1.407821502E+02 -1.882641486E+02  3.540163573E+02  1.250000000E+02  0.00000E+00  9.000E+00
      21     1     1     2   511   502 -1.971282946E+01 -2.203776234E+01  6.580137970E+00  3.029120054E+01  5.840038640E-07  0.00000E+00  9.000E+00
#rwgt            1           1  0.23883928470847227                4       88699           0
</event>
<event>
      5   9999  3.79277E-02  2.13588E+01 -1.00000E+00  1.64048E-01
      21    -1     0     0   512   501  0.000000000E+00  0.000000000E+00  1.106714846E+03  1.106714846E+03  0.000000000E+00  0.00000E+00  9.000E+00
      21    -1     0     0   501   502  0.000000000E+00  0.000000000E+00 -5.760085634E+01  5.760085634E+01  0.000000000E+00  0.00000E+00  9.000E+00
      25     1     1     2     0     0  1.514890596E+02 -4.391539411E+01  2.154972271E+02  2.948585286E+02  1.250000000E+02  0.00000E+00  9.000E+00
      25     1     1     2     0     0 -1.621331573E+02  6.243294493E+01  6.438695586E+02  6.785116372E+02  1.250000000E+02  0.00000E+00  9.000E+00
      21     1     1     2   512   502  1.064409766E+01 -1.851755082E+01  1.897472039E+02  1.909455365E+02  0.000000000E+00  0.00000E+00  9.000E+00
#rwgt            1           1   3.8700986967268189E-002           4       88891           0
</event>
<event>
      5   9999  3.79277E-02  4.23038E+01 -1.00000E+00  1.43348E-01
      21    -1     0     0   502   501  0.000000000E+00  0.000000000E+00  1.095685203E+02  1.095685203E+02  0.000000000E+00  0.00000E+00  9.000E+00
      21    -1     0     0   511   502  0.000000000E+00  0.000000000E+00 -8.735698410E+02  8.735698410E+02  0.000000000E+00  0.00000E+00  9.000E+00
      25     1     1     2     0     0  6.641092045E+01 -9.054636027E+00 -5.924284503E+02  6.091706374E+02  1.250000000E+02  0.00000E+00  9.000E+00
      25     1     1     2     0     0 -4.828792552E+01 -2.917061512E+01  5.181987128E+01  1.466047325E+02  1.250000000E+02  0.00000E+00  9.000E+00
      21     1     1     2   511   501 -1.812299493E+01  3.822525115E+01 -2.233927417E+02  2.273629913E+02  3.814697266E-06  0.00000E+00  9.000E+00
#rwgt            1           1   4.0801517062266576E-002           4       89092           0
</event>
<event>
      5   9999  3.79277E-02  1.77575E+01 -1.00000E+00  1.70746E-01
      21    -1     0     0   502   501  0.000000000E+00  0.000000000E+00  2.226001003E+03  2.226001003E+03  0.000000000E+00  0.00000E+00  9.000E+00
      21    -1     0     0   512   502  0.000000000E+00  0.000000000E+00 -9.003298109E+01  9.003298109E+01  0.000000000E+00  0.00000E+00  9.000E+00
      25     1     1     2     0     0 -1.698054120E+02 -4.804301559E+01  1.100210413E+03  1.121262665E+03  1.250000000E+02  0.00000E+00  9.000E+00
      25     1     1     2     0     0  1.531775402E+02  4.181073613E+01  1.104980595E+03  1.123306998E+03  1.250000000E+02  0.00000E+00  9.000E+00
      21     1     1     2   512   501  1.662787181E+01  6.232279457E+00 -6.922298633E+01  7.146432162E+01  4.473129043E-06  0.00000E+00  9.000E+00
#rwgt            1           1   8.8444406758343988E-002           4       89263           0
</event>
<event>
      5   9999  3.79277E-02  3.05515E+01 -1.00000E+00  1.52492E-01
      21    -1     0     0   502   501  0.000000000E+00  0.000000000E+00  8.291769774E+01  8.291769774E+01  0.000000000E+00  0.00000E+00  9.000E+00
      21    -1     0     0   501   511  0.000000000E+00  0.000000000E+00 -1.173812463E+03  1.173812463E+03  0.000000000E+00  0.00000E+00  9.000E+00
      25     1     1     2     0     0 -2.212532292E+00 -1.378470708E+02 -5.020259606E+01  1.927485690E+02  1.250000000E+02  0.00000E+00  9.000E+00
      25     1     1     2     0     0 -2.814456547E+01  1.412877184E+02 -8.849563080E+02  9.052773073E+02  1.250000000E+02  0.00000E+00  9.000E+00
      21     1     1     2   502   511  3.035709776E+01 -3.440647655E+00 -1.557358611E+02  1.587042843E+02  0.000000000E+00  0.00000E+00  9.000E+00
#rwgt            1           1   3.3364994997717022E-002           4       89459           0
</event>
<event>
      5   9999  3.79277E-02  6.99672E+01 -1.00000E+00  1.31231E-01
      21    -1     0     0   502   501  0.000000000E+00  0.000000000E+00  7.743835418E+02  7.743835418E+02  0.000000000E+00  0.00000E+00  9.000E+00
      21    -1     0     0   512   502  0.000000000E+00  0.000000000E+00 -1.557059450E+03  1.557059450E+03  0.000000000E+00  0.00000E+00  9.000E+00
      25     1     1     2     0     0  9.775725622E+01 -1.963586044E+02  2.821487176E+02  3.786107256E+02  1.250000000E+02  0.00000E+00  9.000E+00
      25     1     1     2     0     0 -1.662055962E+02  1.818593981E+02  4.001140948E+02  4.862236417E+02  1.250000000E+02  0.00000E+00  9.000E+00
      21     1     1     2   512   501  6.844834000E+01  1.449920634E+01 -1.464938721E+03  1.466608625E+03  0.000000000E+00  0.00000E+00  9.000E+00
#rwgt            1           1   9.9997368005484533E-002           4       89622           0
</event>
<event>
      5   9999  3.79277E-02  2.03469E+02 -1.00000E+00  1.11377E-01
      21    -1     0     0   502   501  0.000000000E+00  0.000000000E+00  1.519222891E+03  1.519222891E+03  0.000000000E+00  0.00000E+00  9.000E+00
      21    -1     0     0   501   511  0.000000000E+00  0.000000000E+00 -2.316878099E+02  2.316878099E+02  0.000000000E+00  0.00000E+00  9.000E+00
      25     1     1     2     0     0  1.853641476E+02  2.222060043E+02  7.983755576E+02  8.583495247E+02  1.250000000E+02  0.00000E+00  9.000E+00
      25     1     1     2     0     0 -3.586809824E+02 -1.156186737E+02  5.516808568E+02  6.797032386E+02  1.250000000E+02  0.00000E+00  9.000E+00
      21     1     1     2   502   511  1.733168348E+02 -1.065873306E+02 -6.252133360E+01  2.128579372E+02  1.907348633E-06  0.00000E+00  9.000E+00
#rwgt            1           1   3.2048495487703194E-002           4       89752           0
</event>
<event>
      5   9999  3.79277E-02  1.86809E+01 -1.00000E+00  1.68852E-01
      21    -1     0     0   502   512  0.000000000E+00  0.000000000E+00  5.158203443E+02  5.158203443E+02  0.000000000E+00  0.00000E+00  9.000E+00
      21    -1     0     0   501   502  0.000000000E+00  0.000000000E+00 -1.639502526E+02  1.639502526E+02  0.000000000E+00  0.00000E+00  9.000E+00
      25     1     1     2     0     0  2.228030759E+02  7.435892992E+01  2.163050412E+02  3.429042606E+02  1.250000000E+02  0.00000E+00  9.000E+00
      25     1     1     2     0     0 -2.326513996E+02 -9.023297787E+01  9.959076647E+01  2.963308705E+02  1.250000000E+02  0.00000E+00  9.000E+00
      21     1     1     2   501   512  9.848323740E+00  1.587404795E+01  3.597428402E+01  4.053546583E+01  8.259061849E-07  0.00000E+00  9.000E+00
#rwgt            1           1   2.9051412146051007E-002           4       89805           0
</event>
<event>
      5   9999  3.79277E-02  1.35961E+01 -1.00000E+00  1.81501E-01
      21    -1     0     0   502   501  0.000000000E+00  0.000000000E+00  1.110748461E+03  1.110748461E+03  0.000000000E+00  0.00000E+00  9.000E+00
      21    -1     0     0   501   511  0.000000000E+00  0.000000000E+00 -3.311021667E+01  3.311021667E+01  0.000000000E+00  0.00000E+00  9.000E+00
      25     1     1     2     0     0  7.111369639E+00 -1.454241046E+01  7.239269650E+02  7.348178712E+02  1.250000000E+02  0.00000E+00  9.000E+00
      25     1     1     2     0     0 -1.316133841E+01  2.366505581E+00  3.682610325E+02  3.891272404E+02  1.250000000E+02  0.00000E+00  9.000E+00
      21     1     1     2   502   511  6.049968773E+00  1.217590488E+01 -1.454975334E+01  1.991356583E+01  9.536743164E-07  0.00000E+00  9.000E+00
#rwgt            1           1   1.4197783320752801E-002           4       90096           0
</event>
<event>
      5   9999 -3.79277E-02  8.22074E+01 -1.00000E+00  1.27780E-01
      -5    -1     0     0     0   501  0.000000000E+00  0.000000000E+00  1.745572418E+02  1.745572418E+02  0.000000000E+00  0.00000E+00  9.000E+00
      21    -1     0     0   501   502  0.000000000E+00  0.000000000E+00 -1.884661381E+03  1.884661381E+03  0.000000000E+00  0.00000E+00  9.000E+00
      25     1     1     2     0     0  9.288733981E+01 -2.120195555E+02 -6.402427128E+02  6.921821155E+02  1.250000000E+02  0.00000E+00  9.000E+00
      25     1     1     2     0     0 -3.274701514E+01  1.559731808E+02 -1.197886799E+03  1.214890029E+03  1.250000000E+02  0.00000E+00  9.000E+00
      -5     1     1     2     0   502 -6.014032468E+01  5.604637470E+01  1.280253725E+02  1.521464780E+02  1.907348633E-06  0.00000E+00  9.000E+00
#rwgt            1           1 -0.15754591735444090                4       90332           0
</event>
<event>
      5   9999  3.79277E-02  8.54216E+01 -1.00000E+00  1.26986E-01
      21    -1     0     0   502   501  0.000000000E+00  0.000000000E+00  1.683043598E+02  1.683043598E+02  0.000000000E+00  0.00000E+00  9.000E+00
      21    -1     0     0   511   502  0.000000000E+00  0.000000000E+00 -4.038263416E+02  4.038263416E+02  0.000000000E+00  0.00000E+00  9.000E+00
      25     1     1     2     0     0  1.937104007E+02  3.135200308E+01 -1.127566309E+02  2.585454026E+02  1.250000000E+02  0.00000E+00  9.000E+00
      25     1     1     2     0     0 -1.106056421E+02 -1.159211048E+01 -4.086331127E+00  1.673609368E+02  1.250000000E+02  0.00000E+00  9.000E+00
      21     1     1     2   511   501 -8.310475859E+01 -1.975989261E+01 -1.186790198E+02  1.462243618E+02  0.000000000E+00  0.00000E+00  9.000E+00
#rwgt            1           1   4.0510519078157226E-002           4       90397           0
</event>
<event>
      5   9999  3.79277E-02  1.40949E+01 -1.00000E+00  1.79968E-01
      21    -1     0     0   502   512  0.000000000E+00  0.000000000E+00  4.189625534E+02  4.189625534E+02  0.000000000E+00  0.00000E+00  9.000E+00
      21    -1     0     0   501   502  0.000000000E+00  0.000000000E+00 -1.901967933E+02  1.901967933E+02  0.000000000E+00  0.00000E+00  9.000E+00
      25     1     1     2     0     0  8.357381234E+00 -1.578697175E+02  3.136296071E+02  3.728018562E+02  1.250000000E+02  0.00000E+00  9.000E+00
      25     1     1     2     0     0 -9.492017252E+00  1.438205503E+02 -1.002248441E+02  2.155097873E+02  1.250000000E+02  0.00000E+00  9.000E+00
      21     1     1     2   501   512  1.134636017E+00  1.404916722E+01  1.536099702E+01  2.084770318E+01  2.384185791E-07  0.00000E+00  9.000E+00
#rwgt            1           1   5.2523699547113466E-002           4       90553           0
</event>
<event>
      5   9999  3.79277E-02  1.30842E+02 -1.00000E+00  1.18795E-01
      21    -1     0     0   502   501  0.000000000E+00  0.000000000E+00  1.472671906E+02  1.472671906E+02  0.000000000E+00  0.00000E+00  9.000E+00
      21    -1     0     0   501   511  0.000000000E+00  0.000000000E+00 -5.057917457E+02  5.057917457E+02  0.000000000E+00  0.00000E+00  9.000E+00
      25     1     1     2     0     0  1.518271428E+02  1.143162738E+02 -7.317949742E+01  2.389559177E+02  1.250000000E+02  0.00000E+00  9.000E+00
      25     1     1     2     0     0 -1.071240462E+02  8.651957486E+00 -1.937318639E+02  2.543765963E+02  1.250000000E+02  0.00000E+00  9.000E+00
      21     1     1     2   502   511 -4.470309665E+01 -1.229682313E+02 -9.161319379E+01  1.597264224E+02  3.303624740E-06  0.00000E+00  9.000E+00
#rwgt            2          11   2.4777624990139852E-003           4       90819           0
</event>
<event>
      5   9999  3.79277E-02  2.79383E+01 -1.00000E+00  1.55219E-01
      21    -1     0     0   502   512  0.000000000E+00  0.000000000E+00  2.076175453E+02  2.076175453E+02  0.000000000E+00  0.00000E+00  9.000E+00
      21    -1     0     0   501   502  0.000000000E+00  0.000000000E+00 -4.184119811E+02  4.184119811E+02  0.000000000E+00  0.00000E+00  9.000E+00
      25     1     1     2     0     0 -1.075927337E+02  1.477334545E+02  4.502909974E+01  2.259512995E+02  1.250000000E+02  0.00000E+00  9.000E+00
      25     1     1     2     0     0  1.353523664E+02 -1.508882926E+02 -2.767976483E+02  3.651430925E+02  1.250000000E+02  0.00000E+00  9.000E+00
      21     1     1     2   501   512 -2.775963261E+01  3.154838130E+00  2.097411273E+01  3.493513434E+01  7.539457465E-07  0.00000E+00  9.000E+00
#rwgt            1           1   3.8796290735400703E-002           4       90839           0
</event>
<event>
      5   9999  3.79277E-02  1.27188E+02 -1.00000E+00  1.19306E-01
      21    -1     0     0   502   511  0.000000000E+00  0.000000000E+00  1.543597196E+02  1.543597196E+02  0.000000000E+00  0.00000E+00  9.000E+00
      21    -1     0     0   501   502  0.000000000E+00  0.000000000E+00 -6.293457306E+02  6.293457306E+02  0.000000000E+00  0.00000E+00  9.000E+00
      25     1     1     2     0     0 -1.351083217E+01 -1.146164757E+02 -2.529896418E+02  3.048741346E+02  1.250000000E+02  0.00000E+00  9.000E+00
      25     1     1     2     0     0 -1.123106753E+02  1.332114209E+02 -2.683096405E+02  3.434734832E+02  1.250000000E+02  0.00000E+00  9.000E+00
      21     1     1     2   501   511  1.258215074E+02 -1.859494521E+01  4.631327129E+01  1.353578325E+02  3.504023184E-06  0.00000E+00  9.000E+00
#rwgt            1           1   5.5710518675070979E-003           4       91053           0
</event>
<event>
      5   9999  3.79277E-02  9.17868E+01 -1.00000E+00  1.25525E-01
      21    -1     0     0   512   501  0.000000000E+00  0.000000000E+00  3.273029896E+02  3.273029896E+02  0.000000000E+00  0.00000E+00  9.000E+00
      21    -1     0     0   501   502  0.000000000E+00  0.000000000E+00 -2.734512771E+02  2.734512771E+02  0.000000000E+00  0.00000E+00  9.000E+00
      25     1     1     2     0     0 -8.070873105E+00  1.279314036E+02  1.315846685E+02  2.221961026E+02  1.250000000E+02  0.00000E+00  9.000E+00
      25     1     1     2     0     0  7.963886960E+01 -1.854017342E+02 -1.323329653E+02  2.717593905E+02  1.250000000E+02  0.00000E+00  9.000E+00
      21     1     1     2   512   502 -7.156799650E+01  5.747033064E+01  5.460000935E+01  1.067987736E+02  0.000000000E+00  0.00000E+00  9.000E+00
#rwgt            1           1   4.9481844473097628E-002           4       91126           0
</event>
<event>
      5   9999  3.79277E-02  1.60704E+01 -1.00000E+00  1.74609E-01
      21    -1     0     0   511   501  0.000000000E+00  0.000000000E+00  5.350077582E+01  5.350077582E+01  0.000000000E+00  0.00000E+00  9.000E+00
      21    -1     0     0   501   502  0.000000000E+00  0.000000000E+00 -1.093451779E+03  1.093451779E+03  0.000000000E+00  0.00000E+00  9.000E+00
      25     1     1     2     0     0  6.533734092E+01  1.140512006E+02 -4.942429647E+02  5.264767351E+02  1.250000000E+02  0.00000E+00  9.000E+00
      25     1     1     2     0     0 -5.154781166E+01 -1.223037849E+02 -5.659719742E+02  5.946130408E+02  1.250000000E+02  0.00000E+00  9.000E+00
      21     1     1     2   511   502 -1.378952926E+01  8.252584289E+00  2.026393548E+01  2.586277916E+01  8.920806376E-07  0.00000E+00  9.000E+00
#rwgt            1           1   3.9434506763488121E-002           4       91210           0
</event>
<event>
      5   9999  3.79277E-02  5.33471E+01 -1.00000E+00  1.37489E-01
      21    -1     0     0   502   501  0.000000000E+00  0.000000000E+00  1.976316146E+02  1.976316146E+02  0.000000000E+00  0.00000E+00  9.000E+00
      21    -1     0     0   501   512  0.000000000E+00  0.000000000E+00 -7.302864931E+02  7.302864931E+02  0.000000000E+00  0.00000E+00  9.000E+00
      25     1     1     2     0     0  2.527696534E+02 -4.289816914E+01 -1.593714593E+02  3.267369165E+02  1.250000000E+02  0.00000E+00  9.000E+00
      25     1     1     2     0     0 -2.436190781E+02 -9.658303879E+00 -5.626294785E+01  2.797035169E+02  1.250000000E+02  0.00000E+00  9.000E+00
      21     1     1     2   502   512 -9.150575270E+00  5.255647302E+01 -3.170204714E+02  3.214776744E+02  0.000000000E+00  0.00000E+00  9.000E+00
#rwgt            1           1   3.9473031923785970E-002           4       91465           0
</event>
<event>
      5   9999  3.79277E-02  4.94290E+01 -1.00000E+00  1.39361E-01
      21    -1     0     0   502   511  0.000000000E+00  0.000000000E+00  5.147429826E+02  5.147429826E+02  0.000000000E+00  0.00000E+00  9.000E+00
      21    -1     0     0   501   502  0.000000000E+00  0.000000000E+00 -2.204625685E+02  2.204625685E+02  0.000000000E+00  0.00000E+00  9.000E+00
      25     1     1     2     0     0 -3.772270942E+01  4.836178780E+01 -1.627804364E+02  2.142062926E+02  1.250000000E+02  0.00000E+00  9.000E+00
      25     1     1     2     0     0  7.246104892E+01 -1.319829470E+01  1.452618006E+02  2.053065740E+02  1.250000000E+02  0.00000E+00  9.000E+00
      21     1     1     2   501   511 -3.473833950E+01 -3.516349309E+01  3.117990499E+02  3.156926844E+02  3.814697266E-06  0.00000E+00  9.000E+00
#rwgt            1           1   4.4119345936064723E-002           4       91673           0
</event>
<event>
      5   9999 -3.79277E-02  9.37491E+00 -1.00000E+00  1.99055E-01
      21    -1     0     0   502   501  0.000000000E+00  0.000000000E+00  1.990586937E+02  1.990586937E+02  0.000000000E+00  0.00000E+00  9.000E+00
      21    -1     0     0   501   512  0.000000000E+00  0.000000000E+00 -3.600957129E+02  3.600957129E+02  0.000000000E+00  0.00000E+00  9.000E+00
      25     1     1     2     0     0 -5.616533267E+01 -2.114258760E+02 -1.364904578E+02  2.865485835E+02  1.250000000E+02  0.00000E+00  9.000E+00
      25     1     1     2     0     0  6.541219357E+01  2.098816903E+02 -7.324542560E+00  2.529974860E+02  1.250000000E+02  0.00000E+00  9.000E+00
      21     1     1     2   502   512 -9.246860893E+00  1.544185748E+00 -1.722201888E+01  1.960833701E+01  0.000000000E+00  0.00000E+00  9.000E+00
#rwgt            1           1 -0.19467737529819512                4       91754           0
</event>
<event>
      5   9999  3.79277E-02  8.63875E+01 -1.00000E+00  1.26755E-01
      21    -1     0     0   502   511  0.000000000E+00  0.000000000E+00  4.474147003E+02  4.474147003E+02  0.000000000E+00  0.00000E+00  9.000E+00
      21    -1     0     0   501   502  0.000000000E+00  0.000000000E+00 -4.412871076E+02  4.412871076E+02  0.000000000E+00  0.00000E+00  9.000E+00
      25     1     1     2     0     0 -2.632569879E+02 -2.237896545E+02 -8.052618018E+01  3.761588984E+02  1.250000000E+02  0.00000E+00  9.000E+00
      25     1     1     2     0     0  1.827747019E+02  2.551806440E+02 -5.921859010E+01  3.430096123E+02  1.250000000E+02  0.00000E+00  9.000E+00
      21     1     1     2   501   511  8.048228598E+01 -3.139098953E+01  1.458723629E+02  1.695332972E+02  0.000000000E+00  0.00000E+00  9.000E+00
#rwgt            1           1   2.9928817196061372E-002           4       91986           0
</event>
<event>
      5   9999  3.79277E-02  1.37764E+01 -1.00000E+00  1.80937E-01
      21    -1     0     0   512   501  0.000000000E+00  0.000000000E+00  3.851514493E+02  3.851514493E+02  0.000000000E+00  0.00000E+00  9.000E+00
      21    -1     0     0   501   502  0.000000000E+00  0.000000000E+00 -2.208367620E+02  2.208367620E+02  0.000000000E+00  0.00000E+00  9.000E+00
      25     1     1     2     0     0 -6.224974977E+01 -1.802017191E+01 -1.778787018E+02  2.268602885E+02  1.250000000E+02  0.00000E+00  9.000E+00
      25     1     1     2     0     0  7.352879359E+01  2.593049440E+01  3.267889705E+02  3.584618602E+02  1.250000000E+02  0.00000E+00  9.000E+00
      21     1     1     2   512   502 -1.127904382E+01 -7.910322493E+00  1.540441855E+01  2.066606257E+01  2.920019320E-07  0.00000E+00  9.000E+00
#rwgt            1           1   4.8750868645605218E-002           4       92111           0
</event>
<event>
      5   9999  3.79277E-02  1.26708E+01 -1.00000E+00  1.84578E-01
      21    -1     0     0   502   501  0.000000000E+00  0.000000000E+00  1.148204373E+03  1.148204373E+03  0.000000000E+00  0.00000E+00  9.000E+00
      21    -1     0     0   501   511  0.000000000E+00  0.000000000E+00 -1.138391741E+02  1.138391741E+02  0.000000000E+00  0.00000E+00  9.000E+00
      25     1     1     2     0     0  2.603560346E+02 -9.655837652E+01  5.061669121E+02  5.907103586E+02  1.250000000E+02  0.00000E+00  9.000E+00
      25     1     1     2     0     0 -2.525055179E+02  8.661263457E+01  5.623427567E+02  6.349135068E+02  1.250000000E+02  0.00000E+00  9.000E+00
      21     1     1     2   502   511 -7.850516716E+00  9.945741943E+00 -3.414446984E+01  3.641968171E+01  6.743495762E-07  0.00000E+00  9.000E+00
#rwgt            1           1   3.8372075821775473E-002           4       92389           0
</event>
<event>
      5   9999  3.79277E-02  3.22111E+01 -1.00000E+00  1.50925E-01
      21    -1     0     0   502   512  0.000000000E+00  0.000000000E+00  2.385070851E+02  2.385070851E+02  0.000000000E+00  0.00000E+00  9.000E+00
      21    -1     0     0   501   502  0.000000000E+00  0.000000000E+00 -2.884827810E+02  2.884827810E+02  0.000000000E+00  0.00000E+00  9.000E+00
      25     1     1     2     0     0 -7.750343767E+01 -1.015324639E+02 -1.464965094E+02  2.310884059E+02  1.250000000E+02  0.00000E+00  9.000E+00
      25     1     1     2     0     0  9.327250309E+01  1.296196292E+02  9.396157674E+00  2.030130436E+02  1.250000000E+02  0.00000E+00  9.000E+00
      21     1     1     2   501   512 -1.576906542E+01 -2.808716532E+01  8.712465582E+01  9.288841657E+01  1.651812370E-06  0.00000E+00  9.000E+00
#rwgt            1           1   1.1147308965634161E-002           4       92656           0
</event>
<event>
      5   9999 -3.79277E-02  9.22127E+01 -1.00000E+00  1.25433E-01
       1    -1     0     0   502     0  0.000000000E+00  0.000000000E+00  1.721122870E+03  1.721122870E+03  0.000000000E+00  0.00000E+00  9.000E+00
      21    -1     0     0   501   502  0.000000000E+00  0.000000000E+00 -5.118022242E+02  5.118022242E+02  0.000000000E+00  0.00000E+00  9.000E+00
      25     1     1     2     0     0  1.928105253E+02 -5.532239153E+01 -1.487290597E+02  2.792522138E+02  1.250000000E+02  0.00000E+00  9.000E+00
      25     1     1     2     0     0 -1.146267393E+02  6.429834592E+00 -2.722213325E+02  3.207960193E+02  1.250000000E+02  0.00000E+00  9.000E+00
       1     1     1     2   501     0 -7.818378603E+01  4.889255694E+01  1.630271038E+03  1.632876861E+03  2.157918644E-05  0.00000E+00  9.000E+00
#rwgt            1           1  -4.4468817361910558E-002           4       92784           0
</event>
<event>
      5   9999  3.79277E-02  2.83707E+01 -1.00000E+00  1.54743E-01
      21    -1     0     0   502   511  0.000000000E+00  0.000000000E+00  1.322868716E+02  1.322868716E+02  0.000000000E+00  0.00000E+00  9.000E+00
      21    -1     0     0   501   502  0.000000000E+00  0.000000000E+00 -7.322730727E+02  7.322730727E+02  0.000000000E+00  0.00000E+00  9.000E+00
      25     1     1     2     0     0 -1.554063338E+02  1.423217175E+02 -2.920715340E+02  3.812314007E+02  1.250000000E+02  0.00000E+00  9.000E+00
      25     1     1     2     0     0  1.497882672E+02 -1.701306483E+02 -3.483103423E+02  4.339655021E+02  1.250000000E+02  0.00000E+00  9.000E+00
      21     1     1     2   501   511  5.618066561E+00  2.780893075E+01  4.039567510E+01  4.936304152E+01  1.581489940E-06  0.00000E+00  9.000E+00
#rwgt            1           1   3.2683769411303881E-002           4       92910           0
</event>
<event>
      5   9999  3.79277E-02  5.53980E+01 -1.00000E+00  1.36582E-01
      21    -1     0     0   512   501  0.000000000E+00  0.000000000E+00  3.061473684E+01  3.061473684E+01  0.000000000E+00  0.00000E+00  9.000E+00
      21    -1     0     0   501   502  0.000000000E+00  0.000000000E+00 -1.060028694E+03  1.060028694E+03  0.000000000E+00  0.00000E+00  9.000E+00
      25     1     1     2     0     0 -6.256698756E+01 -2.075434714E+01 -5.568816222E+02  5.745324290E+02  1.250000000E+02  0.00000E+00  9.000E+00
      25     1     1     2     0     0  1.819388812E+01  5.392010789E+01 -4.108735599E+02  4.332210496E+02  1.250000000E+02  0.00000E+00  9.000E+00
      21     1     1     2   512   502  4.437309945E+01 -3.316576075E+01 -6.165877517E+01  8.288995232E+01  1.907348633E-06  0.00000E+00  9.000E+00
#rwgt            1           1   2.9762690103317613E-002           4       93050           0
</event>
<event>
      5   9999  3.79277E-02  2.30765E+01 -1.00000E+00  1.61400E-01
      21    -1     0     0   502   501  0.000000000E+00  0.000000000E+00  4.553024051E+01  4.553024051E+01  0.000000000E+00  0.00000E+00  9.000E+00
       2    -1     0     0   501     0  0.000000000E+00  0.000000000E+00 -1.384223501E+03  1.384223501E+03  0.000000000E+00  0.00000E+00  9.000E+00
      25     1     1     2     0     0 -1.216806316E+01  1.389196577E+02 -4.288729902E+02  4.679783914E+02  1.250000000E+02  0.00000E+00  9.000E+00
      25     1     1     2     0     0 -2.711856397E+00 -1.212812272E+02 -2.685790578E+02  3.201190412E+02  1.250000000E+02  0.00000E+00  9.000E+00
       2     1     1     2   502     0  1.487991956E+01 -1.763843055E+01 -6.412412125E+02  6.416563090E+02  1.078959322E-05  0.00000E+00  9.000E+00
#rwgt            1           1  0.10229269800795800                4       93153           0
</event>
<event>
      5   9999  3.79277E-02  5.42459E+01 -1.00000E+00  1.37086E-01
      21    -1     0     0   511   501  0.000000000E+00  0.000000000E+00  8.943591139E+02  8.943591139E+02  0.000000000E+00  0.00000E+00  9.000E+00
      21    -1     0     0   501   502  0.000000000E+00  0.000000000E+00 -2.443841830E+02  2.443841830E+02  0.000000000E+00  0.00000E+00  9.000E+00
      25     1     1     2     0     0 -7.683288214E+01 -3.039441817E+02 -1.128489150E+01  3.376946937E+02  1.250000000E+02  0.00000E+00  9.000E+00
      25     1     1     2     0     0  3.082578877E+01  2.752046252E+02  2.712833883E+02  4.073174337E+02  1.250000000E+02  0.00000E+00  9.000E+00
      21     1     1     2   511   502  4.600709337E+01  2.873955649E+01  3.899764341E+02  3.937311695E+02  0.000000000E+00  0.00000E+00  9.000E+00
#rwgt            1           1   3.3714870945419743E-002           4       93261           0
</event>
<event>
      5   9999  3.79277E-02  5.96511E+01 -1.00000E+00  1.34839E-01
      21    -1     0     0   502   501  0.000000000E+00  0.000000000E+00  1.901115807E+01  1.901115807E+01  0.000000000E+00  0.00000E+00  9.000E+00
       2    -1     0     0   501     0  0.000000000E+00  0.000000000E+00 -2.731593795E+03  2.731593795E+03  0.000000000E+00  0.00000E+00  9.000E+00
      25     1     1     2     0     0 -1.076590302E+02  3.828913764E+01 -4.837438834E+02  5.125326034E+02  1.250000000E+02  0.00000E+00  9.000E+00
      25     1     1     2     0     0  4.816485857E+01 -4.261251266E+01 -1.380358451E+03  1.387497796E+03  1.250000000E+02  0.00000E+00  9.000E+00
       2     1     1     2   502     0  5.949417163E+01  4.323375022E+00 -8.484803026E+02  8.505745541E+02  1.078959322E-05  0.00000E+00  9.000E+00
#rwgt            1           1   9.6394997290603995E-002           4       93402           0
</event>
<event>
      5   9999  3.79277E-02  1.73847E+01 -1.00000E+00  1.71552E-01
      21    -1     0     0   502   501  0.000000000E+00  0.000000000E+00  7.516178247E+02  7.516178247E+02  0.000000000E+00  0.00000E+00  9.000E+00
      21    -1     0     0   501   511  0.000000000E+00  0.000000000E+00 -3.021495905E+02  3.021495905E+02  0.000000000E+00  0.00000E+00  9.000E+00
      25     1     1     2     0     0  1.314597599E+02 -1.558910832E+02  8.705927837E+01  2.545349018E+02  1.250000000E+02  0.00000E+00  9.000E+00
      25     1     1     2     0     0 -1.145806082E+02  1.517289599E+02  5.581352206E+02  6.027356946E+02  1.250000000E+02  0.00000E+00  9.000E+00
      21     1     1     2   502   511 -1.687915169E+01  4.162123277E+00 -1.957262648E+02  1.964968187E+02  2.697398305E-06  0.00000E+00  9.000E+00
#rwgt            1           1   9.7519735889576326E-002           4       93511           0
</event>
<event>
      5   9999  3.79277E-02  3.22121E+01 -1.00000E+00  1.50924E-01
      21    -1     0     0   502   512  0.000000000E+00  0.000000000E+00  6.728672353E+02  6.728672353E+02  0.000000000E+00  0.00000E+00  9.000E+00
      21    -1     0     0   501   502  0.000000000E+00  0.000000000E+00 -6.570659605E+01  6.570659605E+01  0.000000000E+00  0.00000E+00  9.000E+00
      25     1     1     2     0     0  5.749482726E+01  8.379576329E+00  4.877852364E+02  5.068878666E+02  1.250000000E+02  0.00000E+00  9.000E+00
      25     1     1     2     0     0 -3.115567996E+01  1.016405488E+01  2.454628210E+01  1.315351830E+02  1.250000000E+02  0.00000E+00  9.000E+00
      21     1     1     2   501   512 -2.633914730E+01 -1.854363121E+01  9.482912077E+01  1.001507817E+02  1.348699152E-06  0.00000E+00  9.000E+00
#rwgt            1           1   3.7956548871709815E-002           4       93734           0
</event>
<event>
      5   9999  3.79277E-02  7.05635E+00 -1.00000E+00  2.15063E-01
      21    -1     0     0   511   501  0.000000000E+00  0.000000000E+00  1.258599731E+03  1.258599731E+03  0.000000000E+00  0.00000E+00  9.000E+00
      21    -1     0     0   501   502  0.000000000E+00  0.000000000E+00 -2.342981095E+01  2.342981095E+01  0.000000000E+00  0.00000E+00  9.000E+00
      25     1     1     2     0     0 -3.809517118E+00  4.255749784E+01  9.792124603E+02  9.880828384E+02  1.250000000E+02  0.00000E+00  9.000E+00
      25     1     1     2     0     0  1.009379358E+01 -4.576684682E+01  2.202533790E+02  2.575520140E+02  1.250000000E+02  0.00000E+00  9.000E+00
      21     1     1     2   511   502 -6.284276461E+00  3.209348976E+00  3.570408069E+01  3.639468958E+01  4.768371582E-07  0.00000E+00  9.000E+00
#rwgt            1           1   3.1214066819965625E-002           4       93941           0
</event>
<event>
      5   9999  3.79277E-02  1.76891E+01 -1.00000E+00  1.70892E-01
      21    -1     0     0   502   501  0.000000000E+00  0.000000000E+00  6.361253047E+02  6.361253047E+02  0.000000000E+00  0.00000E+00  9.000E+00
      21    -1     0     0   512   502  0.000000000E+00  0.000000000E+00 -9.499071076E+01  9.499071076E+01  0.000000000E+00  0.00000E+00  9.000E+00
      25     1     1     2     0     0  7.011136508E+01 -1.510197937E+02  4.059757915E+02  4.562498492E+02  1.250000000E+02  0.00000E+00  9.000E+00
      25     1     1     2     0     0 -8.772280107E+01  1.526756048E+02  1.389405255E+02  2.567773350E+02  1.250000000E+02  0.00000E+00  9.000E+00
      21     1     1     2   512   501  1.761143599E+01 -1.655811066E+00 -3.781723080E+00  1.808883128E+01  3.318646170E-07  0.00000E+00  9.000E+00
#rwgt            1           1   4.2371340254990869E-002           4       94241           0
</event>
<event>
      5   9999  3.79277E-02  3.23238E+02 -1.00000E+00  1.04550E-01
      21    -1     0     0   502   511  0.000000000E+00  0.000000000E+00  2.034646817E+02  2.034646817E+02  0.000000000E+00  0.00000E+00  9.000E+00
      21    -1     0     0   501   502  0.000000000E+00  0.000000000E+00 -1.297276415E+03  1.297276415E+03  0.000000000E+00  0.00000E+00  9.000E+00
      25     1     1     2     0     0  3.705730821E+02  6.907543249E+01 -8.879117816E+02  9.726809120E+02  1.250000000E+02  0.00000E+00  9.000E+00
      25     1     1     2     0     0 -4.819088893E+01 -9.258487497E+01 -6.225593370E+01  1.743419689E+02  1.250000000E+02  0.00000E+00  9.000E+00
      21     1     1     2   501   511 -3.223821932E+02  2.350944248E+01 -1.436440182E+02  3.537182160E+02  2.697398305E-06  0.00000E+00  9.000E+00
#rwgt            1           1   4.1714091736094888E-002           4       94446           0
</event>
<event>
      5   9999  3.79277E-02  6.29821E+01 -1.00000E+00  1.33587E-01
      21    -1     0     0   502   501  0.000000000E+00  0.000000000E+00  7.703070989E+02  7.703070989E+02  0.000000000E+00  0.00000E+00  9.000E+00
      21    -1     0     0   512   502  0.000000000E+00  0.000000000E+00 -2.334553324E+02  2.334553324E+02  0.000000000E+00  0.00000E+00  9.000E+00
      25     1     1     2     0     0 -8.792568151E+01  1.769042211E+02  1.938825286E+02  3.037127982E+02  1.250000000E+02  0.00000E+00  9.000E+00
      25     1     1     2     0     0  3.426154069E+01 -1.439360348E+02  4.971241451E+02  5.335249300E+02  1.250000000E+02  0.00000E+00  9.000E+00
      21     1     1     2   512   501  5.366414082E+01 -3.296818626E+01 -1.541549072E+02  1.665247030E+02  1.907348633E-06  0.00000E+00  9.000E+00
#rwgt            1           1   3.4731165254126159E-002           4       94484           0
</event>
<event>
      5   9999 -3.79277E-02  1.14870E+01 -1.00000E+00  1.89045E-01
       3    -1     0     0   502     0  0.000000000E+00  0.000000000E+00  4.108813488E+01  4.108813488E+01  0.000000000E+00  0.00000E+00  9.000E+00
      21    -1     0     0   501   502  0.000000000E+00  0.000000000E+00 -1.471764547E+03  1.471764547E+03  0.000000000E+00  0.00000E+00  9.000E+00
      25     1     1     2     0     0  8.658600212E+01 -1.195780253E+02 -3.146496194E+02  3.693581228E+02  1.250000000E+02  0.00000E+00  9.000E+00
      25     1     1     2     0     0 -7.905518078E+01  1.109040750E+02 -1.116785588E+03  1.131982546E+03  1.250000000E+02  0.00000E+00  9.000E+00
       3     1     1     2   501     0 -7.530821347E+00  8.673950286E+00  7.587946690E-01  1.151201342E+01  1.349357536E-07  0.00000E+00  9.000E+00
#rwgt            1           1  -2.1939165395123077E-002           4       94574           0
</event>
<event>
      5   9999  3.79277E-02  8.59582E+01 -1.00000E+00  1.26857E-01
      21    -1     0     0   502   511  0.000000000E+00  0.000000000E+00  1.672312248E+02  1.672312248E+02  0.000000000E+00  0.00000E+00  9.000E+00
      21    -1     0     0   501   502  0.000000000E+00  0.000000000E+00 -4.395406786E+02  4.395406786E+02  0.000000000E+00  0.00000E+00  9.000E+00
      25     1     1     2     0     0  9.255284015E+01 -5.030355482E+01 -3.395079417E+02  3.768117810E+02  1.250000000E+02  0.00000E+00  9.000E+00
      25     1     1     2     0     0 -3.718791090E+01 -1.544999212E+01  2.307330884E+01  1.333379937E+02  1.250000000E+02  0.00000E+00  9.000E+00
      21     1     1     2   501   511 -5.536492925E+01  6.575354694E+01  4.412517907E+01  9.662212870E+01  2.654916936E-06  0.00000E+00  9.000E+00
#rwgt            1           1   3.4630351971813925E-002           4       94788           0
</event>
<event>
      5   9999  3.79277E-02  7.99397E+01 -1.00000E+00  1.28365E-01
      21    -1     0     0   512   501  0.000000000E+00  0.000000000E+00  6.561214944E+02  6.561214944E+02  0.000000000E+00  0.00000E+00  9.000E+00
      21    -1     0     0   501   502  0.000000000E+00  0.000000000E+00 -1.726266745E+02  1.726266745E+02  0.000000000E+00  0.00000E+00  9.000E+00
      25     1     1     2     0     0 -2.136585180E+01 -5.086963392E+01  3.636910950E+02  3.885105300E+02  1.250000000E+02  0.00000E+00  9.000E+00
      25     1     1     2     0     0 -5.267173615E+01  8.101570502E+01 -1.128982538E+02  1.941877235E+02  1.250000000E+02  0.00000E+00  9.000E+00
      21     1     1     2   512   502  7.403758795E+01 -3.014607110E+01  2.327019787E+02  2.460499155E+02  3.814697266E-06  0.00000E+00  9.000E+00
#rwgt            1           1   3.8634490085011824E-002           4       94969           0
</event>
<event>
      5   9999  3.79277E-02  4.90188E+01 -1.00000E+00  1.39568E-01
      21    -1     0     0   502   511  0.000000000E+00  0.000000000E+00  3.170410139E+02  3.170410139E+02  0.000000000E+00  0.00000E+00  9.000E+00
      21    -1     0     0   501   502  0.000000000E+00  0.000000000E+00 -1.657935732E+02  1.657935732E+02  0.000000000E+00  0.00000E+00  9.000E+00
      25     1     1     2     0     0 -3.705545930E+01 -2.672154286E+01 -4.741530144E+01  1.412811337E+02  1.250000000E+02  0.00000E+00  9.000E+00
      25     1     1     2     0     0  8.484518988E+01  3.762947397E+01  2.081767763E+01  1.570766032E+02  1.250000000E+02  0.00000E+00  9.000E+00
      21     1     1     2   501   511 -4.778973058E+01 -1.090793111E+01  1.778450645E+02  1.844768502E+02  1.907348633E-06  0.00000E+00  9.000E+00
#rwgt            1           1   6.7671545461963245E-002           4       95065           0
</event>
<event>
      5   9999  3.79277E-02  2.67625E+01 -1.00000E+00  1.56566E-01
      21    -1     0     0   502   501  0.000000000E+00  0.000000000E+00  3.650553933E+02  3.650553933E+02  0.000000000E+00  0.00000E+00  9.000E+00
      21    -1     0     0   512   502  0.000000000E+00  0.000000000E+00 -3.515899282E+02  3.515899282E+02  0.000000000E+00  0.00000E+00  9.000E+00
      25     1     1     2     0     0  3.273064137E+01  6.760850520E+01  2.976908161E+02  3.314921219E+02  1.250000000E+02  0.00000E+00  9.000E+00
      25     1     1     2     0     0 -6.082678885E+00 -7.008136912E+01 -5.382063439E+01  1.531994059E+02  1.250000000E+02  0.00000E+00  9.000E+00
      21     1     1     2   512   501 -2.664796249E+01  2.472863928E+00 -2.304047167E+02  2.319537937E+02  0.000000000E+00  0.00000E+00  9.000E+00
#rwgt            1           1   4.7770244622016469E-002           4       95152           0
</event>
<event>
      5   9999  3.79277E-02  2.58737E+01 -1.00000E+00  1.57641E-01
      21    -1     0     0   502   501  0.000000000E+00  0.000000000E+00  4.455042115E+02  4.455042115E+02  0.000000000E+00  0.00000E+00  9.000E+00
      21    -1     0     0   501   511  0.000000000E+00  0.000000000E+00 -1.751848736E+02  1.751848736E+02  0.000000000E+00  0.00000E+00  9.000E+00
      25     1     1     2     0     0  2.148837430E+02 -6.978840926E+01  7.429829435E+01  2.686832366E+02  1.250000000E+02  0.00000E+00  9.000E+00
      25     1     1     2     0     0 -2.080330848E+02  4.483807884E+01  2.086779276E+02  3.232022512E+02  1.250000000E+02  0.00000E+00  9.000E+00
      21     1     1     2   502   511 -6.850658198E+00  2.495033042E+01 -1.265688408E+01  2.880359735E+01  7.152557373E-07  0.00000E+00  9.000E+00
#rwgt            1           1   3.6366287711426984E-002           4       95311           0
</event>
<event>
      5   9999  3.79277E-02  2.18494E+01 -1.00000E+00  1.63261E-01
      21    -1     0     0   502   512  0.000000000E+00  0.000000000E+00  1.457846617E+02  1.457846617E+02  0.000000000E+00  0.00000E+00  9.000E+00
      21    -1     0     0   501   502  0.000000000E+00  0.000000000E+00 -5.223223940E+02  5.223223940E+02  0.000000000E+00  0.00000E+00  9.000E+00
      25     1     1     2     0     0 -9.072278544E+01  1.258888259E+02 -4.074102250E+02  4.535269691E+02  1.250000000E+02  0.00000E+00  9.000E+00
      25     1     1     2     0     0  7.514003303E+01 -1.105730158E+02  4.511139727E+01  1.885005426E+02  1.250000000E+02  0.00000E+00  9.000E+00
      21     1     1     2   501   512  1.558275241E+01 -1.531581007E+01 -1.423890464E+01  2.607954402E+01  1.685873940E-07  0.00000E+00  9.000E+00
#rwgt            1           1   3.7723383927326298E-002           4       95456           0
</event>
<event>
      5   9999  3.79277E-02  1.22261E+01 -1.00000E+00  1.86180E-01
      21    -1     0     0   511   501  0.000000000E+00  0.000000000E+00  6.239970219E+01  6.239970219E+01  0.000000000E+00  0.00000E+00  9.000E+00
      21    -1     0     0   501   502  0.000000000E+00  0.000000000E+00 -1.021029618E+03  1.021029618E+03  0.000000000E+00  0.00000E+00  9.000E+00
      25     1     1     2     0     0  7.411349481E+00 -1.015074068E+02 -2.587715898E+02  3.048711489E+02  1.250000000E+02  0.00000E+00  9.000E+00
      25     1     1     2     0     0 -1.054822995E+01  8.969057079E+01 -7.299584943E+02  7.460697467E+02  1.250000000E+02  0.00000E+00  9.000E+00
      21     1     1     2   511   502  3.136880469E+00  1.181683601E+01  3.010016801E+01  3.248842481E+01  5.840038640E-07  0.00000E+00  9.000E+00
#rwgt            1           1   4.2880612524988593E-002           4       95624           0
</event>
<event>
      5   9999  3.79277E-02  2.63763E+01 -1.00000E+00  1.57027E-01
      21    -1     0     0   502   501  0.000000000E+00  0.000000000E+00  1.712612668E+02  1.712612668E+02  0.000000000E+00  0.00000E+00  9.000E+00
      21    -1     0     0   501   512  0.000000000E+00  0.000000000E+00 -5.094933158E+02  5.094933158E+02  0.000000000E+00  0.00000E+00  9.000E+00
      25     1     1     2     0     0 -1.111708811E+02  1.681660397E+02 -3.577916027E+02  4.292768485E+02  1.250000000E+02  0.00000E+00  9.000E+00
      25     1     1     2     0     0  9.792481430E+01 -1.453570505E+02  3.891305394E+01  2.187628103E+02  1.250000000E+02  0.00000E+00  9.000E+00
      21     1     1     2   502   512  1.324606681E+01 -2.280898911E+01 -1.935350019E+01  3.271492381E+01  3.371747881E-07  0.00000E+00  9.000E+00
#rwgt            1           1   2.8040802369513604E-002           4       96083           0
</event>
<event>
      5   9999  3.79277E-02  8.09080E+01 -1.00000E+00  1.28113E-01
      21    -1     0     0   502   501  0.000000000E+00  0.000000000E+00  2.970722719E+02  2.970722719E+02  0.000000000E+00  0.00000E+00  9.000E+00
      21    -1     0     0   501   511  0.000000000E+00  0.000000000E+00 -3.924328945E+02  3.924328945E+02  0.000000000E+00  0.00000E+00  9.000E+00
      25     1     1     2     0     0  1.750896790E+02  3.020202698E+01  1.660043472E+02  2.734062936E+02  1.250000000E+02  0.00000E+00  9.000E+00
      25     1     1     2     0     0 -1.192342341E+02 -8.873634508E+01 -6.678550612E+01  2.053685598E+02  1.250000000E+02  0.00000E+00  9.000E+00
      21     1     1     2   502   511 -5.585544492E+01  5.853431810E+01 -1.945794637E+02  2.107303130E+02  2.697398305E-06  0.00000E+00  9.000E+00
#rwgt            1           1   3.3790283834949815E-002           4       96311           0
</event>
<event>
      5   9999  3.79277E-02  3.69598E+01 -1.00000E+00  1.47002E-01
      21    -1     0     0   512   501  0.000000000E+00  0.000000000E+00  1.514584383E+02  1.514584383E+02  0.000000000E+00  0.00000E+00  9.000E+00
      21    -1     0     0   501   502  0.000000000E+00  0.000000000E+00 -2.491109487E+02  2.491109487E+02  0.000000000E+00  0.00000E+00  9.000E+00
      25     1     1     2     0     0 -6.552596871E+01  6.930176014E+01 -2.814674707E+00  1.572555529E+02  1.250000000E+02  0.00000E+00  9.000E+00
      25     1     1     2     0     0  9.983446228E+01 -8.304788717E+01 -9.978550623E+01  2.060243157E+02  1.250000000E+02  0.00000E+00  9.000E+00
      21     1     1     2   512   502 -3.430849357E+01  1.374612702E+01  4.947670517E+00  3.728951840E+01  8.408269870E-07  0.00000E+00  9.000E+00
#rwgt            1           1   3.6093585001090313E-002           4       96422           0
</event>
<event>
      5   9999  3.79277E-02  1.25388E+02 -1.00000E+00  1.19564E-01
      21    -1     0     0   511   501  0.000000000E+00  0.000000000E+00  1.642252827E+02  1.642252827E+02  0.000000000E+00  0.00000E+00  9.000E+00
      21    -1     0     0   501   502  0.000000000E+00  0.000000000E+00 -1.124696229E+03  1.124696229E+03  0.000000000E+00  0.00000E+00  9.000E+00
      25     1     1     2     0     0  3.342237047E+01  8.497860594E+01  6.760069344E+01  1.689179448E+02  1.250000000E+02  0.00000E+00  9.000E+00
      25     1     1     2     0     0 -4.885740412E+01 -2.094131092E+02 -9.244897781E+02  9.573647404E+02  1.250000000E+02  0.00000E+00  9.000E+00
      21     1     1     2   511   502  1.543503365E+01  1.244345033E+02 -1.035818617E+02  1.626388267E+02  1.348699152E-06  0.00000E+00  9.000E+00
#rwgt            1           1   4.6272068466042530E-002           4       96557           0
</event>
<event>
      5   9999  3.79277E-02  2.61362E+01 -1.00000E+00  1.57319E-01
      21    -1     0     0   502   501  0.000000000E+00  0.000000000E+00  8.586575318E+01  8.586575318E+01  0.000000000E+00  0.00000E+00  9.000E+00
      21    -1     0     0   512   502  0.000000000E+00  0.000000000E+00 -5.961264686E+02  5.961264686E+02  0.000000000E+00  0.00000E+00  9.000E+00
      25     1     1     2     0     0 -1.315478934E+01 -9.038513607E+01 -1.739305045E+01  1.557884447E+02  1.250000000E+02  0.00000E+00  9.000E+00
      25     1     1     2     0     0  3.456235124E+01  7.539119891E+01 -3.473687557E+02  3.783760582E+02  1.250000000E+02  0.00000E+00  9.000E+00
      21     1     1     2   512   501 -2.140756190E+01  1.499393715E+01 -1.454989093E+02  1.478277189E+02  2.697398305E-06  0.00000E+00  9.000E+00
#rwgt            1           1   4.2330175203266894E-002           4       96617           0
</event>
<event>
      5   9999  3.79277E-02  5.32154E+01 -1.00000E+00  1.37549E-01
      21    -1     0     0   502   501  0.000000000E+00  0.000000000E+00  4.328742062E+02  4.328742062E+02  0.000000000E+00  0.00000E+00  9.000E+00
      21    -1     0     0   501   511  0.000000000E+00  0.000000000E+00 -8.744677349E+02  8.744677349E+02  0.000000000E+00  0.00000E+00  9.000E+00
      25     1     1     2     0     0 -1.569538464E+02 -2.142944076E+02  3.272961961E+01  2.953859019E+02  1.250000000E+02  0.00000E+00  9.000E+00
      25     1     1     2     0     0  1.442642232E+02  2.659747176E+02  1.676281615E+02  3.678028235E+02  1.250000000E+02  0.00000E+00  9.000E+00
      21     1     1     2   502   511  1.268962326E+01 -5.168031001E+01 -6.419513099E+02  6.441532157E+02  7.629394531E-06  0.00000E+00  9.000E+00
#rwgt            1           1   4.0119502440636751E-002           4       96806           0
</event>
<event>
      5   9999  3.79277E-02  6.51020E+01 -1.00000E+00  1.32836E-01
       2    -1     0     0   502     0  0.000000000E+00  0.000000000E+00  1.214373153E+03  1.214373153E+03  0.000000000E+00  0.00000E+00  9.000E+00
      21    -1     0     0   501   502  0.000000000E+00  0.000000000E+00 -1.827444293E+02  1.827444293E+02  0.000000000E+00  0.00000E+00  9.000E+00
      25     1     1     2     0     0 -4.406876264E+01 -1.480144328E+01 -1.357071368E+02  1.902697179E+02  1.250000000E+02  0.00000E+00  9.000E+00
      25     1     1     2     0     0 -2.102403345E+01  1.589598043E+01  1.999607539E+02  2.372846293E+02  1.250000000E+02  0.00000E+00  9.000E+00
       2     1     1     2   501     0  6.509279609E+01 -1.094537157E+00  9.673751070E+02  9.695632356E+02  0.000000000E+00  0.00000E+00  9.000E+00
#rwgt            1           1   4.3988527345512701E-002           4       96896           0
</event>
<event>
      5   9999  3.79277E-02  1.33086E+01 -1.00000E+00  1.82422E-01
      21    -1     0     0   502   501  0.000000000E+00  0.000000000E+00  1.922015195E+03  1.922015195E+03  0.000000000E+00  0.00000E+00  9.000E+00
      21    -1     0     0   501   511  0.000000000E+00  0.000000000E+00 -6.468615209E+01  6.468615209E+01  0.000000000E+00  0.00000E+00  9.000E+00
      25     1     1     2     0     0  1.794089629E+02 -1.646447696E+02  1.495006490E+03  1.519856862E+03  1.250000000E+02  0.00000E+00  9.000E+00
      25     1     1     2     0     0 -1.924322648E+02  1.619036572E+02  3.416530162E+02  4.422609572E+02  1.250000000E+02  0.00000E+00  9.000E+00
      21     1     1     2   502   511  1.302330197E+01  2.741112311E+00  2.066953662E+01  2.458352772E+01  4.768371582E-07  0.00000E+00  9.000E+00
#rwgt            1           1   4.3855322811926174E-002           4       97001           0
</event>
<event>
      5   9999  3.79277E-02  7.88980E+01 -1.00000E+00  1.28642E-01
      -1    -1     0     0     0   501  0.000000000E+00  0.000000000E+00  7.467412186E+01  7.467412186E+01  0.000000000E+00  0.00000E+00  9.000E+00
      21    -1     0     0   501   502  0.000000000E+00  0.000000000E+00 -1.442741528E+03  1.442741528E+03  0.000000000E+00  0.00000E+00  9.000E+00
      25     1     1     2     0     0  6.220284730E+00  1.801800098E+02 -1.166054942E+03  1.186512813E+03  1.250000000E+02  0.00000E+00  9.000E+00
      25     1     1     2     0     0  2.326276004E+01 -1.069977575E+02 -1.877459341E+02  2.507253714E+02  1.250000000E+02  0.00000E+00  9.000E+00
      -1     1     1     2     0   502 -2.948304477E+01 -7.318225226E+01 -1.426652934E+01  8.017746463E+01  2.280607995E-06  0.00000E+00  9.000E+00
#rwgt            1           1   4.7525681010884870E-002           4       97362           0
</event>
<event>
      5   9999  3.79277E-02  5.59193E+01 -1.00000E+00  1.36359E-01
      21    -1     0     0   502   501  0.000000000E+00  0.000000000E+00  7.761749971E+01  7.761749971E+01  0.000000000E+00  0.00000E+00  9.000E+00
      21    -1     0     0   511   502  0.000000000E+00  0.000000000E+00 -8.697715172E+02  8.697715172E+02  0.000000000E+00  0.00000E+00  9.000E+00
      25     1     1     2     0     0 -1.375042765E+02 -9.870145106E+01 -2.709713871E+02  3.430741831E+02  1.250000000E+02  0.00000E+00  9.000E+00
      25     1     1     2     0     0  1.323090241E+02  4.302397821E+01 -1.834496763E+02  2.619838245E+02  1.250000000E+02  0.00000E+00  9.000E+00
      21     1     1     2   511   501  5.195252389E+00  5.567747285E+01 -3.377329541E+02  3.423310093E+02  0.000000000E+00  0.00000E+00  9.000E+00
#rwgt            1           1   4.6699751275080054E-002           4       97534           0
</event>
<event>
      5   9999 -3.79277E-02  7.69019E+01 -1.00000E+00  1.29185E-01
      21    -1     0     0   512   501  0.000000000E+00  0.000000000E+00  4.668023974E+02  4.668023974E+02  0.000000000E+00  0.00000E+00  9.000E+00
      21    -1     0     0   501   502  0.000000000E+00  0.000000000E+00 -1.367013738E+02  1.367013738E+02  0.000000000E+00  0.00000E+00  9.000E+00
      25     1     1     2     0     0  8.541546343E+01  1.105609764E+02  2.102038288E+02  2.816561389E+02  1.250000000E+02  0.00000E+00  9.000E+00
      25     1     1     2     0     0 -1.570967002E+02 -8.270943356E+01  6.268165204E+01  2.259960467E+02  1.250000000E+02  0.00000E+00  9.000E+00
      21     1     1     2   512   502  7.168123680E+01 -2.785154285E+01  5.721554271E+01  9.585158567E+01  1.348699152E-06  0.00000E+00  9.000E+00
#rwgt            1           1  -3.3447856971448420E-002           4       97650           0
</event>
<event>
      5   9999  3.79277E-02  3.26378E+01 -1.00000E+00  1.50540E-01
      21    -1     0     0   502   501  0.000000000E+00  0.000000000E+00  3.621664828E+02  3.621664828E+02  0.000000000E+00  0.00000E+00  9.000E+00
      21    -1     0     0   511   502  0.000000000E+00  0.000000000E+00 -1.285909281E+02  1.285909281E+02  0.000000000E+00  0.00000E+00  9.000E+00
      25     1     1     2     0     0 -1.417996412E+02  8.702122402E+00  1.330314581E+02  2.313119842E+02  1.250000000E+02  0.00000E+00  9.000E+00
      25     1     1     2     0     0  1.316558329E+02 -3.972358798E+01  1.202206757E+02  2.213351139E+02  1.250000000E+02  0.00000E+00  9.000E+00
      21     1     1     2   511   501  1.014380828E+01  3.102146557E+01 -1.967657920E+01  3.811031280E+01  3.371747881E-07  0.00000E+00  9.000E+00
#rwgt            1           1   3.1430395166989249E-002           4       97727           0
</event>
<event>
      5   9999  3.79277E-02  8.44843E+01 -1.00000E+00  1.27213E-01
      21    -1     0     0   502   501  0.000000000E+00  0.000000000E+00  3.469999399E+02  3.469999399E+02  0.000000000E+00  0.00000E+00  9.000E+00
      21    -1     0     0   512   502  0.000000000E+00  0.000000000E+00 -4.175993931E+02  4.175993931E+02  0.000000000E+00  0.00000E+00  9.000E+00
      25     1     1     2     0     0 -2.227727721E+02  1.479837372E+02  3.956332679E+00  2.952415063E+02  1.250000000E+02  0.00000E+00  9.000E+00
      25     1     1     2     0     0  1.612848565E+02 -9.004559828E+01  1.228499497E+02  2.546333145E+02  1.250000000E+02  0.00000E+00  9.000E+00
      21     1     1     2   512   501  6.148791560E+01 -5.793813896E+01 -1.974057355E+02  2.147245122E+02  2.697398305E-06  0.00000E+00  9.000E+00
#rwgt            1           1   4.6713117670754055E-002           4       97869           0
</event>
<event>
      5   9999  3.79277E-02  1.04535E+02 -1.00000E+00  1.22968E-01
      21    -1     0     0   502   501  0.000000000E+00  0.000000000E+00  8.112735843E+02  8.112735843E+02  0.000000000E+00  0.00000E+00  9.000E+00
      21    -1     0     0   511   502  0.000000000E+00  0.000000000E+00 -8.407436180E+01  8.407436180E+01  0.000000000E+00  0.00000E+00  9.000E+00
      25     1     1     2     0     0  7.255764852E+01  1.203600157E+01  5.419287017E+02  5.610001741E+02  1.250000000E+02  0.00000E+00  9.000E+00
      25     1     1     2     0     0 -3.035646948E+01 -1.076741120E+02  1.469430687E+02  2.230078364E+02  1.250000000E+02  0.00000E+00  9.000E+00
      21     1     1     2   511   501 -4.220117904E+01  9.563811044E+01  3.832745215E+01  1.113399356E+02  1.651812370E-06  0.00000E+00  9.000E+00
#rwgt            1           1   6.7905918446280536E-002           4       97964           0
</event>
<event>
      5   9999  3.79277E-02  1.23094E+01 -1.00000E+00  1.85873E-01
      21    -1     0     0   502   512  0.000000000E+00  0.000000000E+00  1.965099609E+01  1.965099609E+01  0.000000000E+00  0.00000E+00  9.000E+00
      21    -1     0     0   501   502  0.000000000E+00  0.000000000E+00 -2.791743857E+03  2.791743857E+03  0.000000000E+00  0.00000E+00  9.000E+00
      25     1     1     2     0     0  4.451888253E+01  1.024370506E+02 -5.583357533E+02  5.829571971E+02  1.250000000E+02  0.00000E+00  9.000E+00
      25     1     1     2     0     0 -5.680901006E+01 -1.017488258E+02 -2.208417823E+03  2.215020173E+03  1.250000000E+02  0.00000E+00  9.000E+00
      21     1     1     2   501   512  1.229012753E+01 -6.882247931E-01 -5.339285018E+00  1.341748310E+01  2.457562462E-07  0.00000E+00  9.000E+00
#rwgt            1           1   4.2574954525057065E-002           4       98128           0
</event>
<event>
      5   9999  3.79277E-02  2.26065E+01 -1.00000E+00  1.62096E-01
      21    -1     0     0   502   511  0.000000000E+00  0.000000000E+00  2.901624586E+02  2.901624586E+02  0.000000000E+00  0.00000E+00  9.000E+00
      21    -1     0     0   501   502  0.000000000E+00  0.000000000E+00 -2.580608505E+02  2.580608505E+02  0.000000000E+00  0.00000E+00  9.000E+00
      25     1     1     2     0     0  1.509829543E+02  1.290434674E+02  1.269690657E+02  2.668224365E+02  1.250000000E+02  0.00000E+00  9.000E+00
      25     1     1     2     0     0 -1.346375270E+02 -1.446601826E+02 -1.053633199E+02  2.564766292E+02  1.250000000E+02  0.00000E+00  9.000E+00
      21     1     1     2   501   511 -1.634542728E+01  1.561671518E+01  1.049586238E+01  2.492424348E+01  3.953724850E-07  0.00000E+00  9.000E+00
#rwgt            1           1   3.8776052746394431E-002           4       98409           0
</event>
<event>
      5   9999  3.79277E-02  2.90025E+02 -1.00000E+00  1.06071E-01
      21    -1     0     0   502   501  0.000000000E+00  0.000000000E+00  3.551786646E+02  3.551786646E+02  0.000000000E+00  0.00000E+00  9.000E+00
      21    -1     0     0   512   502  0.000000000E+00  0.000000000E+00 -7.856191453E+02  7.856191453E+02  0.000000000E+00  0.00000E+00  9.000E+00
      25     1     1     2     0     0 -1.671526745E+02  6.805723803E+01 -1.100795241E+02  2.455897104E+02  1.250000000E+02  0.00000E+00  9.000E+00
      25     1     1     2     0     0  2.893498782E+01  1.869140872E+02  1.981465407E+02  3.010999188E+02  1.250000000E+02  0.00000E+00  9.000E+00
      21     1     1     2   512   501  1.382176867E+02 -2.549713253E+02 -5.185074973E+02  5.941081807E+02  0.000000000E+00  0.00000E+00  9.000E+00
#rwgt            2          11   1.3588593589541631E-003           4       98579           0
</event>
<event>
      5   9999  3.79277E-02  1.28851E+02 -1.00000E+00  1.19071E-01
      21    -1     0     0   511   501  0.000000000E+00  0.000000000E+00  3.670351898E+02  3.670351898E+02  0.000000000E+00  0.00000E+00  9.000E+00
      21    -1     0     0   501   502  0.000000000E+00  0.000000000E+00 -2.232502372E+02  2.232502372E+02  0.000000000E+00  0.00000E+00  9.000E+00
      25     1     1     2     0     0 -8.195340498E+00 -8.586409272E+01  6.513307713E+01  1.652486725E+02  1.250000000E+02  0.00000E+00  9.000E+00
      25     1     1     2     0     0  1.021131703E+02  1.740795704E+02 -5.038587932E+01  2.426819590E+02  1.250000000E+02  0.00000E+00  9.000E+00
      21     1     1     2   511   502 -9.391782981E+01 -8.821547772E+01  1.290377548E+02  1.823547955E+02  1.907348633E-06  0.00000E+00  9.000E+00
#rwgt            1           1   4.4378307293435545E-002           4       98599           0
</event>
<event>
      5   9999  3.79277E-02  4.09041E+01 -1.00000E+00  1.44241E-01
       2    -1     0     0   502     0  0.000000000E+00  0.000000000E+00  9.253386622E+02  9.253386622E+02  0.000000000E+00  0.00000E+00  9.000E+00
      21    -1     0     0   501   502  0.000000000E+00  0.000000000E+00 -6.603931300E+01  6.603931300E+01  0.000000000E+00  0.00000E+00  9.000E+00
      25     1     1     2     0     0  7.794741865E+01 -8.849578288E+01  1.293074048E+02  2.150644289E+02  1.250000000E+02  0.00000E+00  9.000E+00
      25     1     1     2     0     0 -4.683088241E+01  1.150459250E+02  3.288351376E+02  3.730767268E+02  1.250000000E+02  0.00000E+00  9.000E+00
       2     1     1     2   501     0 -3.111653623E+01 -2.655014209E+01  4.011568068E+02  4.032368194E+02  0.000000000E+00  0.00000E+00  9.000E+00
#rwgt            1           1   2.6339712534886657E-002           4       98671           0
</event>
<event>
      5   9999  3.79277E-02  4.35888E+01 -1.00000E+00  1.42563E-01
      21    -1     0     0   511   501  0.000000000E+00  0.000000000E+00  4.459149424E+02  4.459149424E+02  0.000000000E+00  0.00000E+00  9.000E+00
      21    -1     0     0   501   502  0.000000000E+00  0.000000000E+00 -2.339776057E+02  2.339776057E+02  0.000000000E+00  0.00000E+00  9.000E+00
      25     1     1     2     0     0  1.050855225E+01 -1.906779510E+02  1.162831908E+02  2.561548187E+02  1.250000000E+02  0.00000E+00  9.000E+00
      25     1     1     2     0     0 -4.784878369E+01  1.681904636E+02 -9.000454777E+01  2.330308065E+02  1.250000000E+02  0.00000E+00  9.000E+00
      21     1     1     2   511   502  3.734023144E+01  2.248748736E+01  1.856586936E+02  1.907069230E+02  0.000000000E+00  0.00000E+00  9.000E+00
#rwgt            1           1   4.1516691570088790E-002           4       98814           0
</event>
<event>
      5   9999 -3.79277E-02  1.30139E+02 -1.00000E+00  1.18892E-01
      21    -1     0     0   502   501  0.000000000E+00  0.000000000E+00  3.920587094E+02  3.920587094E+02  0.000000000E+00  0.00000E+00  9.000E+00
      21    -1     0     0   501   512  0.000000000E+00  0.000000000E+00 -4.264655183E+02  4.264655183E+02  0.000000000E+00  0.00000E+00  9.000E+00
      25     1     1     2     0     0  4.285453444E+01  1.169455916E+02  1.910564633E+02  2.600775936E+02  1.250000000E+02  0.00000E+00  9.000E+00
      25     1     1     2     0     0 -1.640658810E+02 -1.643153082E+02  3.622517730E+01  2.661848931E+02  1.250000000E+02  0.00000E+00  9.000E+00
      21     1     1     2   502   512  1.212113466E+02  4.736971658E+01 -2.616884495E+02  2.922617409E+02  0.000000000E+00  0.00000E+00  9.000E+00
#rwgt            1           1 -0.27578369875825354                4       98965           0
</event>
<event>
      5   9999  3.79277E-02  8.59922E+00 -1.00000E+00  2.03652E-01
      21    -1     0     0   511   501  0.000000000E+00  0.000000000E+00  4.589896117E+02  4.589896117E+02  0.000000000E+00  0.00000E+00  9.000E+00
      21    -1     0     0   501   502  0.000000000E+00  0.000000000E+00 -3.483934130E+02  3.483934130E+02  0.000000000E+00  0.00000E+00  9.000E+00
      25     1     1     2     0     0 -1.303461174E+02 -2.188035015E+02 -2.141610693E+02  3.554645498E+02  1.250000000E+02  0.00000E+00  9.000E+00
      25     1     1     2     0     0  1.243900536E+02  2.250060676E+02  2.594793966E+02  3.860766415E+02  1.250000000E+02  0.00000E+00  9.000E+00
      21     1     1     2   511   502  5.956063752E+00 -6.202566102E+00  6.527787142E+01  6.584183335E+01  0.000000000E+00  0.00000E+00  9.000E+00
#rwgt            1           1  0.13561055213615100                4       99202           0
</event>
<event>
      5   9999  3.79277E-02  3.68558E+01 -1.00000E+00  1.47080E-01
      21    -1     0     0   502   501  0.000000000E+00  0.000000000E+00  1.809474665E+03  1.809474665E+03  0.000000000E+00  0.00000E+00  9.000E+00
      21    -1     0     0   512   502  0.000000000E+00  0.000000000E+00 -1.574187609E+02  1.574187609E+02  0.000000000E+00  0.00000E+00  9.000E+00
      25     1     1     2     0     0  9.494065012E+01 -4.077624469E+01  1.371202748E+03  1.380760082E+03  1.250000000E+02  0.00000E+00  9.000E+00
      25     1     1     2     0     0 -5.830365234E+01  4.478646736E+01  4.188789577E+02  4.432716151E+02  1.250000000E+02  0.00000E+00  9.000E+00
      21     1     1     2   512   501 -3.663699778E+01 -4.010222670E+00 -1.380258017E+02  1.428617283E+02  1.907348633E-06  0.00000E+00  9.000E+00
#rwgt            1           1  0.11490746566774132                4       99508           0
</event>
<event>
      5   9999  3.79277E-02  6.72546E+01 -1.00000E+00  1.32107E-01
      21    -1     0     0   502   501  0.000000000E+00  0.000000000E+00  1.516331607E+03  1.516331607E+03  0.000000000E+00  0.00000E+00  9.000E+00
      21    -1     0     0   501   511  0.000000000E+00  0.000000000E+00 -3.654399255E+01  3.654399255E+01  0.000000000E+00  0.00000E+00  9.000E+00
      25     1     1     2     0     0  2.410181743E+01 -1.466097231E+02  7.771965245E+02  8.010834827E+02  1.250000000E+02  0.00000E+00  9.000E+00
      25     1     1     2     0     0 -8.883923084E+01  1.283820263E+02  5.113897851E+02  5.491073355E+02  1.250000000E+02  0.00000E+00  9.000E+00
      21     1     1     2   502   511  6.473741341E+01  1.822769679E+01  1.912013048E+02  2.026847813E+02  0.000000000E+00  0.00000E+00  9.000E+00
#rwgt            1           1   2.9936541111091730E-002           4       99615           0
</event>
<event>
      5   9999  3.79277E-02  7.86690E+01 -1.00000E+00  1.28703E-01
      21    -1     0     0   512   501  0.000000000E+00  0.000000000E+00  4.872713332E+02  4.872713332E+02  0.000000000E+00  0.00000E+00  9.000E+00
      21    -1     0     0   501   502  0.000000000E+00  0.000000000E+00 -1.347730584E+02  1.347730584E+02  0.000000000E+00  0.00000E+00  9.000E+00
      25     1     1     2     0     0  1.830610576E+01 -1.605710869E+02  2.803072330E+02  3.468650059E+02  1.250000000E+02  0.00000E+00  9.000E+00
      25     1     1     2     0     0  1.191378321E+01  8.793802240E+01 -1.931090098E+01  1.545087211E+02  1.250000000E+02  0.00000E+00  9.000E+00
      21     1     1     2   512   502 -3.021988898E+01  7.263306451E+01  9.150194276E+01  1.206706645E+02  0.000000000E+00  0.00000E+00  9.000E+00
#rwgt            1           1   4.6807876053545999E-002           4       99700           0
</event>
<event>
      5   9999  3.79277E-02  6.93334E+01 -1.00000E+00  1.31431E-01
      21    -1     0     0   502   501  0.000000000E+00  0.000000000E+00  8.363174012E+02  8.363174012E+02  0.000000000E+00  0.00000E+00  9.000E+00
      21    -1     0     0   501   511  0.000000000E+00  0.000000000E+00 -3.848557226E+02  3.848557226E+02  0.000000000E+00  0.00000E+00  9.000E+00
      25     1     1     2     0     0  2.037667687E+02 -2.272280712E+02  3.068837874E+02  4.505065497E+02  1.250000000E+02  0.00000E+00  9.000E+00
      25     1     1     2     0     0 -1.502241829E+02  1.831790941E+02  4.136521311E+02  4.928031770E+02  1.250000000E+02  0.00000E+00  9.000E+00
      21     1     1     2   502   511 -5.354258582E+01  4.404897705E+01 -2.690742399E+02  2.778633971E+02  3.814697266E-06  0.00000E+00  9.000E+00
#rwgt            1           1   2.4033401304012946E-002           4       99742           0
</event>
<event>
      5   9999 -3.79277E-02  1.29794E+01 -1.00000E+00  1.83515E-01
      21    -1     0     0   502   501  0.000000000E+00  0.000000000E+00  4.025478584E+02  4.025478584E+02  0.000000000E+00  0.00000E+00  9.000E+00
      21    -1     0     0   512   502  0.000000000E+00  0.000000000E+00 -4.158376044E+02  4.158376044E+02  0.000000000E+00  0.00000E+00  9.000E+00
      25     1     1     2     0     0  7.049516960E+01  6.842487326E+01  2.203211308E+02  2.716945581E+02  1.250000000E+02  0.00000E+00  9.000E+00
      25     1     1     2     0     0 -8.345780732E+01 -6.776550399E+01  1.129736098E+02  1.998634675E+02  1.250000000E+02  0.00000E+00  9.000E+00
      21     1     1     2   512   501  1.296263772E+01 -6.593692662E-01 -3.465844867E+02  3.468274372E+02  7.629394531E-06  0.00000E+00  9.000E+00
#rwgt            1           1  -3.1719077452549878E-002           4       99898           0
</event>
<event>
      5   9999  3.79277E-02  4.91307E+02 -1.00000E+00  9.90689E-02
      21    -1     0     0   502   501  0.000000000E+00  0.000000000E+00  1.131241756E+03  1.131241756E+03  0.000000000E+00  0.00000E+00  9.000E+00
      21    -1     0     0   501   511  0.000000000E+00  0.000000000E+00 -9.760689935E+02  9.760689935E+02  0.000000000E+00  0.00000E+00  9.000E+00
      25     1     1     2     0     0 -2.467004573E+01  1.246283827E+02  9.188153913E+01  2.005194808E+02  1.250000000E+02  0.00000E+00  9.000E+00
      25     1     1     2     0     0 -3.744790647E+02 -4.110939370E+02  8.235815238E+02  1.001570927E+03  1.250000000E+02  0.00000E+00  9.000E+00
      21     1     1     2   502   511  3.991491105E+02  2.864655543E+02 -7.602903005E+02  9.052203418E+02  0.000000000E+00  0.00000E+00  9.000E+00
#rwgt            2          11   6.8355779709360184E-004           4      100072           0
</event>
<event>
      5   9999  3.79277E-02  6.59609E+01 -1.00000E+00  1.32541E-01
      21    -1     0     0   502   501  0.000000000E+00  0.000000000E+00  4.932718426E+02  4.932718426E+02  0.000000000E+00  0.00000E+00  9.000E+00
      21    -1     0     0   512   502  0.000000000E+00  0.000000000E+00 -5.997808022E+02  5.997808022E+02  0.000000000E+00  0.00000E+00  9.000E+00
      25     1     1     2     0     0  4.514460394E+01  2.830838942E+01 -6.259944441E+01  1.496097945E+02  1.250000000E+02  0.00000E+00  9.000E+00
      25     1     1     2     0     0 -1.110739643E+02 -3.034784971E+01  4.313525441E+02  4.636253173E+02  1.250000000E+02  0.00000E+00  9.000E+00
      21     1     1     2   512   501  6.592936036E+01  2.039460288E+00 -4.752620593E+02  4.798175330E+02  5.394796609E-06  0.00000E+00  9.000E+00
#rwgt            1           1   4.7769786046793022E-002           4      100137           0
</event>
<event>
      5   9999  3.79277E-02  1.37905E+01 -1.00000E+00  1.80894E-01
      21    -1     0     0   502   501  0.000000000E+00  0.000000000E+00  2.780276753E+02  2.780276753E+02  0.000000000E+00  0.00000E+00  9.000E+00
      21    -1     0     0   511   502  0.000000000E+00  0.000000000E+00 -6.346524546E+02  6.346524546E+02  0.000000000E+00  0.00000E+00  9.000E+00
      25     1     1     2     0     0 -6.316690418E+01  9.962393090E+01 -1.116223451E+02  2.049378767E+02  1.250000000E+02  0.00000E+00  9.000E+00
      25     1     1     2     0     0  4.999753208E+01 -1.037159940E+02  2.000413487E+02  2.624848602E+02  1.250000000E+02  0.00000E+00  9.000E+00
      21     1     1     2   511   501  1.316937209E+01  4.092063114E+00 -4.450437829E+02  4.452573930E+02  0.000000000E+00  0.00000E+00  9.000E+00
#rwgt            1           1   4.8012187561652243E-002           4      100223           0
</event>
<event>
      5   9999  3.79277E-02  5.25744E+01 -1.00000E+00  1.37843E-01
      21    -1     0     0   502   512  0.000000000E+00  0.000000000E+00  3.636764428E+02  3.636764428E+02  0.000000000E+00  0.00000E+00  9.000E+00
      21    -1     0     0   501   502  0.000000000E+00  0.000000000E+00 -1.358551594E+02  1.358551594E+02  0.000000000E+00  0.00000E+00  9.000E+00
      25     1     1     2     0     0  9.745443783E+01  2.179846340E+01 -5.506582963E-01  1.599932614E+02  1.250000000E+02  0.00000E+00  9.000E+00
      25     1     1     2     0     0 -1.494316290E+02 -2.970049916E+01  1.637004095E+02  2.561928092E+02  1.250000000E+02  0.00000E+00  9.000E+00
      21     1     1     2   501   512  5.197719117E+01  7.902035768E+00  6.467153213E+01  8.334553161E+01  1.348699152E-06  0.00000E+00  9.000E+00
#rwgt            1           1   4.1060283701110534E-002           4      100567           0
</event>
<event>
      5   9999  3.79277E-02  8.33284E+01 -1.00000E+00  1.27498E-01
      21    -1     0     0   502   501  0.000000000E+00  0.000000000E+00  5.086580208E+02  5.086580208E+02  0.000000000E+00  0.00000E+00  9.000E+00
      21    -1     0     0   511   502  0.000000000E+00  0.000000000E+00 -9.581967372E+01  9.581967372E+01  0.000000000E+00  0.00000E+00  9.000E+00
      25     1     1     2     0     0  2.081236207E+00  9.829106481E+01  3.076596506E+02  3.463306593E+02  1.250000000E+02  0.00000E+00  9.000E+00
      25     1     1     2     0     0 -6.496146462E+01 -4.361292017E+01  9.191836490E+01  1.737701485E+02  1.250000000E+02  0.00000E+00  9.000E+00
      21     1     1     2   511   501  6.288022842E+01 -5.467814464E+01  1.326033161E+01  8.437688677E+01  3.769728732E-07  0.00000E+00  9.000E+00
#rwgt            1           1   3.3966142607582593E-002           4      100639           0
</event>
<event>
      5   9999  3.79277E-02  1.01038E+02 -1.00000E+00  1.23627E-01
      21    -1     0     0   502   501  0.000000000E+00  0.000000000E+00  1.014349925E+03  1.014349925E+03  0.000000000E+00  0.00000E+00  9.000E+00
      -1    -1     0     0     0   502  0.000000000E+00  0.000000000E+00 -3.598535333E+02  3.598535333E+02  0.000000000E+00  0.00000E+00  9.000E+00
      25     1     1     2     0     0  3.695240937E+01  1.192579192E+02  6.545783352E+02  6.780012749E+02  1.250000000E+02  0.00000E+00  9.000E+00
      25     1     1     2     0     0 -1.074186081E+02 -4.684866447E+01  3.186735048E+02  3.618167456E+02  1.250000000E+02  0.00000E+00  9.000E+00
      -1     1     1     2     0   501  7.046619878E+01 -7.240925471E+01 -3.187554482E+02  3.343854379E+02  5.394796609E-06  0.00000E+00  9.000E+00
#rwgt            1           1   3.8860495460472461E-002           4      100734           0
</event>
<event>
      5   9999  3.79277E-02  1.60864E+01 -1.00000E+00  1.74570E-01
      21    -1     0     0   502   501  0.000000000E+00  0.000000000E+00  2.051785977E+02  2.051785977E+02  0.000000000E+00  0.00000E+00  9.000E+00
      21    -1     0     0   511   502  0.000000000E+00  0.000000000E+00 -3.822065669E+02  3.822065669E+02  0.000000000E+00  0.00000E+00  9.000E+00
      25     1     1     2     0     0  4.944926362E+01  4.361744702E+01  1.597061981E+02  2.132575464E+02  1.250000000E+02  0.00000E+00  9.000E+00
      25     1     1     2     0     0 -4.784981232E+01 -2.761072623E+01 -3.290469065E+02  3.562987839E+02  1.250000000E+02  0.00000E+00  9.000E+00
      21     1     1     2   511   501 -1.599451296E+00 -1.600672078E+01 -7.687260894E+00  1.782883436E+01  2.920019320E-07  0.00000E+00  9.000E+00
#rwgt            1           1   4.4154008354333509E-002           4      100832           0
</event>
<event>
      5   9999  3.79277E-02  4.62260E+01 -1.00000E+00  1.41048E-01
      21    -1     0     0   502   512  0.000000000E+00  0.000000000E+00  2.177127843E+03  2.177127843E+03  0.000000000E+00  0.00000E+00  9.000E+00
      21    -1     0     0   501   502  0.000000000E+00  0.000000000E+00 -4.147832016E+01  4.147832016E+01  0.000000000E+00  0.00000E+00  9.000E+00
      25     1     1     2     0     0 -1.041375809E+02  8.118658462E+00  2.732427016E+02  3.181149515E+02  1.250000000E+02  0.00000E+00  9.000E+00
      25     1     1     2     0     0  8.422180220E+01 -4.983446659E+01  3.182925310E+02  3.556851435E+02  1.250000000E+02  0.00000E+00  9.000E+00
      21     1     1     2   501   512  1.991577873E+01  4.171580813E+01  1.544114290E+03  1.544806068E+03  0.000000000E+00  0.00000E+00  9.000E+00
#rwgt            1           1   5.6800136236490648E-002           4      101017           0
</event>
<event>
      5   9999  3.79277E-02  2.39979E+02 -1.00000E+00  1.08841E-01
      21    -1     0     0   502   511  0.000000000E+00  0.000000000E+00  2.845979863E+02  2.845979863E+02  0.000000000E+00  0.00000E+00  9.000E+00
      21    -1     0     0   501   502  0.000000000E+00  0.000000000E+00 -7.350861030E+02  7.350861030E+02  0.000000000E+00  0.00000E+00  9.000E+00
      25     1     1     2     0     0  1.155812843E+02  1.138735755E+02 -2.433545093E+02  3.180764714E+02  1.250000000E+02  0.00000E+00  9.000E+00
      25     1     1     2     0     0  3.437299050E+01 -3.012327775E+02 -2.998296305E+02  4.443483949E+02  1.250000000E+02  0.00000E+00  9.000E+00
      21     1     1     2   501   511 -1.499542748E+02  1.873592020E+02  9.269602307E+01  2.572592230E+02  1.348699152E-06  0.00000E+00  9.000E+00
#rwgt            1           1   3.8662472110841964E-002           4      101071           0
</event>
<event>
      5   9999  3.79277E-02  6.04057E+01 -1.00000E+00  1.34547E-01
      -3    -1     0     0     0   501  0.000000000E+00  0.000000000E+00  9.695467338E+02  9.695467338E+02  0.000000000E+00  0.00000E+00  9.000E+00
      21    -1     0     0   501   502  0.000000000E+00  0.000000000E+00 -5.747348609E+01  5.747348609E+01  0.000000000E+00  0.00000E+00  9.000E+00
      25     1     1     2     0     0 -1.255209967E+02  6.376518944E+01  2.126522519E+02  2.840202462E+02  1.250000000E+02  0.00000E+00  9.000E+00
      25     1     1     2     0     0  7.643986240E+01 -9.897725380E+01  3.968600094E+02  4.344679694E+02  1.250000000E+02  0.00000E+00  9.000E+00
      -3     1     1     2     0   502  4.908113432E+01  3.521206436E+01  3.025609863E+02  3.085320043E+02  0.000000000E+00  0.00000E+00  9.000E+00
#rwgt            1           1   3.9712778620206390E-002           4      101165           0
</event>
<event>
      5   9999 -3.79277E-02  2.78476E+01 -1.00000E+00  1.55320E-01
      21    -1     0     0   502   511  0.000000000E+00  0.000000000E+00  6.621180184E+02  6.621180184E+02  0.000000000E+00  0.00000E+00  9.000E+00
      21    -1     0     0   501   502  0.000000000E+00  0.000000000E+00 -1.058898782E+02  1.058898782E+02  0.000000000E+00  0.00000E+00  9.000E+00
      25     1     1     2     0     0 -2.023775793E+02 -2.187449637E+01  2.493253231E+02  3.452872644E+02  1.250000000E+02  0.00000E+00  9.000E+00
      25     1     1     2     0     0  2.241535131E+02  4.516619422E+00  2.450128770E+02  3.548542056E+02  1.250000000E+02  0.00000E+00  9.000E+00
      21     1     1     2   501   511 -2.177593381E+01  1.735787695E+01  6.188994000E+01  6.786642660E+01  6.743495762E-07  0.00000E+00  9.000E+00
#rwgt            1           1 -0.14129320907655574                4      101277           0
</event>
<event>
      5   9999  3.79277E-02  6.28284E+00 -1.00000E+00  2.22409E-01
      21    -1     0     0   512   501  0.000000000E+00  0.000000000E+00  9.236516741E+01  9.236516741E+01  0.000000000E+00  0.00000E+00  9.000E+00
      21    -1     0     0   501   502  0.000000000E+00  0.000000000E+00 -3.065828425E+02  3.065828425E+02  0.000000000E+00  0.00000E+00  9.000E+00
      25     1     1     2     0     0 -7.040583505E+01  7.142975704E+01 -5.794885395E+01  1.704179024E+02  1.250000000E+02  0.00000E+00  9.000E+00
      25     1     1     2     0     0  6.530283648E+01 -7.509492534E+01 -1.538208910E+02  2.217872286E+02  1.250000000E+02  0.00000E+00  9.000E+00
      21     1     1     2   512   502  5.102998571E+00  3.665168302E+00 -2.447930082E+00  6.742878820E+00  5.960464478E-08  0.00000E+00  9.000E+00
#rwgt            1           1   3.7112031862699082E-002           4      101370           0
</event>
<event>
      5   9999  3.79277E-02  6.08831E+01 -1.00000E+00  1.34365E-01
      21    -1     0     0   502   511  0.000000000E+00  0.000000000E+00  6.595189329E+01  6.595189329E+01  0.000000000E+00  0.00000E+00  9.000E+00
      21    -1     0     0   501   502  0.000000000E+00  0.000000000E+00 -2.550603076E+03  2.550603076E+03  0.000000000E+00  0.00000E+00  9.000E+00
      25     1     1     2     0     0  2.017558058E+02 -4.139278391E+01 -5.986234884E+02  6.452858658E+02  1.250000000E+02  0.00000E+00  9.000E+00
      25     1     1     2     0     0 -2.030072242E+02  1.022630253E+02 -1.892359746E+03  1.910057608E+03  1.250000000E+02  0.00000E+00  9.000E+00
      21     1     1     2   501   511  1.251418415E+00 -6.087024136E+01  6.332051043E+00  6.121149567E+01  1.831327855E-06  0.00000E+00  9.000E+00
#rwgt            1           1   7.2021222604261748E-002           4      101704           0
</event>
<event>
      5   9999 -3.79277E-02  9.96532E+01 -1.00000E+00  1.23896E-01
       2    -1     0     0   502     0  0.000000000E+00  0.000000000E+00  1.219738732E+03  1.219738732E+03  0.000000000E+00  0.00000E+00  9.000E+00
      21    -1     0     0   501   502  0.000000000E+00  0.000000000E+00 -1.292719668E+02  1.292719668E+02  0.000000000E+00  0.00000E+00  9.000E+00
      25     1     1     2     0     0  3.049952951E+01 -1.325460217E+02  2.976636274E+02  3.503245699E+02  1.250000000E+02  0.00000E+00  9.000E+00
      25     1     1     2     0     0  5.999945728E+01  9.082434290E+01 -3.121295734E+01  1.686660750E+02  1.250000000E+02  0.00000E+00  9.000E+00
       2     1     1     2   501     0 -9.049898679E+01  4.172167875E+01  8.240160948E+02  8.300200537E+02  1.078959322E-05  0.00000E+00  9.000E+00
#rwgt            1           1  -2.4088514251951226E-002           4      101924           0
</event>
<event>
      5   9999  3.79277E-02  1.07076E+01 -1.00000E+00  1.92386E-01
      21    -1     0     0   502   501  0.000000000E+00  0.000000000E+00  2.869918215E+02  2.869918215E+02  0.000000000E+00  0.00000E+00  9.000E+00
      21    -1     0     0   511   502  0.000000000E+00  0.000000000E+00 -1.868504932E+02  1.868504932E+02  0.000000000E+00  0.00000E+00  9.000E+00
      25     1     1     2     0     0 -4.274703955E+01 -1.384917597E+02  3.681202379E+01  1.949035710E+02  1.250000000E+02  0.00000E+00  9.000E+00
      25     1     1     2     0     0  5.017248317E+01  1.462064352E+02  1.126343855E+02  2.284843639E+02  1.250000000E+02  0.00000E+00  9.000E+00
      21     1     1     2   511   501 -7.425443621E+00 -7.714675518E+00 -4.930508090E+01  5.045437973E+01  9.536743164E-07  0.00000E+00  9.000E+00
#rwgt            1           1   3.6826937656792680E-002           4      102124           0
</event>
<event>
      5   9999  3.79277E-02  4.26410E+01 -1.00000E+00  1.43139E-01
      21    -1     0     0   502   501  0.000000000E+00  0.000000000E+00  1.151278621E+02  1.151278621E+02  0.000000000E+00  0.00000E+00  9.000E+00
      21    -1     0     0   501   512  0.000000000E+00  0.000000000E+00 -4.362846118E+02  4.362846118E+02  0.000000000E+00  0.00000E+00  9.000E+00
      25     1     1     2     0     0 -8.276495973E+01  3.641540319E+01 -1.473039321E+02  2.133062788E+02  1.250000000E+02  0.00000E+00  9.000E+00
      25     1     1     2     0     0  5.075757062E+01 -6.458950943E+01  9.483051671E+00  1.498768293E+02  1.250000000E+02  0.00000E+00  9.000E+00
      21     1     1     2   502   512  3.200738911E+01  2.817410624E+01 -1.833358692E+02  1.882293658E+02  0.000000000E+00  0.00000E+00  9.000E+00
#rwgt            1           1   3.4633042153139233E-002           4      102370           0
</event>
<event>
      5   9999  3.79277E-02  1.00655E+02 -1.00000E+00  1.23700E-01
      21    -1     0     0   502   501  0.000000000E+00  0.000000000E+00  3.733905158E+02  3.733905158E+02  0.000000000E+00  0.00000E+00  9.000E+00
      -1    -1     0     0     0   502  0.000000000E+00  0.000000000E+00 -4.692929473E+02  4.692929473E+02  0.000000000E+00  0.00000E+00  9.000E+00
      25     1     1     2     0     0  9.009018136E+01  2.209575960E+02  1.454952147E+02  3.061574064E+02  1.250000000E+02  0.00000E+00  9.000E+00
      25     1     1     2     0     0 -1.817547158E+02 -1.793746670E+02 -1.034799347E+01  2.845033020E+02  1.250000000E+02  0.00000E+00  9.000E+00
      -1     1     1     2     0   501  9.166453449E+01 -4.158292895E+01 -2.310496526E+02  2.520227546E+02  3.814697266E-06  0.00000E+00  9.000E+00
#rwgt            1           1   3.9911961219798640E-002           4      102455           0
</event>
<event>
      5   9999  3.79277E-02  7.78136E+01 -1.00000E+00  1.28935E-01
      21    -1     0     0   502   501  0.000000000E+00  0.000000000E+00  6.290812663E+02  6.290812663E+02  0.000000000E+00  0.00000E+00  9.000E+00
      21    -1     0     0   511   502  0.000000000E+00  0.000000000E+00 -1.229370100E+03  1.229370100E+03  0.000000000E+00  0.00000E+00  9.000E+00
      25     1     1     2     0     0  7.983833846E+01  1.622353299E+02  1.906649832E+02  2.909855638E+02  1.250000000E+02  0.00000E+00  9.000E+00
      25     1     1     2     0     0 -1.563578282E+02 -1.763679256E+02  3.409298337E+02  4.329105763E+02  1.250000000E+02  0.00000E+00  9.000E+00
      21     1     1     2   511   501  7.651948979E+01  1.413259570E+01 -1.131883651E+03  1.134555226E+03  1.525878906E-05  0.00000E+00  9.000E+00
#rwgt            1           1   3.8016423995369780E-002           4      102621           0
</event>
<event>
      5   9999  3.79277E-02  1.69168E+01 -1.00000E+00  1.72601E-01
      21    -1     0     0   502   512  0.000000000E+00  0.000000000E+00  1.279412491E+02  1.279412491E+02  0.000000000E+00  0.00000E+00  9.000E+00
      21    -1     0     0   501   502  0.000000000E+00  0.000000000E+00 -7.302219515E+02  7.302219515E+02  0.000000000E+00  0.00000E+00  9.000E+00
      25     1     1     2     0     0  4.613318011E+01 -1.663224538E+02 -5.878773754E+02  6.253129116E+02  1.250000000E+02  0.00000E+00  9.000E+00
      25     1     1     2     0     0 -3.733280502E+01  1.518748908E+02 -3.803019136E+01  2.037916000E+02  1.250000000E+02  0.00000E+00  9.000E+00
      21     1     1     2   501   512 -8.800375092E+00  1.444756304E+01  2.362686447E+01  2.905868896E+01  8.259061849E-07  0.00000E+00  9.000E+00
#rwgt            1           1   5.0920750440279522E-002           4      102706           0
</event>
<event>
      5   9999  3.79277E-02  1.71167E+02 -1.00000E+00  1.14166E-01
      21    -1     0     0   502   511  0.000000000E+00  0.000000000E+00  4.606997763E+02  4.606997763E+02  0.000000000E+00  0.00000E+00  9.000E+00
      21    -1     0     0   501   502  0.000000000E+00  0.000000000E+00 -7.014996656E+02  7.014996656E+02  0.000000000E+00  0.00000E+00  9.000E+00
      25     1     1     2     0     0 -2.197863747E+02  1.058840521E+02 -5.308697051E+02  5.974655863E+02  1.250000000E+02  0.00000E+00  9.000E+00
      25     1     1     2     0     0  8.193786767E+01 -2.073522377E+02  3.562677115E+01  2.580756313E+02  1.250000000E+02  0.00000E+00  9.000E+00
      21     1     1     2   501   511  1.378485070E+02  1.014681856E+02  2.544430447E+02  3.066582243E+02  6.607249480E-06  0.00000E+00  9.000E+00
#rwgt            1           1   2.9881731391526823E-002           4      102912           0
</event>
<event>
      5   9999  3.79277E-02  9.77476E+00 -1.00000E+00  1.96908E-01
      21    -1     0     0   502   501  0.000000000E+00  0.000000000E+00  5.541492039E+01  5.541492039E+01  0.000000000E+00  0.00000E+00  9.000E+00
      21    -1     0     0   501   512  0.000000000E+00  0.000000000E+00 -2.506878199E+03  2.506878199E+03  0.000000000E+00  0.00000E+00  9.000E+00
      25     1     1     2     0     0  1.182613490E+02 -3.094701209E+02 -9.286633515E+02  9.938803363E+02  1.250000000E+02  0.00000E+00  9.000E+00
      25     1     1     2     0     0 -1.219751569E+02  3.185118874E+02 -1.443130718E+03  1.488146173E+03  1.250000000E+02  0.00000E+00  9.000E+00
      21     1     1     2   502   512  3.713807909E+00 -9.041766461E+00 -7.966920864E+01  8.026661022E+01  9.536743164E-07  0.00000E+00  9.000E+00
#rwgt            1           1  0.11361789841686026                4      103060           0
</event>
<event>
      5   9999  3.79277E-02  4.13831E+01 -1.00000E+00  1.43930E-01
       2    -1     0     0   502     0  0.000000000E+00  0.000000000E+00  1.035812741E+03  1.035812741E+03  0.000000000E+00  0.00000E+00  9.000E+00
      21    -1     0     0   501   502  0.000000000E+00  0.000000000E+00 -2.129601004E+02  2.129601004E+02  0.000000000E+00  0.00000E+00  9.000E+00
      25     1     1     2     0     0 -1.648476064E+02 -1.457721186E+02  4.686036570E+01  2.573813081E+02  1.250000000E+02  0.00000E+00  9.000E+00
      25     1     1     2     0     0  1.381132920E+02  1.773607199E+02  4.729769152E+01  2.615228059E+02  1.250000000E+02  0.00000E+00  9.000E+00
       2     1     1     2   501     0  2.673431442E+01 -3.158860132E+01  7.286945837E+02  7.298687276E+02  0.000000000E+00  0.00000E+00  9.000E+00
#rwgt            2          18   5.2873873593652695E-004           4      103335           0
</event>
<event>
      5   9999  3.79277E-02  1.12779E+02 -1.00000E+00  1.21524E-01
       3    -1     0     0   502     0  0.000000000E+00  0.000000000E+00  7.189903051E+01  7.189903051E+01  0.000000000E+00  0.00000E+00  9.000E+00
      21    -1     0     0   501   502  0.000000000E+00  0.000000000E+00 -1.000417452E+03  1.000417452E+03  0.000000000E+00  0.00000E+00  9.000E+00
      25     1     1     2     0     0 -7.805990566E+01 -7.841636184E+01 -3.808058332E+02  4.157890779E+02  1.250000000E+02  0.00000E+00  9.000E+00
      25     1     1     2     0     0  1.897806517E+02  9.382686971E+01 -3.321090955E+02  4.132089406E+02  1.250000000E+02  0.00000E+00  9.000E+00
       3     1     1     2   501     0 -1.117207460E+02 -1.541050787E+01 -2.156034924E+02  2.433184637E+02  0.000000000E+00  0.00000E+00  9.000E+00
#rwgt            1           1  0.13473092303911618                4      103414           0
</event>
<event>
      5   9999  3.79277E-02  1.58182E+01 -1.00000E+00  1.75238E-01
      21    -1     0     0   502   501  0.000000000E+00  0.000000000E+00  1.069798571E+02  1.069798571E+02  0.000000000E+00  0.00000E+00  9.000E+00
      21    -1     0     0   511   502  0.000000000E+00  0.000000000E+00 -1.494687008E+03  1.494687008E+03  0.000000000E+00  0.00000E+00  9.000E+00
      25     1     1     2     0     0  2.504189836E+02  1.960593475E+02 -7.786200732E+02  8.503076817E+02  1.250000000E+02  0.00000E+00  9.000E+00
      25     1     1     2     0     0 -2.660601829E+02 -1.936993893E+02 -3.662498602E+02  5.080073173E+02  1.250000000E+02  0.00000E+00  9.000E+00
      21     1     1     2   511   501  1.564119926E+01 -2.359958213E+00 -2.428372171E+02  2.433518657E+02  0.000000000E+00  0.00000E+00  9.000E+00
#rwgt            1           1   4.4425301074524727E-002           4      103604           0
</event>
<event>
      5   9999  3.79277E-02  2.23053E+02 -1.00000E+00  1.09950E-01
      21    -1     0     0   512   501  0.000000000E+00  0.000000000E+00  3.955533636E+02  3.955533636E+02  0.000000000E+00  0.00000E+00  9.000E+00
      21    -1     0     0   501   502  0.000000000E+00  0.000000000E+00 -5.825411931E+02  5.825411931E+02  0.000000000E+00  0.00000E+00  9.000E+00
      25     1     1     2     0     0 -9.399377506E+00 -1.195120486E+02 -4.446557459E+02  4.771951492E+02  1.250000000E+02  0.00000E+00  9.000E+00
      25     1     1     2     0     0  4.741566790E+01 -1.002776873E+02  9.742387386E+00  1.674030294E+02  1.250000000E+02  0.00000E+00  9.000E+00
      21     1     1     2   512   502 -3.801629039E+01  2.197897359E+02  2.479255290E+02  3.334963782E+02  2.697398305E-06  0.00000E+00  9.000E+00
#rwgt            1           1   4.5570378357009014E-002           4      103880           0
</event>
<event>
      5   9999  3.79277E-02  1.07684E+01 -1.00000E+00  1.92112E-01
      21    -1     0     0   502   501  0.000000000E+00  0.000000000E+00  7.962004653E+01  7.962004653E+01  0.000000000E+00  0.00000E+00  9.000E+00
      21    -1     0     0   501   511  0.000000000E+00  0.000000000E+00 -3.930396541E+02  3.930396541E+02  0.000000000E+00  0.00000E+00  9.000E+00
      25     1     1     2     0     0 -1.561691619E+01 -9.123022076E+01 -4.937127504E+01  1.631850607E+02  1.250000000E+02  0.00000E+00  9.000E+00
      25     1     1     2     0     0  7.923535987E+00  8.369554230E+01 -2.464639835E+02  2.888550179E+02  1.250000000E+02  0.00000E+00  9.000E+00
      21     1     1     2   502   511  7.693380207E+00  7.534678465E+00 -1.758434902E+01  2.061962194E+01  2.384185791E-07  0.00000E+00  9.000E+00
#rwgt            1           1   4.3855558395314888E-002           4      103964           0
</event>
<event>
      5   9999  3.79277E-02  3.17190E+01 -1.00000E+00  1.51378E-01
      21    -1     0     0   502   501  0.000000000E+00  0.000000000E+00  8.569298225E+02  8.569298225E+02  0.000000000E+00  0.00000E+00  9.000E+00
      21    -1     0     0   501   512  0.000000000E+00  0.000000000E+00 -1.338539129E+02  1.338539129E+02  0.000000000E+00  0.00000E+00  9.000E+00
      25     1     1     2     0     0  1.145783270E+02 -1.314805768E+02  2.405285202E+02  3.223263938E+02  1.250000000E+02  0.00000E+00  9.000E+00
      25     1     1     2     0     0 -1.440177025E+02  1.196730875E+02  5.497940574E+02  5.941054216E+02  1.250000000E+02  0.00000E+00  9.000E+00
      21     1     1     2   502   512  2.943937548E+01  1.180748929E+01 -6.724666805E+01  7.435191992E+01  9.536743164E-07  0.00000E+00  9.000E+00
#rwgt            1           1   3.8552134096316318E-002           4      104160           0
</event>
<event>
      5   9999  3.79277E-02  5.71974E+01 -1.00000E+00  1.35823E-01
      21    -1     0     0   502   511  0.000000000E+00  0.000000000E+00  8.240817729E+02  8.240817729E+02  0.000000000E+00  0.00000E+00  9.000E+00
      21    -1     0     0   501   502  0.000000000E+00  0.000000000E+00 -2.378168509E+02  2.378168509E+02  0.000000000E+00  0.00000E+00  9.000E+00
      25     1     1     2     0     0  3.715083462E+02  1.479089833E+02  2.496149680E+02  4.876762768E+02  1.250000000E+02  0.00000E+00  9.000E+00
      25     1     1     2     0     0 -3.259852689E+02 -1.132796518E+02  1.827268573E+02  4.100155844E+02  1.250000000E+02  0.00000E+00  9.000E+00
      21     1     1     2   501   511 -4.552307728E+01 -3.462933154E+01  1.539230967E+02  1.642067626E+02  0.000000000E+00  0.00000E+00  9.000E+00
#rwgt            1           1   2.5360989435083445E-002           4      104300           0
</event>
<event>
      5   9999  3.79277E-02  1.18949E+02 -1.00000E+00  1.20531E-01
      21    -1     0     0   502   512  0.000000000E+00  0.000000000E+00  3.477598811E+02  3.477598811E+02  0.000000000E+00  0.00000E+00  9.000E+00
      21    -1     0     0   501   502  0.000000000E+00  0.000000000E+00 -2.398360765E+02  2.398360765E+02  0.000000000E+00  0.00000E+00  9.000E+00
      25     1     1     2     0     0  8.304853867E+01 -1.329983571E+02  8.690077574E+01  2.185460308E+02  1.250000000E+02  0.00000E+00  9.000E+00
      25     1     1     2     0     0  2.173545835E+01  7.670246013E+01 -1.155279049E+02  1.879558308E+02  1.250000000E+02  0.00000E+00  9.000E+00
      21     1     1     2   501   512 -1.047839970E+02  5.629589699E+01  1.365509338E+02  1.810940959E+02  0.000000000E+00  0.00000E+00  9.000E+00
#rwgt            1           1   4.2225907685086252E-002           4      104489           0
</event>
<event>
      5   9999  3.79277E-02  2.07493E+01 -1.00000E+00  1.65062E-01
      21    -1     0     0   511   501  0.000000000E+00  0.000000000E+00  1.230410047E+03  1.230410047E+03  0.000000000E+00  0.00000E+00  9.000E+00
      21    -1     0     0   501   502  0.000000000E+00  0.000000000E+00 -3.419017857E+01  3.419017857E+01  0.000000000E+00  0.00000E+00  9.000E+00
      25     1     1     2     0     0 -8.407436927E+01  1.174148260E+02  3.883795111E+02  4.328029408E+02  1.250000000E+02  0.00000E+00  9.000E+00
      25     1     1     2     0     0  6.877006796E+01 -1.034037114E+02  6.898864962E+02  7.120323219E+02  1.250000000E+02  0.00000E+00  9.000E+00
      21     1     1     2   511   502  1.530430131E+01 -1.401111466E+01  1.179538611E+02  1.197649629E+02  0.000000000E+00  0.00000E+00  9.000E+00
#rwgt            1           1   5.0897220647491269E-002           4      104559           0
</event>
<event>
      5   9999 -3.79277E-02  9.62550E+01 -1.00000E+00  1.24578E-01
      21    -1     0     0   502   501  0.000000000E+00  0.000000000E+00  4.684046045E+02  4.684046045E+02  0.000000000E+00  0.00000E+00  9.000E+00
      -3    -1     0     0     0   502  0.000000000E+00  0.000000000E+00 -1.533844649E+02  1.533844649E+02  0.000000000E+00  0.00000E+00  9.000E+00
      25     1     1     2     0     0 -7.821112255E+01 -6.932904404E+01  1.998998930E+02  2.578923482E+02  1.250000000E+02  0.00000E+00  9.000E+00
      25     1     1     2     0     0  1.625981111E+02  1.156309257E+02  1.259830571E+02  2.670306862E+02  1.250000000E+02  0.00000E+00  9.000E+00
      -3     1     1     2     0   501 -8.438698859E+01 -4.630188163E+01 -1.086281050E+01  9.686603501E+01  1.846782373E-06  0.00000E+00  9.000E+00
#rwgt            1           1  -1.8170986555333994E-002           4      104852           0
</event>
<event>
      5   9999  3.79277E-02  1.27038E+01 -1.00000E+00  1.84462E-01
      21    -1     0     0   502   501  0.000000000E+00  0.000000000E+00  5.975877353E+01  5.975877353E+01  0.000000000E+00  0.00000E+00  9.000E+00
      21    -1     0     0   501   511  0.000000000E+00  0.000000000E+00 -5.575033497E+02  5.575033497E+02  0.000000000E+00  0.00000E+00  9.000E+00
      25     1     1     2     0     0  8.423703604E+01  3.666698598E+00 -8.539857421E+01  1.732836963E+02  1.250000000E+02  0.00000E+00  9.000E+00
      25     1     1     2     0     0 -8.464075959E+01 -1.636412682E+01 -3.780096940E+02  4.073673669E+02  1.250000000E+02  0.00000E+00  9.000E+00
      21     1     1     2   502   511  4.037235449E-01  1.269742822E+01 -3.433630794E+01  3.661106006E+01  0.000000000E+00  0.00000E+00  9.000E+00
#rwgt            1           1   5.3606874418778899E-002           4      105071           0
</event>
<event>
      5   9999  3.79277E-02  5.50397E+01 -1.00000E+00  1.36737E-01
      21    -1     0     0   502   501  0.000000000E+00  0.000000000E+00  1.033012988E+02  1.033012988E+02  0.000000000E+00  0.00000E+00  9.000E+00
       1    -1     0     0   501     0  0.000000000E+00  0.000000000E+00 -1.459680144E+03  1.459680144E+03  0.000000000E+00  0.00000E+00  9.000E+00
      25     1     1     2     0     0 -6.421248602E+01  2.364961143E+02 -4.029126177E+02  4.878700984E+02  1.250000000E+02  0.00000E+00  9.000E+00
      25     1     1     2     0     0  1.472496527E+01 -2.124055407E+02 -1.949068978E+02  3.145578438E+02  1.250000000E+02  0.00000E+00  9.000E+00
       1     1     1     2   502     0  4.948752076E+01 -2.409057356E+01 -7.585593302E+02  7.605535010E+02  1.078959322E-05  0.00000E+00  9.000E+00
#rwgt            1           1   4.5184202105183847E-002           4      105297           0
</event>
<event>
      5   9999  3.79277E-02  3.04426E+01 -1.00000E+00  1.52599E-01
      21    -1     0     0   502   501  0.000000000E+00  0.000000000E+00  2.673240894E+02  2.673240894E+02  0.000000000E+00  0.00000E+00  9.000E+00
      21    -1     0     0   511   502  0.000000000E+00  0.000000000E+00 -8.481920486E+02  8.481920486E+02  0.000000000E+00  0.00000E+00  9.000E+00
      25     1     1     2     0     0 -3.590411324E+01  1.085212890E+02  1.778719220E+02  2.456204311E+02  1.250000000E+02  0.00000E+00  9.000E+00
      25     1     1     2     0     0  4.509626019E+01 -1.375429272E+02 -1.103724028E+02  2.208139416E+02  1.250000000E+02  0.00000E+00  9.000E+00
      21     1     1     2   511   501 -9.192146951E+00  2.902163820E+01 -6.483674784E+02  6.490817654E+02  7.629394531E-06  0.00000E+00  9.000E+00
#rwgt            1           1   4.4059583631080229E-002           4      105483           0
</event>
<event>
      5   9999  3.79277E-02  6.44623E+01 -1.00000E+00  1.33059E-01
       2    -1     0     0   502     0  0.000000000E+00  0.000000000E+00  1.958113473E+03  1.958113473E+03  0.000000000E+00  0.00000E+00  9.000E+00
      21    -1     0     0   501   502  0.000000000E+00  0.000000000E+00 -4.030486792E+01  4.030486792E+01  0.000000000E+00  0.00000E+00  9.000E+00
      25     1     1     2     0     0  9.662212497E+01  8.645277661E+01  2.844015453E+02  3.366291084E+02  1.250000000E+02  0.00000E+00  9.000E+00
      25     1     1     2     0     0 -1.551036621E+02 -5.933632745E+01  1.491670961E+03  1.506082734E+03  1.250000000E+02  0.00000E+00  9.000E+00
       2     1     1     2   501     0  5.848153711E+01 -2.711644916E+01  1.417360984E+02  1.557064983E+02  1.907348633E-06  0.00000E+00  9.000E+00
#rwgt            1           1  0.13579146910339071                4      105649           0
</event>
<event>
      5   9999 -3.79277E-02  6.39933E+01 -1.00000E+00  1.33225E-01
      21    -1     0     0   502   501  0.000000000E+00  0.000000000E+00  1.558205641E+03  1.558205641E+03  0.000000000E+00  0.00000E+00  9.000E+00
      -2    -1     0     0     0   502  0.000000000E+00  0.000000000E+00 -4.809209115E+02  4.809209115E+02  0.000000000E+00  0.00000E+00  9.000E+00
      25     1     1     2     0     0 -8.136868305E+01 -1.582101020E+02  9.442229637E+02  9.689341072E+02  1.250000000E+02  0.00000E+00  9.000E+00
      25     1     1     2     0     0  2.025185970E+01  1.392398056E+02  5.845960179E+02  6.141460457E+02  1.250000000E+02  0.00000E+00  9.000E+00
      -2     1     1     2     0   501  6.111682335E+01  1.897029639E+01 -4.515342519E+02  4.560463999E+02  5.394796609E-06  0.00000E+00  9.000E+00
#rwgt            1           1 -0.19384308205535147                4      106090           0
</event>
<event>
      5   9999  3.79277E-02  6.40712E+01 -1.00000E+00  1.33197E-01
      21    -1     0     0   511   501  0.000000000E+00  0.000000000E+00  4.511223146E+02  4.511223146E+02  0.000000000E+00  0.00000E+00  9.000E+00
      21    -1     0     0   501   502  0.000000000E+00  0.000000000E+00 -2.349679601E+02  2.349679601E+02  0.000000000E+00  0.00000E+00  9.000E+00
      25     1     1     2     0     0 -6.881194615E+01  2.124409310E+02 -6.049644613E+01  2.629658782E+02  1.250000000E+02  0.00000E+00  9.000E+00
      25     1     1     2     0     0  1.000631066E+02 -1.565080250E+02  1.203425480E+02  2.541942487E+02  1.250000000E+02  0.00000E+00  9.000E+00
      21     1     1     2   511   502 -3.125116044E+01 -5.593290594E+01  1.563082527E+02  1.689301478E+02  1.907348633E-06  0.00000E+00  9.000E+00
#rwgt            1           1   4.4592695695595826E-002           4      106274           0
</event>
<event>
      5   9999  3.79277E-02  6.80696E+00 -1.00000E+00  2.17285E-01
      21    -1     0     0   502   501  0.000000000E+00  0.000000000E+00  2.321708158E+02  2.321708158E+02  0.000000000E+00  0.00000E+00  9.000E+00
      21    -1     0     0   512   502  0.000000000E+00  0.000000000E+00 -7.446072078E+02  7.446072078E+02  0.000000000E+00  0.00000E+00  9.000E+00
      25     1     1     2     0     0  7.692313942E+01 -3.852812992E+02 -1.992096958E+02  4.578955686E+02  1.250000000E+02  0.00000E+00  9.000E+00
      25     1     1     2     0     0 -7.217312177E+01  3.804056367E+02 -3.081456934E+02  5.103882603E+02  1.250000000E+02  0.00000E+00  9.000E+00
      21     1     1     2   512   501 -4.750017650E+00  4.875662514E+00 -5.081002864E+00  8.494194648E+00  1.332800375E-07  0.00000E+00  9.000E+00
#rwgt            1           1   4.2942605165668460E-002           4      106433           0
</event>
<event>
      5   9999  3.79277E-02  1.09327E+01 -1.00000E+00  1.91384E-01
      21    -1     0     0   502   511  0.000000000E+00  0.000000000E+00  1.448319995E+02  1.448319995E+02  0.000000000E+00  0.00000E+00  9.000E+00
      21    -1     0     0   501   502  0.000000000E+00  0.000000000E+00 -4.463062642E+02  4.463062642E+02  0.000000000E+00  0.00000E+00  9.000E+00
      25     1     1     2     0     0 -1.044230583E+02  5.725281639E+01 -2.511869581E+02  3.047982087E+02  1.250000000E+02  0.00000E+00  9.000E+00
      25     1     1     2     0     0  1.152611521E+02 -5.868816552E+01 -1.197066651E+02  2.160650819E+02  1.250000000E+02  0.00000E+00  9.000E+00
      21     1     1     2   501   511 -1.083809379E+01  1.435349137E+00  6.941935847E+01  7.027497303E+01  0.000000000E+00  0.00000E+00  9.000E+00
#rwgt            1           1   4.0260849078361499E-002           4      107131           0
</event>
<event>
      5   9999  3.79277E-02  8.78983E+00 -1.00000E+00  2.02464E-01
      21    -1     0     0   502   501  0.000000000E+00  0.000000000E+00  6.138680869E+02  6.138680869E+02  0.000000000E+00  0.00000E+00  9.000E+00
      21    -1     0     0   512   502  0.000000000E+00  0.000000000E+00 -7.073796246E+01  7.073796246E+01  0.000000000E+00  0.00000E+00  9.000E+00
      25     1     1     2     0     0  1.798384115E+01  1.040577364E+02  6.706425230E+01  1.768446917E+02  1.250000000E+02  0.00000E+00  9.000E+00
      25     1     1     2     0     0 -2.603656514E+01 -1.005342837E+02  4.693825560E+02  4.967192656E+02  1.250000000E+02  0.00000E+00  9.000E+00
      21     1     1     2   512   501  8.052723986E+00 -3.523452723E+00  6.683316089E+00  1.104209204E+01  1.192092896E-07  0.00000E+00  9.000E+00
#rwgt            1           1   4.3426982415596373E-002           4      107352           0
</event>
<event>
      5   9999  3.79277E-02  3.68373E+01 -1.00000E+00  1.47094E-01
      21    -1     0     0   502   501  0.000000000E+00  0.000000000E+00  2.659897678E+01  2.659897678E+01  0.000000000E+00  0.00000E+00  9.000E+00
       2    -1     0     0   501     0  0.000000000E+00  0.000000000E+00 -2.275192314E+03  2.275192314E+03  0.000000000E+00  0.00000E+00  9.000E+00
      25     1     1     2     0     0  1.242481981E+02 -7.701334326E+01 -8.814439490E+02  9.021846291E+02  1.250000000E+02  0.00000E+00  9.000E+00
      25     1     1     2     0     0 -1.587628677E+02  8.988671857E+01 -7.648550589E+02  7.961868697E+02  1.250000000E+02  0.00000E+00  9.000E+00
       2     1     1     2   502     0  3.451466962E+01 -1.287337530E+01 -6.022943289E+02  6.034197916E+02  1.078959322E-05  0.00000E+00  9.000E+00
#rwgt            1           1   8.3962267856212622E-002           4      107660           0
</event>
<event>
      5   9999  3.79277E-02  2.90637E+02 -1.00000E+00  1.06041E-01
      21    -1     0     0   511   501  0.000000000E+00  0.000000000E+00  1.823519227E+02  1.823519227E+02  0.000000000E+00  0.00000E+00  9.000E+00
      21    -1     0     0   501   502  0.000000000E+00  0.000000000E+00 -2.460673388E+03  2.460673388E+03  0.000000000E+00  0.00000E+00  9.000E+00
      25     1     1     2     0     0  2.736830252E+02 -1.171739677E+02 -1.737584463E+03  1.767330445E+03  1.250000000E+02  0.00000E+00  9.000E+00
      25     1     1     2     0     0 -2.619262848E+02 -1.732246522E+02 -4.658845211E+02  5.755741010E+02  1.250000000E+02  0.00000E+00  9.000E+00
      21     1     1     2   511   502 -1.175674039E+01  2.903986199E+02 -7.485248159E+01  3.001207646E+02  1.907348633E-06  0.00000E+00  9.000E+00
#rwgt            1           1   3.6339529276296481E-002           4      107805           0
</event>
<event>
      5   9999  3.79277E-02  2.46927E+01 -1.00000E+00  1.59154E-01
      21    -1     0     0   502   501  0.000000000E+00  0.000000000E+00  2.157639298E+02  2.157639298E+02  0.000000000E+00  0.00000E+00  9.000E+00
      21    -1     0     0   512   502  0.000000000E+00  0.000000000E+00 -3.084327329E+02  3.084327329E+02  0.000000000E+00  0.00000E+00  9.000E+00
      25     1     1     2     0     0 -9.466279014E+01 -7.923686694E+01 -9.408667118E+00  1.759347832E+02  1.250000000E+02  0.00000E+00  9.000E+00
      25     1     1     2     0     0  1.106297418E+02  9.807266639E+01  6.015746630E+01  2.027340830E+02  1.250000000E+02  0.00000E+00  9.000E+00
      21     1     1     2   512   501 -1.596695163E+01 -1.883579945E+01 -1.434176023E+02  1.455277965E+02  1.907348633E-06  0.00000E+00  9.000E+00
#rwgt            1           1   4.3003745663571971E-002           4      107873           0
</event>
<event>
      5   9999  3.79277E-02  7.65099E+01 -1.00000E+00  1.29294E-01
      21    -1     0     0   502   501  0.000000000E+00  0.000000000E+00  3.639724790E+02  3.639724790E+02  0.000000000E+00  0.00000E+00  9.000E+00
      21    -1     0     0   511   502  0.000000000E+00  0.000000000E+00 -2.785846761E+02  2.785846761E+02  0.000000000E+00  0.00000E+00  9.000E+00
      25     1     1     2     0     0  6.437233534E+01 -1.584562149E+02 -2.069339192E+01  2.128506192E+02  1.250000000E+02  0.00000E+00  9.000E+00
      25     1     1     2     0     0 -1.391235332E+02  1.421461249E+02  2.000323729E+02  3.085430740E+02  1.250000000E+02  0.00000E+00  9.000E+00
      21     1     1     2   511   501  7.475119785E+01  1.631009008E+01 -9.395117813E+01  1.211634619E+02  0.000000000E+00  0.00000E+00  9.000E+00
#rwgt            1           1   3.5446773252365622E-002           4      108257           0
</event>
<event>
      5   9999  3.79277E-02  2.58547E+01 -1.00000E+00  1.57665E-01
      21    -1     0     0   502   501  0.000000000E+00  0.000000000E+00  2.039892178E+02  2.039892178E+02  0.000000000E+00  0.00000E+00  9.000E+00
       2    -1     0     0   501     0  0.000000000E+00  0.000000000E+00 -7.041564305E+02  7.041564305E+02  0.000000000E+00  0.00000E+00  9.000E+00
      25     1     1     2     0     0  7.409167685E+01 -9.220692478E+01 -8.587383339E+01  1.923304677E+02  1.250000000E+02  0.00000E+00  9.000E+00
      25     1     1     2     0     0 -6.461049193E+01  1.162604920E+02  9.506615673E+01  2.057998829E+02  1.250000000E+02  0.00000E+00  9.000E+00
       2     1     1     2   502     0 -9.481184915E+00 -2.405356718E+01 -5.093595360E+02  5.100152977E+02  5.394796609E-06  0.00000E+00  9.000E+00
#rwgt            1           1   3.9959672547999252E-002           4      108326           0
</event>
<event>
      5   9999  3.79277E-02  6.22272E+00 -1.00000E+00  2.23041E-01
      21    -1     0     0   502   501  0.000000000E+00  0.000000000E+00  7.447882130E+02  7.447882130E+02  0.000000000E+00  0.00000E+00  9.000E+00
      21    -1     0     0   511   502  0.000000000E+00  0.000000000E+00 -6.629086960E+02  6.629086960E+02  0.000000000E+00  0.00000E+00  9.000E+00
      25     1     1     2     0     0  1.352426051E+02 -2.737126137E+02  4.166498536E+02  5.314426193E+02  1.250000000E+02  0.00000E+00  9.000E+00
      25     1     1     2     0     0 -1.378302965E+02  2.793717709E+02  1.666763651E+02  3.747689791E+02  1.250000000E+02  0.00000E+00  9.000E+00
      21     1     1     2   511   501  2.587691487E+00 -5.659157280E+00 -5.014467016E+02  5.014853106E+02  5.394796609E-06  0.00000E+00  9.000E+00
#rwgt            1           1   4.2039912642443694E-002           4      108606           0
</event>
<event>
      5   9999  3.79277E-02  1.24202E+02 -1.00000E+00  1.19737E-01
       1    -1     0     0   502     0  0.000000000E+00  0.000000000E+00  1.591332691E+03  1.591332691E+03  0.000000000E+00  0.00000E+00  9.000E+00
      21    -1     0     0   501   502  0.000000000E+00  0.000000000E+00 -8.760221569E+01  8.760221569E+01  0.000000000E+00  0.00000E+00  9.000E+00
      25     1     1     2     0     0 -7.677029245E+01  1.623538483E+02  1.304843605E+02  2.547618853E+02  1.250000000E+02  0.00000E+00  9.000E+00
      25     1     1     2     0     0 -4.718926878E+01 -1.701143475E+02  5.398771726E+02  5.815995872E+02  1.250000000E+02  0.00000E+00  9.000E+00
       1     1     1     2   501     0  1.239595612E+02  7.760499188E+00  8.333689424E+02  8.425734344E+02  0.000000000E+00  0.00000E+00  9.000E+00
#rwgt            1           1  0.16425753007470978                4      108992           0
</event>
<event>
      5   9999  3.79277E-02  6.68155E+01 -1.00000E+00  1.32253E-01
      21    -1     0     0   502   511  0.000000000E+00  0.000000000E+00  5.328749007E+02  5.328749007E+02  0.000000000E+00  0.00000E+00  9.000E+00
      21    -1     0     0   501   502  0.000000000E+00  0.000000000E+00 -4.646503571E+02  4.646503571E+02  0.000000000E+00  0.00000E+00  9.000E+00
      25     1     1     2     0     0  2.532871384E+02  1.806842160E+01 -9.238120577E+01  2.977249226E+02  1.250000000E+02  0.00000E+00  9.000E+00
      25     1     1     2     0     0 -1.891875646E+02 -3.692463331E+01 -2.171840604E+02  3.161475593E+02  1.250000000E+02  0.00000E+00  9.000E+00
      21     1     1     2   501   511 -6.409957383E+01  1.885621171E+01  3.777898098E+02  3.836527759E+02  5.394796609E-06  0.00000E+00  9.000E+00
#rwgt            1           1   3.9251746246535969E-002           4      109072           0
</event>
<event>
      5   9999  3.79277E-02  1.87847E+01 -1.00000E+00  1.68647E-01
      21    -1     0     0   512   501  0.000000000E+00  0.000000000E+00  2.373255846E+02  2.373255846E+02  0.000000000E+00  0.00000E+00  9.000E+00
      21    -1     0     0   501   502  0.000000000E+00  0.000000000E+00 -1.142559781E+02  1.142559781E+02  0.000000000E+00  0.00000E+00  9.000E+00
      25     1     1     2     0     0 -2.806358793E+01  6.041440898E+01  7.077494402E+01  1.583400091E+02  1.250000000E+02  0.00000E+00  9.000E+00
      25     1     1     2     0     0  1.586267840E+01 -7.469733975E+01  9.831904969E+00  1.468093440E+02  1.250000000E+02  0.00000E+00  9.000E+00
      21     1     1     2   512   502  1.220090953E+01  1.428293078E+01  4.246275760E+01  4.643220960E+01  8.259061849E-07  0.00000E+00  9.000E+00
#rwgt            1           1   7.7127505936521484E-002           4      109134           0
</event>
<event>
      5   9999  3.79277E-02  1.33221E+02 -1.00000E+00  1.18473E-01
      21    -1     0     0   502   501  0.000000000E+00  0.000000000E+00  1.379642985E+03  1.379642985E+03  0.000000000E+00  0.00000E+00  9.000E+00
      21    -1     0     0   501   511  0.000000000E+00  0.000000000E+00 -6.211304833E+01  6.211304833E+01  0.000000000E+00  0.00000E+00  9.000E+00
      25     1     1     2     0     0 -8.506747534E+01  1.237222581E+02  6.236172556E+02  6.535037521E+02  1.250000000E+02  0.00000E+00  9.000E+00
      25     1     1     2     0     0  1.973202300E+02 -5.197933623E+01  4.778940894E+02  5.344575617E+02  1.250000000E+02  0.00000E+00  9.000E+00
      21     1     1     2   502   511 -1.122527546E+02 -7.174292184E+01  2.160185918E+02  2.537947198E+02  3.814697266E-06  0.00000E+00  9.000E+00
#rwgt            1           1   4.0739944408580302E-002           4      109359           0
</event>
<event>
      5   9999  3.79277E-02  8.02625E+01 -1.00000E+00  1.28281E-01
      21    -1     0     0   512   501  0.000000000E+00  0.000000000E+00  4.707337062E+02  4.707337062E+02  0.000000000E+00  0.00000E+00  9.000E+00
      21    -1     0     0   501   502  0.000000000E+00  0.000000000E+00 -5.050782308E+02  5.050782308E+02  0.000000000E+00  0.00000E+00  9.000E+00
      25     1     1     2     0     0 -1.541540389E+01  1.438783249E+02 -1.262703068E+02  2.291457995E+02  1.250000000E+02  0.00000E+00  9.000E+00
      25     1     1     2     0     0  3.160223003E+01 -6.526498794E+01 -3.072306344E+02  3.395200764E+02  1.250000000E+02  0.00000E+00  9.000E+00
      21     1     1     2   512   502 -1.618682613E+01 -7.861333700E+01  3.991564166E+02  4.071460611E+02  5.394796609E-06  0.00000E+00  9.000E+00
#rwgt            1           1   4.8034555696698483E-002           4      109409           0
</event>
<event>
      5   9999  3.79277E-02  7.66274E+00 -1.00000E+00  2.10147E-01
      21    -1     0     0   502   511  0.000000000E+00  0.000000000E+00  2.186561515E+02  2.186561515E+02  0.000000000E+00  0.00000E+00  9.000E+00
      21    -1     0     0   501   502  0.000000000E+00  0.000000000E+00 -1.863400169E+02  1.863400169E+02  0.000000000E+00  0.00000E+00  9.000E+00
      25     1     1     2     0     0  9.838899771E+01 -7.295677355E+01  4.557881917E+01  1.808466600E+02  1.250000000E+02  0.00000E+00  9.000E+00
      25     1     1     2     0     0 -1.011056888E+02  6.579177893E+01 -5.461333811E+01  1.820948522E+02  1.250000000E+02  0.00000E+00  9.000E+00
      21     1     1     2   501   511  2.716691135E+00  7.164994615E+00  4.135065355E+01  4.205465620E+01  4.768371582E-07  0.00000E+00  9.000E+00
#rwgt            1           1   2.0247586249713109E-002           4      109464           0
</event>
<event>
      5   9999  3.79277E-02  1.57969E+01 -1.00000E+00  1.75292E-01
      21    -1     0     0   512   501  0.000000000E+00  0.000000000E+00  2.527882618E+02  2.527882618E+02  0.000000000E+00  0.00000E+00  9.000E+00
      21    -1     0     0   501   502  0.000000000E+00  0.000000000E+00 -1.848950091E+02  1.848950091E+02  0.000000000E+00  0.00000E+00  9.000E+00
      25     1     1     2     0     0 -1.286430002E+02 -1.089073171E+02  8.931530643E+00  2.100347530E+02  1.250000000E+02  0.00000E+00  9.000E+00
      25     1     1     2     0     0  1.137680648E+02  1.142250073E+02  5.633741561E+01  2.116351324E+02  1.250000000E+02  0.00000E+00  9.000E+00
      21     1     1     2   512   502  1.487493539E+01 -5.317690194E+00  2.624306492E+00  1.601338554E+01  2.665600750E-07  0.00000E+00  9.000E+00
#rwgt            1           1   4.6545626411005174E-002           4      109739           0
</event>
<event>
      5   9999  3.79277E-02  3.66172E+01 -1.00000E+00  1.47261E-01
      21    -1     0     0   502   501  0.000000000E+00  0.000000000E+00  1.471963093E+03  1.471963093E+03  0.000000000E+00  0.00000E+00  9.000E+00
       1    -1     0     0   501     0  0.000000000E+00  0.000000000E+00 -5.753797149E+01  5.753797149E+01  0.000000000E+00  0.00000E+00  9.000E+00
      25     1     1     2     0     0 -1.611680896E+01  1.179484270E+02  3.258301184E+02  3.687300490E+02  1.250000000E+02  0.00000E+00  9.000E+00
      25     1     1     2     0     0  4.817431971E+01 -1.002527222E+02  1.107149211E+03  1.119721282E+03  1.250000000E+02  0.00000E+00  9.000E+00
       1     1     1     2   502     0 -3.205751076E+01 -1.769570484E+01 -1.855420827E+01  4.104973337E+01  6.743495762E-07  0.00000E+00  9.000E+00
#rwgt            1           1   5.7709551971432620E-002           4      109957           0
</event>
<event>
      5   9999  3.79277E-02  7.16281E+01 -1.00000E+00  1.30717E-01
      21    -1     0     0   502   501  0.000000000E+00  0.000000000E+00  1.511902959E+02  1.511902959E+02  0.000000000E+00  0.00000E+00  9.000E+00
      21    -1     0     0   511   502  0.000000000E+00  0.000000000E+00 -5.174064408E+02  5.174064408E+02  0.000000000E+00  0.00000E+00  9.000E+00
      25     1     1     2     0     0 -2.994608021E+01  4.734939852E+01  8.083848153E+01  1.590553154E+02  1.250000000E+02  0.00000E+00  9.000E+00
      25     1     1     2     0     0  1.012239416E+02 -4.027488574E+01 -2.511035979E+02  3.009092382E+02  1.250000000E+02  0.00000E+00  9.000E+00
      21     1     1     2   511   501 -7.127786141E+01 -7.074512780E+00 -1.959510285E+02  2.086321832E+02  0.000000000E+00  0.00000E+00  9.000E+00
#rwgt            1           1   3.1675322695456379E-002           4      110149           0
</event>
<event>
      5   9999  3.79277E-02  8.87662E+01 -1.00000E+00  1.26201E-01
      21    -1     0     0   502   512  0.000000000E+00  0.000000000E+00  2.382561726E+02  2.382561726E+02  0.000000000E+00  0.00000E+00  9.000E+00
      21    -1     0     0   501   502  0.000000000E+00  0.000000000E+00 -4.387913123E+02  4.387913123E+02  0.000000000E+00  0.00000E+00  9.000E+00
      25     1     1     2     0     0 -2.438216887E+00  2.388721070E+02  2.764750449E+01  2.710262218E+02  1.250000000E+02  0.00000E+00  9.000E+00
      25     1     1     2     0     0 -6.253660085E+01 -1.783931319E+02 -2.216748775E+02  3.170168565E+02  1.250000000E+02  0.00000E+00  9.000E+00
      21     1     1     2   501   512  6.497481774E+01 -6.047897506E+01 -6.507766686E+00  8.900440659E+01  8.471411707E-07  0.00000E+00  9.000E+00
#rwgt            2          11   3.5289363362035631E-003           4      110293           0
</event>
<event>
      5   9999  3.79277E-02  3.02265E+01 -1.00000E+00  1.52813E-01
      21    -1     0     0   511   501  0.000000000E+00  0.000000000E+00  2.398376228E+02  2.398376228E+02  0.000000000E+00  0.00000E+00  9.000E+00
      21    -1     0     0   501   502  0.000000000E+00  0.000000000E+00 -3.179258103E+02  3.179258103E+02  0.000000000E+00  0.00000E+00  9.000E+00
      25     1     1     2     0     0  2.926715444E+01 -8.878881250E+01 -1.046693121E+02  1.879379803E+02  1.250000000E+02  0.00000E+00  9.000E+00
      25     1     1     2     0     0 -8.476353399E+00  1.107293309E+02 -1.290947714E+02  2.112422621E+02  1.250000000E+02  0.00000E+00  9.000E+00
      21     1     1     2   511   502 -2.079080104E+01 -2.194051844E+01  1.556758960E+02  1.585831907E+02  2.697398305E-06  0.00000E+00  9.000E+00
#rwgt            1           1   2.0222451572806641E-002           4      110313           0
</event>
<event>
      5   9999  3.79277E-02  8.46091E+01 -1.00000E+00  1.27183E-01
      21    -1     0     0   502   501  0.000000000E+00  0.000000000E+00  1.450310014E+02  1.450310014E+02  0.000000000E+00  0.00000E+00  9.000E+00
      21    -1     0     0   501   512  0.000000000E+00  0.000000000E+00 -5.335343178E+02  5.335343178E+02  0.000000000E+00  0.00000E+00  9.000E+00
      25     1     1     2     0     0  1.531742375E+02  1.366292604E+02 -7.117805505E+01  2.506416114E+02  1.250000000E+02  0.00000E+00  9.000E+00
      25     1     1     2     0     0 -7.836608706E+01 -9.710164868E+01 -1.208603196E+02  2.140144636E+02  1.250000000E+02  0.00000E+00  9.000E+00
      21     1     1     2   502   512 -7.480815047E+01 -3.952761167E+01 -1.964649417E+02  2.139092443E+02  3.814697266E-06  0.00000E+00  9.000E+00
#rwgt            1           1   4.5764786876705071E-002           4      110542           0
</event>
<event>
      5   9999  3.79277E-02  1.60911E+02 -1.00000E+00  1.15198E-01
      21    -1     0     0   511   501  0.000000000E+00  0.000000000E+00  3.980965595E+02  3.980965595E+02  0.000000000E+00  0.00000E+00  9.000E+00
      21    -1     0     0   501   502  0.000000000E+00  0.000000000E+00 -5.415786569E+02  5.415786569E+02  0.000000000E+00  0.00000E+00  9.000E+00
      25     1     1     2     0     0  2.419649497E+02  1.606317454E+02 -7.977890312E+01  3.260970222E+02  1.250000000E+02  0.00000E+00  9.000E+00
      25     1     1     2     0     0 -2.680114475E+02 -3.194202161E+02 -1.043132848E+02  4.476222424E+02  1.250000000E+02  0.00000E+00  9.000E+00
      21     1     1     2   511   502  2.604649785E+01  1.587884707E+02  4.061009054E+01  1.659559518E+02  1.846782373E-06  0.00000E+00  9.000E+00
#rwgt            2          11   2.8570912005392943E-003           4      110603           0
</event>
<event>
      5   9999  3.79277E-02  4.47462E+01 -1.00000E+00  1.41883E-01
      21    -1     0     0   502   501  0.000000000E+00  0.000000000E+00  9.043374737E+01  9.043374737E+01  0.000000000E+00  0.00000E+00  9.000E+00
      21    -1     0     0   512   502  0.000000000E+00  0.000000000E+00 -3.548462309E+02  3.548462309E+02  0.000000000E+00  0.00000E+00  9.000E+00
      25     1     1     2     0     0  6.203463869E+01 -3.684376288E+01 -1.315321951E+02  1.952728286E+02  1.250000000E+02  0.00000E+00  9.000E+00
      25     1     1     2     0     0 -9.796473670E+01  1.017453143E+01 -7.255847684E+01  1.749009528E+02  1.250000000E+02  0.00000E+00  9.000E+00
      21     1     1     2   512   501  3.593009801E+01  2.666923145E+01 -6.032181164E+01  7.510619687E+01  6.743495762E-07  0.00000E+00  9.000E+00
#rwgt            1           1   3.1917849530453381E-002           4      110713           0
</event>
<event>
      5   9999  3.79277E-02  1.26281E+02 -1.00000E+00  1.19435E-01
      21    -1     0     0   502   501  0.000000000E+00  0.000000000E+00  4.725560253E+02  4.725560253E+02  0.000000000E+00  0.00000E+00  9.000E+00
      21    -1     0     0   511   502  0.000000000E+00  0.000000000E+00 -3.612723871E+02  3.612723871E+02  0.000000000E+00  0.00000E+00  9.000E+00
      25     1     1     2     0     0 -6.670615458E+01  1.843579725E+02  6.600271022E+00  2.326072584E+02  1.250000000E+02  0.00000E+00  9.000E+00
      25     1     1     2     0     0 -4.951702688E+01 -2.337455422E+02  2.776610644E+02  3.870524269E+02  1.250000000E+02  0.00000E+00  9.000E+00
      21     1     1     2   511   501  1.162231815E+02  4.938756972E+01 -1.729776973E+02  2.141687272E+02  2.697398305E-06  0.00000E+00  9.000E+00
#rwgt            1           1   3.8156704087786993E-002           4      110814           0
</event>
<event>
      5   9999  3.79277E-02  3.77253E+01 -1.00000E+00  1.46435E-01
      21    -1     0     0   502   501  0.000000000E+00  0.000000000E+00  7.043439058E+02  7.043439058E+02  0.000000000E+00  0.00000E+00  9.000E+00
       4    -1     0     0   501     0  0.000000000E+00  0.000000000E+00 -1.351310472E+02  1.351310472E+02  0.000000000E+00  0.00000E+00  9.000E+00
      25     1     1     2     0     0  2.549074093E+02 -9.707843808E+00  2.978929507E+02  4.116275496E+02  1.250000000E+02  0.00000E+00  9.000E+00
      25     1     1     2     0     0 -2.396907797E+02 -2.481246773E+01  2.790822780E+02  3.893317947E+02  1.250000000E+02  0.00000E+00  9.000E+00
       4     1     1     2   502     0 -1.521662957E+01  3.452031154E+01 -7.762370106E+00  3.851560871E+01  9.461944024E-07  0.00000E+00  9.000E+00
#rwgt            1           1   2.5457590307341335E-002           4      110920           0
</event>
<event>
      5   9999  3.79277E-02  7.24233E+01 -1.00000E+00  1.30476E-01
      21    -1     0     0   502   501  0.000000000E+00  0.000000000E+00  5.049199115E+01  5.049199115E+01  0.000000000E+00  0.00000E+00  9.000E+00
      21    -1     0     0   501   511  0.000000000E+00  0.000000000E+00 -1.729686455E+03  1.729686455E+03  0.000000000E+00  0.00000E+00  9.000E+00
      25     1     1     2     0     0 -4.968175315E+01 -2.828187012E+01 -6.237106235E+01  1.509413469E+02  1.250000000E+02  0.00000E+00  9.000E+00
      25     1     1     2     0     0 -2.030288030E+01  9.646111384E+00 -9.373964446E+02  9.459610715E+02  1.250000000E+02  0.00000E+00  9.000E+00
      21     1     1     2   502   511  6.998463345E+01  1.863575873E+01 -6.794269568E+02  6.832760277E+02  1.321449896E-05  0.00000E+00  9.000E+00
#rwgt            2          11   6.9185792908040618E-004           4      111053           0
</event>
<event>
      5   9999  3.79277E-02  2.77113E+02 -1.00000E+00  1.06724E-01
      21    -1     0     0   512   501  0.000000000E+00  0.000000000E+00  3.922098837E+02  3.922098837E+02  0.000000000E+00  0.00000E+00  9.000E+00
      21    -1     0     0   501   502  0.000000000E+00  0.000000000E+00 -7.439759541E+02  7.439759541E+02  0.000000000E+00  0.00000E+00  9.000E+00
      25     1     1     2     0     0 -1.748365489E+02  2.984315607E+02 -1.489507082E+02  3.967877628E+02  1.250000000E+02  0.00000E+00  9.000E+00
      25     1     1     2     0     0  5.716351627E+01 -4.754415288E+01 -3.824394684E+02  4.091614120E+02  1.250000000E+02  0.00000E+00  9.000E+00
      21     1     1     2   512   502  1.176730327E+02 -2.508874078E+02  1.796241062E+02  3.302366630E+02  4.672030912E-06  0.00000E+00  9.000E+00
#rwgt            1           1   3.5929430478229586E-002           4      111118           0
</event>
<event>
      5   9999  3.79277E-02  9.52363E+01 -1.00000E+00  1.24789E-01
      21    -1     0     0   502   501  0.000000000E+00  0.000000000E+00  3.051521140E+02  3.051521140E+02  0.000000000E+00  0.00000E+00  9.000E+00
      21    -1     0     0   501   511  0.000000000E+00  0.000000000E+00 -8.990191981E+02  8.990191981E+02  0.000000000E+00  0.00000E+00  9.000E+00
      25     1     1     2     0     0  1.563366505E+02  3.117393017E+01 -1.315773109E+02  2.415585870E+02  1.250000000E+02  0.00000E+00  9.000E+00
      25     1     1     2     0     0 -2.123071591E+02  4.587961675E+01  1.830135738E+02  3.103195728E+02  1.250000000E+02  0.00000E+00  9.000E+00
      21     1     1     2   502   511  5.597050859E+01 -7.705354692E+01 -6.453033471E+02  6.522931524E+02  0.000000000E+00  0.00000E+00  9.000E+00
#rwgt            1           1   3.2456163435904295E-002           4      111358           0
</event>
<event>
      5   9999  3.79277E-02  3.05177E+01 -1.00000E+00  1.52526E-01
      21    -1     0     0   512   501  0.000000000E+00  0.000000000E+00  3.068089929E+02  3.068089929E+02  0.000000000E+00  0.00000E+00  9.000E+00
      21    -1     0     0   501   502  0.000000000E+00  0.000000000E+00 -3.368967241E+02  3.368967241E+02  0.000000000E+00  0.00000E+00  9.000E+00
      25     1     1     2     0     0  1.888521856E+02 -9.856632546E+01  6.437910348E+01  2.552452497E+02  1.250000000E+02  0.00000E+00  9.000E+00
      25     1     1     2     0     0 -2.180564358E+02  8.970963511E+01 -1.635049311E+02  3.129780988E+02  1.250000000E+02  0.00000E+00  9.000E+00
      21     1     1     2   512   502  2.920425026E+01  8.856690355E+00  6.903809642E+01  7.548236850E+01  1.348699152E-06  0.00000E+00  9.000E+00
#rwgt            1           1   3.6751039684124340E-002           4      111455           0
</event>
<event>
      5   9999  3.79277E-02  3.36492E+01 -1.00000E+00  1.49656E-01
      21    -1     0     0   502   501  0.000000000E+00  0.000000000E+00  7.880253240E+02  7.880253240E+02  0.000000000E+00  0.00000E+00  9.000E+00
       3    -1     0     0   501     0  0.000000000E+00  0.000000000E+00 -2.485135603E+02  2.485135603E+02  0.000000000E+00  0.00000E+00  9.000E+00
      25     1     1     2     0     0  1.278205476E+02 -1.491362631E+02  6.539088835E+02  6.941192586E+02  1.250000000E+02  0.00000E+00  9.000E+00
      25     1     1     2     0     0 -1.311729185E+02  1.156544519E+02  8.372847396E+00  2.151218059E+02  1.250000000E+02  0.00000E+00  9.000E+00
       3     1     1     2   502     0  3.352370909E+00  3.348181116E+01 -1.227699672E+02  1.272978198E+02  1.907348633E-06  0.00000E+00  9.000E+00
#rwgt            1           1   4.2876997403140236E-002           4      111604           0
</event>
<event>
      5   9999  3.79277E-02  2.50182E+01 -1.00000E+00  1.58727E-01
      21    -1     0     0   511   501  0.000000000E+00  0.000000000E+00  4.201898969E+02  4.201898969E+02  0.000000000E+00  0.00000E+00  9.000E+00
      21    -1     0     0   501   502  0.000000000E+00  0.000000000E+00 -6.139971045E+01  6.139971045E+01  0.000000000E+00  0.00000E+00  9.000E+00
      25     1     1     2     0     0 -5.908674183E+01  3.657840802E+01  1.732558867E+02  2.246593538E+02  1.250000000E+02  0.00000E+00  9.000E+00
      25     1     1     2     0     0  5.840977349E+01 -6.158746263E+01  1.457615077E+02  2.099431693E+02  1.250000000E+02  0.00000E+00  9.000E+00
      21     1     1     2   511   502  6.769683412E-01  2.500905460E+01  3.977279214E+01  4.698708432E+01  8.259061849E-07  0.00000E+00  9.000E+00
#rwgt            1           1   8.4271111131418122E-002           4      111825           0
</event>
<event>
      5   9999  3.79277E-02  4.11710E+01 -1.00000E+00  1.44067E-01
      21    -1     0     0   512   501  0.000000000E+00  0.000000000E+00  3.316442579E+02  3.316442579E+02  0.000000000E+00  0.00000E+00  9.000E+00
      21    -1     0     0   501   502  0.000000000E+00  0.000000000E+00 -1.261964535E+03  1.261964535E+03  0.000000000E+00  0.00000E+00  9.000E+00
      25     1     1     2     0     0 -2.569279298E+02 -4.060495830E+01 -1.868978688E+02  3.438263183E+02  1.250000000E+02  0.00000E+00  9.000E+00
      25     1     1     2     0     0  2.882535368E+02  6.732126238E+01 -9.687891792E+02  1.020685910E+03  1.250000000E+02  0.00000E+00  9.000E+00
      21     1     1     2   512   502 -3.132560694E+01 -2.671630409E+01  2.253667707E+02  2.290965646E+02  2.697398305E-06  0.00000E+00  9.000E+00
#rwgt            1           1   1.8832212955925676E-002           4      112038           0
</event>
<event>
      5   9999  3.79277E-02  8.46395E+01 -1.00000E+00  1.27176E-01
      21    -1     0     0   502   511  0.000000000E+00  0.000000000E+00  7.802251525E+02  7.802251525E+02  0.000000000E+00  0.00000E+00  9.000E+00
      21    -1     0     0   501   502  0.000000000E+00  0.000000000E+00 -9.432807799E+01  9.432807799E+01  0.000000000E+00  0.00000E+00  9.000E+00
      25     1     1     2     0     0 -1.596245059E+02 -1.603190400E+02  2.585287696E+02  3.655739353E+02  1.250000000E+02  0.00000E+00  9.000E+00
      25     1     1     2     0     0  8.731005829E+01  1.163364141E+02  2.946681905E+02  3.515843427E+02  1.250000000E+02  0.00000E+00  9.000E+00
      21     1     1     2   501   511  7.231444759E+01  4.398262583E+01  1.327001144E+02  1.573949525E+02  1.907348633E-06  0.00000E+00  9.000E+00
#rwgt            1           1  0.25568431246741569                4      112164           0
</event>
<event>
      5   9999  3.79277E-02  2.46207E+01 -1.00000E+00  1.59250E-01
      21    -1     0     0   512   501  0.000000000E+00  0.000000000E+00  8.927529412E+01  8.927529412E+01  0.000000000E+00  0.00000E+00  9.000E+00
      21    -1     0     0   501   502  0.000000000E+00  0.000000000E+00 -5.667721615E+02  5.667721615E+02  0.000000000E+00  0.00000E+00  9.000E+00
      25     1     1     2     0     0 -9.986483364E+01  1.167410838E+01 -4.156615769E+02  4.455432822E+02  1.250000000E+02  0.00000E+00  9.000E+00
      25     1     1     2     0     0  8.851553587E+01  1.017471987E+01 -8.604454857E+01  1.759749680E+02  1.250000000E+02  0.00000E+00  9.000E+00
      21     1     1     2   512   502  1.134929777E+01 -2.184882825E+01  2.420925805E+01  3.452920548E+01  1.168007728E-06  0.00000E+00  9.000E+00
#rwgt            1           1   3.7286981125390271E-002           4      112244           0
</event>
<event>
      5   9999  3.79277E-02  3.82676E+01 -1.00000E+00  1.46043E-01
      21    -1     0     0   502   501  0.000000000E+00  0.000000000E+00  5.915832802E+02  5.915832802E+02  0.000000000E+00  0.00000E+00  9.000E+00
      21    -1     0     0   501   511  0.000000000E+00  0.000000000E+00 -1.002421743E+02  1.002421743E+02  0.000000000E+00  0.00000E+00  9.000E+00
      25     1     1     2     0     0  1.149887087E+02 -5.232072007E+01  4.529267301E+02  4.865464867E+02  1.250000000E+02  0.00000E+00  9.000E+00
      25     1     1     2     0     0 -7.673754411E+01  5.344134180E+01  5.220008325E+01  1.646039987E+02  1.250000000E+02  0.00000E+00  9.000E+00
      21     1     1     2   502   511 -3.825116458E+01 -1.120621726E+00 -1.378570751E+01  4.067496916E+01  9.830249847E-07  0.00000E+00  9.000E+00
#rwgt            1           1   2.4383904585958988E-002           4      112429           0
</event>
<event>
      5   9999  3.79277E-02  6.73387E+01 -1.00000E+00  1.32079E-01
      21    -1     0     0   502   501  0.000000000E+00  0.000000000E+00  3.183700738E+02  3.183700738E+02  0.000000000E+00  0.00000E+00  9.000E+00
      21    -1     0     0   501   512  0.000000000E+00  0.000000000E+00 -1.662097270E+02  1.662097270E+02  0.000000000E+00  0.00000E+00  9.000E+00
      25     1     1     2     0     0  1.414503288E+02  4.690659347E+01  6.745421749E+00  1.946250876E+02  1.250000000E+02  0.00000E+00  9.000E+00
      25     1     1     2     0     0 -8.081965722E+01 -7.620540129E+01  1.469227716E+02  2.225991487E+02  1.250000000E+02  0.00000E+00  9.000E+00
      21     1     1     2   502   512 -6.063067154E+01  2.929880782E+01 -1.507846478E+00  6.735556453E+01  1.899298990E-06  0.00000E+00  9.000E+00
#rwgt            1           1   4.0894933221787180E-002           4      112517           0
</event>
<event>
      5   9999  3.79277E-02  1.34668E+02 -1.00000E+00  1.18280E-01
       2    -1     0     0   502     0  0.000000000E+00  0.000000000E+00  2.799610609E+02  2.799610609E+02  0.000000000E+00  0.00000E+00  9.000E+00
      21    -1     0     0   501   502  0.000000000E+00  0.000000000E+00 -4.020914588E+02  4.020914588E+02  0.000000000E+00  0.00000E+00  9.000E+00
      25     1     1     2     0     0 -1.635928889E+02  8.718421905E+01 -7.364853400E+01  2.353992946E+02  1.250000000E+02  0.00000E+00  9.000E+00
      25     1     1     2     0     0  1.729744314E+02 -2.215251179E+02 -1.542761264E+01  3.079878943E+02  1.250000000E+02  0.00000E+00  9.000E+00
       2     1     1     2   501     0 -9.381542497E+00  1.343408989E+02 -3.305425121E+01  1.386653308E+02  1.907348633E-06  0.00000E+00  9.000E+00
#rwgt            1           1   1.2964409693157861E-002           4      112623           0
</event>
<event>
      5   9999  3.79277E-02  5.13268E+01 -1.00000E+00  1.38430E-01
      21    -1     0     0   502   501  0.000000000E+00  0.000000000E+00  1.188998562E+03  1.188998562E+03  0.000000000E+00  0.00000E+00  9.000E+00
      21    -1     0     0   511   502  0.000000000E+00  0.000000000E+00 -2.460590136E+02  2.460590136E+02  0.000000000E+00  0.00000E+00  9.000E+00
      25     1     1     2     0     0  8.036572707E+01  1.755179021E+02  9.856463942E+02  1.012121039E+03  1.250000000E+02  0.00000E+00  9.000E+00
      25     1     1     2     0     0 -2.928429362E+01 -1.705054437E+02  1.251408647E+02  2.474164752E+02  1.250000000E+02  0.00000E+00  9.000E+00
      21     1     1     2   511   501 -5.108143344E+01 -5.012458356E+00 -1.678477110E+02  1.755200605E+02  3.814697266E-06  0.00000E+00  9.000E+00
#rwgt            1           1   4.0564022115364459E-002           4      112896           0
</event>
<event>
      5   9999  3.79277E-02  1.06066E+01 -1.00000E+00  1.92846E-01
      21    -1     0     0   502   512  0.000000000E+00  0.000000000E+00  2.219983576E+02  2.219983576E+02  0.000000000E+00  0.00000E+00  9.000E+00
      21    -1     0     0   501   502  0.000000000E+00  0.000000000E+00 -2.965892232E+02  2.965892232E+02  0.000000000E+00  0.00000E+00  9.000E+00
      25     1     1     2     0     0  1.613995917E+02  8.888585120E+01 -1.603889976E+02  2.744087340E+02  1.250000000E+02  0.00000E+00  9.000E+00
      25     1     1     2     0     0 -1.573959629E+02 -7.906384294E+01  7.399137605E+01  2.283074771E+02  1.250000000E+02  0.00000E+00  9.000E+00
      21     1     1     2   501   512 -4.003628835E+00 -9.822008259E+00  1.180675588E+01  1.587136965E+01  0.000000000E+00  0.00000E+00  9.000E+00
#rwgt            1           1   3.1861016915712949E-002           4      113096           0
</event>
<event>
      5   9999  3.79277E-02  1.40734E+01 -1.00000E+00  1.80033E-01
      21    -1     0     0   502   511  0.000000000E+00  0.000000000E+00  4.808394521E+02  4.808394521E+02  0.000000000E+00  0.00000E+00  9.000E+00
      21    -1     0     0   501   502  0.000000000E+00  0.000000000E+00 -1.302824668E+02  1.302824668E+02  0.000000000E+00  0.00000E+00  9.000E+00
      25     1     1     2     0     0 -2.573280172E+01 -1.297545520E+02  7.580735939E-01  1.819999877E+02  1.250000000E+02  0.00000E+00  9.000E+00
      25     1     1     2     0     0  3.765512994E+01  1.372323687E+02  1.885423057E+02  2.672523767E+02  1.250000000E+02  0.00000E+00  9.000E+00
      21     1     1     2   501   511 -1.192232821E+01 -7.477816662E+00  1.612566060E+02  1.618695544E+02  0.000000000E+00  0.00000E+00  9.000E+00
#rwgt            1           1   2.4383052723497809E-002           4      113337           0
</event>
<event>
      5   9999  3.79277E-02  2.51283E+01 -1.00000E+00  1.58585E-01
      21    -1     0     0   502   501  0.000000000E+00  0.000000000E+00  5.789376664E+01  5.789376664E+01  0.000000000E+00  0.00000E+00  9.000E+00
      21    -1     0     0   501   512  0.000000000E+00  0.000000000E+00 -8.088440425E+02  8.088440425E+02  0.000000000E+00  0.00000E+00  9.000E+00
      25     1     1     2     0     0  4.594628140E+01  8.715321105E+01 -3.972172397E+02  4.279173734E+02  1.250000000E+02  0.00000E+00  9.000E+00
      25     1     1     2     0     0 -3.899622497E+01 -1.113012068E+02 -1.347043878E+02  2.183550693E+02  1.250000000E+02  0.00000E+00  9.000E+00
      21     1     1     2   502   512 -6.950056437E+00  2.414799576E+01 -2.190286483E+02  2.204653664E+02  2.697398305E-06  0.00000E+00  9.000E+00
#rwgt            1           1   3.0729573127314995E-002           4      113551           0
</event>
<event>
      5   9999  3.79277E-02  9.54953E+01 -1.00000E+00  1.24735E-01
       3    -1     0     0   502     0  0.000000000E+00  0.000000000E+00  5.553332156E+02  5.553332156E+02  0.000000000E+00  0.00000E+00  9.000E+00
      21    -1     0     0   501   502  0.000000000E+00  0.000000000E+00 -6.064257411E+02  6.064257411E+02  0.000000000E+00  0.00000E+00  9.000E+00
      25     1     1     2     0     0  3.641729099E+00  1.215119436E+02  5.453790564E+01  1.826959162E+02  1.250000000E+02  0.00000E+00  9.000E+00
      25     1     1     2     0     0  7.848908627E+01 -7.278944403E+01 -5.243615702E+02  5.495806548E+02  1.250000000E+02  0.00000E+00  9.000E+00
       3     1     1     2   501     0 -8.213081537E+01 -4.872249959E+01  4.187311390E+02  4.294823857E+02  0.000000000E+00  0.00000E+00  9.000E+00
#rwgt            1           1   2.8307063504843657E-002           4      113775           0
</event>
<event>
      5   9999  3.79277E-02  1.22536E+01 -1.00000E+00  1.86078E-01
      21    -1     0     0   511   501  0.000000000E+00  0.000000000E+00  2.098625541E+02  2.098625541E+02  0.000000000E+00  0.00000E+00  9.000E+00
      21    -1     0     0   501   502  0.000000000E+00  0.000000000E+00 -3.233389595E+02  3.233389595E+02  0.000000000E+00  0.00000E+00  9.000E+00
      25     1     1     2     0     0  3.277611072E+01 -2.051884438E+02  2.421454740E+01  2.436963586E+02  1.250000000E+02  0.00000E+00  9.000E+00
      25     1     1     2     0     0 -3.130801651E+01  1.930231426E+02 -1.464633787E+02  2.744351413E+02  1.250000000E+02  0.00000E+00  9.000E+00
      21     1     1     2   511   502 -1.468094212E+00  1.216530124E+01  8.772425899E+00  1.507001364E+01  2.665600750E-07  0.00000E+00  9.000E+00
#rwgt            1           1   4.0087152456450101E-002           4      113908           0
</event>
<event>
      5   9999  3.79277E-02  1.46149E+02 -1.00000E+00  1.16843E-01
      21    -1     0     0   502   512  0.000000000E+00  0.000000000E+00  1.413897830E+02  1.413897830E+02  0.000000000E+00  0.00000E+00  9.000E+00
      21    -1     0     0   501   502  0.000000000E+00  0.000000000E+00 -1.733601975E+03  1.733601975E+03  0.000000000E+00  0.00000E+00  9.000E+00
      25     1     1     2     0     0 -9.276467002E+01  1.835903686E+02 -3.255625583E+02  4.048786075E+02  1.250000000E+02  0.00000E+00  9.000E+00
      25     1     1     2     0     0  2.345745106E+02 -1.482440090E+02 -1.287052773E+03  1.322547287E+03  1.250000000E+02  0.00000E+00  9.000E+00
      21     1     1     2   501   512 -1.418098406E+02 -3.534635967E+01  2.040313872E+01  1.475658636E+02  3.234066955E-06  0.00000E+00  9.000E+00
#rwgt            1           1   4.1073591878415638E-002           4      114136           0
</event>
<event>
      5   9999  3.79277E-02  8.82224E+00 -1.00000E+00  2.02266E-01
      21    -1     0     0   511   501  0.000000000E+00  0.000000000E+00  2.225778250E+02  2.225778250E+02  0.000000000E+00  0.00000E+00  9.000E+00
      21    -1     0     0   501   502  0.000000000E+00  0.000000000E+00 -5.611000800E+02  5.611000800E+02  0.000000000E+00  0.00000E+00  9.000E+00
      25     1     1     2     0     0  1.612879823E+02  1.856179758E+01 -3.069011034E+02  3.690144182E+02  1.250000000E+02  0.00000E+00  9.000E+00
      25     1     1     2     0     0 -1.679522025E+02 -1.278078807E+01 -1.736834999E+02  2.723274665E+02  1.250000000E+02  0.00000E+00  9.000E+00
      21     1     1     2   511   502  6.664220234E+00 -5.781009508E+00  1.420623483E+02  1.423360204E+02  0.000000000E+00  0.00000E+00  9.000E+00
#rwgt            1           1   4.7071049364612115E-002           4      114271           0
</event>
<event>
      5   9999  3.79277E-02  1.18407E+02 -1.00000E+00  1.20615E-01
      21    -1     0     0   502   501  0.000000000E+00  0.000000000E+00  1.046040035E+02  1.046040035E+02  0.000000000E+00  0.00000E+00  9.000E+00
       1    -1     0     0   501     0  0.000000000E+00  0.000000000E+00 -6.024156565E+02  6.024156565E+02  0.000000000E+00  0.00000E+00  9.000E+00
      25     1     1     2     0     0 -9.880572033E+01 -6.816544783E+00 -3.612966838E+02  3.949295246E+02  1.250000000E+02  0.00000E+00  9.000E+00
      25     1     1     2     0     0  2.431448058E+01  9.885550629E+01 -6.541158176E+01  1.739749411E+02  1.250000000E+02  0.00000E+00  9.000E+00
       1     1     1     2   502     0  7.449123975E+01 -9.203896151E+01 -7.110338746E+01  1.381151945E+02  0.000000000E+00  0.00000E+00  9.000E+00
#rwgt            1           1   4.2693046091031930E-002           4      114502           0
</event>
<event>
      5   9999  3.79277E-02  8.10908E+01 -1.00000E+00  1.28065E-01
      21    -1     0     0   502   511  0.000000000E+00  0.000000000E+00  8.042034211E+01  8.042034211E+01  0.000000000E+00  0.00000E+00  9.000E+00
      21    -1     0     0   501   502  0.000000000E+00  0.000000000E+00 -7.996822665E+02  7.996822665E+02  0.000000000E+00  0.00000E+00  9.000E+00
      25     1     1     2     0     0  1.517930746E+02  9.043898599E+01 -4.439834736E+02  4.939298255E+02  1.250000000E+02  0.00000E+00  9.000E+00
      25     1     1     2     0     0 -8.425033132E+01 -4.556473446E+01 -2.595244698E+02  3.035658310E+02  1.250000000E+02  0.00000E+00  9.000E+00
      21     1     1     2   501   511 -6.754274325E+01 -4.487425154E+01 -1.575398102E+01  8.260695210E+01  1.854461334E-06  0.00000E+00  9.000E+00
#rwgt            2          11   1.7257373167891240E-003           4      114584           0
</event>
<event>
      5   9999  3.79277E-02  4.86226E+01 -1.00000E+00  1.39771E-01
      21    -1     0     0   502   512  0.000000000E+00  0.000000000E+00  1.763288384E+02  1.763288384E+02  0.000000000E+00  0.00000E+00  9.000E+00
      21    -1     0     0   501   502  0.000000000E+00  0.000000000E+00 -3.021629551E+02  3.021629551E+02  0.000000000E+00  0.00000E+00  9.000E+00
      25     1     1     2     0     0 -1.492351431E+02  9.542947226E+01 -4.818649212E+01  2.220919858E+02  1.250000000E+02  0.00000E+00  9.000E+00
      25     1     1     2     0     0  1.203829699E+02 -5.629244301E+01 -9.382568395E+01  2.051564222E+02  1.250000000E+02  0.00000E+00  9.000E+00
      21     1     1     2   501   512  2.885217322E+01 -3.913702925E+01  1.617805940E+01  5.124338556E+01  9.536743164E-07  0.00000E+00  9.000E+00
#rwgt            1           1   3.5629705338383090E-002           4      114724           0
</event>
<event>
      5   9999  3.79277E-02  1.92533E+02 -1.00000E+00  1.12253E-01
       2    -1     0     0   502     0  0.000000000E+00  0.000000000E+00  3.169432019E+02  3.169432019E+02  0.000000000E+00  0.00000E+00  9.000E+00
      21    -1     0     0   501   502  0.000000000E+00  0.000000000E+00 -4.008380899E+02  4.008380899E+02  0.000000000E+00  0.00000E+00  9.000E+00
      25     1     1     2     0     0 -9.909529819E+01 -5.695726479E+01 -1.872465049E+01  1.704101542E+02  1.250000000E+02  0.00000E+00  9.000E+00
      25     1     1     2     0     0  1.492583430E+02 -1.289259342E+02 -2.039510253E+02  3.100338210E+02  1.250000000E+02  0.00000E+00  9.000E+00
       2     1     1     2   501     0 -5.016304481E+01  1.858831990E+02  1.387807878E+02  2.373373165E+02  2.697398305E-06  0.00000E+00  9.000E+00
#rwgt            1           1   3.0384929143455041E-002           4      114822           0
</event>
<event>
      5   9999  3.79277E-02  4.67765E+00 -1.00000E+00  2.48420E-01
      21    -1     0     0   502   501  0.000000000E+00  0.000000000E+00  2.672676213E+02  2.672676213E+02  0.000000000E+00  0.00000E+00  9.000E+00
      21    -1     0     0   511   502  0.000000000E+00  0.000000000E+00 -1.070412226E+02  1.070412226E+02  0.000000000E+00  0.00000E+00  9.000E+00
      25     1     1     2     0     0 -9.372413875E+01 -3.896423970E+01  5.159812286E+01  1.690851633E+02  1.250000000E+02  0.00000E+00  9.000E+00
      25     1     1     2     0     0  9.798847932E+01  4.088669391E+01  1.127206310E+02  1.990085538E+02  1.250000000E+02  0.00000E+00  9.000E+00
      21     1     1     2   511   501 -4.264340575E+00 -1.922454206E+00 -4.092355223E+00  6.215126868E+00  1.332800375E-07  0.00000E+00  9.000E+00
#rwgt            1           1   4.0220864190686191E-002           4      114939           0
</event>
<event>
      5   9999  3.79277E-02  2.43930E+01 -1.00000E+00  1.59555E-01
      21    -1     0     0   512   501  0.000000000E+00  0.000000000E+00  2.993814137E+02  2.993814137E+02  0.000000000E+00  0.00000E+00  9.000E+00
      21    -1     0     0   501   502  0.000000000E+00  0.000000000E+00 -3.023839474E+02  3.023839474E+02  0.000000000E+00  0.00000E+00  9.000E+00
      25     1     1     2     0     0 -1.580599818E+02 -2.184404605E+02 -3.337303937E+01  2.990617869E+02  1.250000000E+02  0.00000E+00  9.000E+00
      25     1     1     2     0     0  1.510501103E+02  1.950764242E+02  2.484539052E+01  2.776927088E+02  1.250000000E+02  0.00000E+00  9.000E+00
      21     1     1     2   512   502  7.009871515E+00  2.336403629E+01  5.525115217E+00  2.501086541E+01  3.424026159E-07  0.00000E+00  9.000E+00
#rwgt            1           1  0.13378465204823245                4      115283           0
</event>
<event>
      5   9999  3.79277E-02  2.37984E+01 -1.00000E+00  1.60370E-01
      21    -1     0     0   511   501  0.000000000E+00  0.000000000E+00  2.507705008E+02  2.507705008E+02  0.000000000E+00  0.00000E+00  9.000E+00
      21    -1     0     0   501   502  0.000000000E+00  0.000000000E+00 -1.346107635E+03  1.346107635E+03  0.000000000E+00  0.00000E+00  9.000E+00
      25     1     1     2     0     0 -1.119649784E+01 -5.534272735E+01 -3.320025386E+02  3.592198000E+02  1.250000000E+02  0.00000E+00  9.000E+00
      25     1     1     2     0     0 -1.258767310E+01  5.616591589E+01 -9.951522309E+02  1.004622328E+03  1.250000000E+02  0.00000E+00  9.000E+00
      21     1     1     2   511   502  2.378417095E+01 -8.231885338E-01  2.318176357E+02  2.330360072E+02  8.946258087E-06  0.00000E+00  9.000E+00
#rwgt            1           1   4.2132006654635026E-002           4      115427           0
</event>
<event>
      5   9999  3.79277E-02  3.93023E+01 -1.00000E+00  1.45316E-01
      21    -1     0     0   512   501  0.000000000E+00  0.000000000E+00  1.954201209E+02  1.954201209E+02  0.000000000E+00  0.00000E+00  9.000E+00
      21    -1     0     0   501   502  0.000000000E+00  0.000000000E+00 -2.485425557E+02  2.485425557E+02  0.000000000E+00  0.00000E+00  9.000E+00
      25     1     1     2     0     0  1.014913188E+02 -8.937309351E+01 -4.597433418E+01  1.898069467E+02  1.250000000E+02  0.00000E+00  9.000E+00
      25     1     1     2     0     0 -1.324701895E+02  1.135595102E+02 -3.264521708E+00  2.146619914E+02  1.250000000E+02  0.00000E+00  9.000E+00
      21     1     1     2   512   502  3.097887070E+01 -2.418641674E+01 -3.883578942E+00  3.949373836E+01  2.563692709E-07  0.00000E+00  9.000E+00
#rwgt            1           1   8.7456057364519627E-002           4      115599           0
</event>
<event>
      5   9999  3.79277E-02  4.83274E+01 -1.00000E+00  1.39924E-01
      21    -1     0     0   502   511  0.000000000E+00  0.000000000E+00  9.673213596E+01  9.673213596E+01  0.000000000E+00  0.00000E+00  9.000E+00
      21    -1     0     0   501   502  0.000000000E+00  0.000000000E+00 -6.535268128E+02  6.535268128E+02  0.000000000E+00  0.00000E+00  9.000E+00
      25     1     1     2     0     0  8.002588370E+01 -1.528699547E+02 -4.207790291E+02  4.716496119E+02  1.250000000E+02  0.00000E+00  9.000E+00
      25     1     1     2     0     0 -9.916813695E+01  1.084953126E+02 -1.220175825E+02  2.282955161E+02  1.250000000E+02  0.00000E+00  9.000E+00
      21     1     1     2   501   511  1.914225324E+01  4.437464218E+01 -1.399806527E+01  5.031382075E+01  6.951036328E-07  0.00000E+00  9.000E+00
#rwgt            1           1   3.1130495622168533E-002           4      115724           0
</event>
<event>
      5   9999  3.79277E-02  1.43452E+02 -1.00000E+00  1.17167E-01
      21    -1     0     0   502   501  0.000000000E+00  0.000000000E+00  2.476679285E+02  2.476679285E+02  0.000000000E+00  0.00000E+00  9.000E+00
      21    -1     0     0   512   502  0.000000000E+00  0.000000000E+00 -5.285240360E+02  5.285240360E+02  0.000000000E+00  0.00000E+00  9.000E+00
      25     1     1     2     0     0 -2.046803686E+02  1.040309824E+02 -2.107375037E+02  3.357853393E+02  1.250000000E+02  0.00000E+00  9.000E+00
      25     1     1     2     0     0  1.064877421E+02  5.479182769E-01  1.191745665E+02  2.028977987E+02  1.250000000E+02  0.00000E+00  9.000E+00
      21     1     1     2   512   501  9.819262646E+01 -1.045789007E+02 -1.892931702E+02  2.375088265E+02  0.000000000E+00  0.00000E+00  9.000E+00
#rwgt            1           1   3.8970481700542285E-002           4      115812           0
</event>
<event>
      5   9999  3.79277E-02  4.65515E+01 -1.00000E+00  1.40870E-01
      21    -1     0     0   511   501  0.000000000E+00  0.000000000E+00  3.295938251E+02  3.295938251E+02  0.000000000E+00  0.00000E+00  9.000E+00
      21    -1     0     0   501   502  0.000000000E+00  0.000000000E+00 -2.231695039E+02  2.231695039E+02  0.000000000E+00  0.00000E+00  9.000E+00
      25     1     1     2     0     0  2.542019500E+01  1.587047429E+02  9.927561959E+01  2.265260037E+02  1.250000000E+02  0.00000E+00  9.000E+00
      25     1     1     2     0     0  3.284955697E+00 -1.220570617E+02 -1.056605682E+02  2.042005703E+02  1.250000000E+02  0.00000E+00  9.000E+00
      21     1     1     2   511   502 -2.870515070E+01 -3.664768118E+01  1.128092699E+02  1.220367550E+02  1.907348633E-06  0.00000E+00  9.000E+00
#rwgt            1           1   2.8911259887162845E-002           4      115892           0
</event>
<event>
      5   9999  3.79277E-02  1.07342E+01 -1.00000E+00  1.92266E-01
      21    -1     0     0   502   501  0.000000000E+00  0.000000000E+00  1.736670769E+03  1.736670769E+03  0.000000000E+00  0.00000E+00  9.000E+00
      21    -1     0     0   501   512  0.000000000E+00  0.000000000E+00 -2.408810749E+01  2.408810749E+01  0.000000000E+00  0.00000E+00  9.000E+00
      25     1     1     2     0     0  1.404305262E+02  4.306627702E+01  1.085540945E+03  1.102542326E+03  1.250000000E+02  0.00000E+00  9.000E+00
      25     1     1     2     0     0 -1.385165608E+02 -3.250412255E+01  5.964496848E+02  6.257959588E+02  1.250000000E+02  0.00000E+00  9.000E+00
      21     1     1     2   502   512 -1.913965486E+00 -1.056215447E+01  3.059203132E+01  3.242059147E+01  5.840038640E-07  0.00000E+00  9.000E+00
#rwgt            1           1   6.9144921199358861E-002           4      115999           0
</event>
<event>
      5   9999  3.79277E-02  1.30461E+02 -1.00000E+00  1.18847E-01
      21    -1     0     0   511   501  0.000000000E+00  0.000000000E+00  2.341403642E+02  2.341403642E+02  0.000000000E+00  0.00000E+00  9.000E+00
      21    -1     0     0   501   502  0.000000000E+00  0.000000000E+00 -4.258899220E+02  4.258899220E+02  0.000000000E+00  0.00000E+00  9.000E+00
      25     1     1     2     0     0 -1.733888744E+02 -1.274951178E+02 -5.145879028E+01  2.541489994E+02  1.250000000E+02  0.00000E+00  9.000E+00
      25     1     1     2     0     0  9.096307671E+01  2.637058726E+01 -2.067239667E+02  2.594792624E+02  1.250000000E+02  0.00000E+00  9.000E+00
      21     1     1     2   511   502  8.242579770E+01  1.011245305E+02  6.643319918E+01  1.464020244E+02  0.000000000E+00  0.00000E+00  9.000E+00
#rwgt            1           1   3.0293195716523672E-002           4      116281           0
</event>
<event>
      5   9999  3.79277E-02  3.60387E+01 -1.00000E+00  1.47706E-01
      21    -1     0     0   502   501  0.000000000E+00  0.000000000E+00  1.567454329E+02  1.567454329E+02  0.000000000E+00  0.00000E+00  9.000E+00
      21    -1     0     0   501   512  0.000000000E+00  0.000000000E+00 -3.809848241E+02  3.809848241E+02  0.000000000E+00  0.00000E+00  9.000E+00
      25     1     1     2     0     0  1.173269226E+02 -2.760503958E+01 -2.794846525E+02  3.290354327E+02  1.250000000E+02  0.00000E+00  9.000E+00
      25     1     1     2     0     0 -8.137207401E+01  2.514764004E+01  7.364228597E+01  1.682319961E+02  1.250000000E+02  0.00000E+00  9.000E+00
      21     1     1     2   502   512 -3.595484864E+01  2.457399539E+00 -1.839702471E+01  4.046282827E+01  7.152557373E-07  0.00000E+00  9.000E+00
#rwgt            1           1   3.8602393685636213E-002           4      116463           0
</event>
<event>
      5   9999  3.79277E-02  7.47726E+01 -1.00000E+00  1.29786E-01
      21    -1     0     0   502   501  0.000000000E+00  0.000000000E+00  7.427686171E+02  7.427686171E+02  0.000000000E+00  0.00000E+00  9.000E+00
      21    -1     0     0   501   511  0.000000000E+00  0.000000000E+00 -9.951235458E+01  9.951235458E+01  0.000000000E+00  0.00000E+00  9.000E+00
      25     1     1     2     0     0 -1.610635943E+02 -9.673951567E+00  9.636060318E+01  2.257109492E+02  1.250000000E+02  0.00000E+00  9.000E+00
      25     1     1     2     0     0  1.447263186E+02 -6.329208542E+01  4.584537111E+02  5.007558293E+02  1.250000000E+02  0.00000E+00  9.000E+00
      21     1     1     2   502   511  1.633727564E+01  7.296603699E+01  8.844194824E+01  1.158141932E+02  1.348699152E-06  0.00000E+00  9.000E+00
#rwgt            1           1   3.5962387151320406E-002           4      116612           0
</event>
<event>
      5   9999  3.79277E-02  1.69707E+01 -1.00000E+00  1.72478E-01
      21    -1     0     0   512   501  0.000000000E+00  0.000000000E+00  1.268445193E+02  1.268445193E+02  0.000000000E+00  0.00000E+00  9.000E+00
      21    -1     0     0   501   502  0.000000000E+00  0.000000000E+00 -1.074647172E+03  1.074647172E+03  0.000000000E+00  0.00000E+00  9.000E+00
      25     1     1     2     0     0  2.982240221E+02  2.147413919E+01 -6.043822835E+02  6.857854260E+02  1.250000000E+02  0.00000E+00  9.000E+00
      25     1     1     2     0     0 -2.943406800E+02 -4.953687510E+00 -3.669065476E+02  4.867303048E+02  1.250000000E+02  0.00000E+00  9.000E+00
      21     1     1     2   512   502 -3.883342060E+00 -1.652045169E+01  2.348617874E+01  2.897596006E+01  3.371747881E-07  0.00000E+00  9.000E+00
#rwgt            1           1   3.8199644337003597E-002           4      116886           0
</event>
<event>
      5   9999  3.79277E-02  1.31086E+01 -1.00000E+00  1.83081E-01
      21    -1     0     0   502   501  0.000000000E+00  0.000000000E+00  4.173783605E+02  4.173783605E+02  0.000000000E+00  0.00000E+00  9.000E+00
      21    -1     0     0   501   511  0.000000000E+00  0.000000000E+00 -1.151807948E+02  1.151807948E+02  0.000000000E+00  0.00000E+00  9.000E+00
      25     1     1     2     0     0  1.882599227E+01  1.234597728E+02  2.459737370E+01  1.784005725E+02  1.250000000E+02  0.00000E+00  9.000E+00
      25     1     1     2     0     0 -5.941520274E+00 -1.210458801E+02  2.885978240E+02  3.370476387E+02  1.250000000E+02  0.00000E+00  9.000E+00
      21     1     1     2   502   511 -1.288447200E+01 -2.413892663E+00 -1.099763201E+01  1.711094405E+01  4.129530925E-07  0.00000E+00  9.000E+00
#rwgt            1           1   4.0496106224088307E-002           4      117084           0
</event>
<event>
      5   9999  3.79277E-02  2.65410E+01 -1.00000E+00  1.56829E-01
      21    -1     0     0   502   512  0.000000000E+00  0.000000000E+00  1.117298724E+02  1.117298724E+02  0.000000000E+00  0.00000E+00  9.000E+00
      21    -1     0     0   501   502  0.000000000E+00  0.000000000E+00 -2.624243215E+02  2.624243215E+02  0.000000000E+00  0.00000E+00  9.000E+00
      25     1     1     2     0     0  1.322875940E+01 -3.835381362E+01 -1.727273112E+02  2.170385660E+02  1.250000000E+02  0.00000E+00  9.000E+00
      25     1     1     2     0     0 -1.608250392E+01  1.196665429E+01  2.857099167E+01  1.297811593E+02  1.250000000E+02  0.00000E+00  9.000E+00
      21     1     1     2   501   512  2.853744515E+00  2.638715933E+01 -6.538129517E+00  2.733446859E+01  2.665600750E-07  0.00000E+00  9.000E+00
#rwgt            1           1   4.4759501203932905E-002           4      117336           0
</event>
<event>
      5   9999  3.79277E-02  1.86443E+01 -1.00000E+00  1.68924E-01
      21    -1     0     0   502   501  0.000000000E+00  0.000000000E+00  2.198917288E+03  2.198917288E+03  0.000000000E+00  0.00000E+00  9.000E+00
      21    -1     0     0   511   502  0.000000000E+00  0.000000000E+00 -4.860916860E+01  4.860916860E+01  0.000000000E+00  0.00000E+00  9.000E+00
      25     1     1     2     0     0  1.006541316E+02  1.930007015E+01  1.985088890E+03  1.991659270E+03  1.250000000E+02  0.00000E+00  9.000E+00
      25     1     1     2     0     0 -1.108868884E+02 -3.714802907E+00  1.680447525E+02  2.370100011E+02  1.250000000E+02  0.00000E+00  9.000E+00
      21     1     1     2   511   501  1.023275673E+01 -1.558526725E+01 -2.825523007E+00  1.885718552E+01  1.028935701E-06  0.00000E+00  9.000E+00
#rwgt            1           1  0.11559532862939681                4      117447           0
</event>
<event>
      5   9999  3.79277E-02  1.41025E+02 -1.00000E+00  1.17466E-01
      21    -1     0     0   502   501  0.000000000E+00  0.000000000E+00  9.963101332E+01  9.963101332E+01  0.000000000E+00  0.00000E+00  9.000E+00
      21    -1     0     0   501   512  0.000000000E+00  0.000000000E+00 -7.488818060E+02  7.488818060E+02  0.000000000E+00  0.00000E+00  9.000E+00
      25     1     1     2     0     0 -2.064829222E+02  6.616949962E+01 -2.594032769E+02  3.604561830E+02  1.250000000E+02  0.00000E+00  9.000E+00
      25     1     1     2     0     0  6.572865141E+01 -5.743116830E+01 -1.948320448E+02  2.473926442E+02  1.250000000E+02  0.00000E+00  9.000E+00
      21     1     1     2   502   512  1.407542708E+02 -8.738331324E+00 -1.950154710E+02  2.406639921E+02  4.672030912E-06  0.00000E+00  9.000E+00
#rwgt            1           1   4.3444025546329729E-002           4      117685           0
</event>
<event>
      5   9999  3.79277E-02  4.73516E+01 -1.00000E+00  1.40438E-01
      21    -1     0     0   502   511  0.000000000E+00  0.000000000E+00  2.552754485E+02  2.552754485E+02  0.000000000E+00  0.00000E+00  9.000E+00
      21    -1     0     0   501   502  0.000000000E+00  0.000000000E+00 -5.308081492E+02  5.308081492E+02  0.000000000E+00  0.00000E+00  9.000E+00
      25     1     1     2     0     0  1.150325666E+02 -1.584414372E+02 -2.119534084E+01  2.332604186E+02  1.250000000E+02  0.00000E+00  9.000E+00
      25     1     1     2     0     0 -1.517614085E+02  1.285555992E+02 -3.640880064E+02  4.332933689E+02  1.250000000E+02  0.00000E+00  9.000E+00
      21     1     1     2   501   511  3.672884190E+01  2.988583800E+01  1.097506464E+02  1.195298102E+02  1.348699152E-06  0.00000E+00  9.000E+00
#rwgt            2          11   1.2183466266333437E-003           4      117727           0
</event>
<event>
      5   9999  3.79277E-02  7.68583E+01 -1.00000E+00  1.29197E-01
      21    -1     0     0   502   501  0.000000000E+00  0.000000000E+00  7.417901693E+02  7.417901693E+02  0.000000000E+00  0.00000E+00  9.000E+00
      21    -1     0     0   512   502  0.000000000E+00  0.000000000E+00 -2.865982536E+03  2.865982536E+03  0.000000000E+00  0.00000E+00  9.000E+00
      25     1     1     2     0     0 -7.292557071E+01 -6.795475970E+01  5.651895601E+02  5.873671996E+02  1.250000000E+02  0.00000E+00  9.000E+00
      25     1     1     2     0     0  1.949552672E+01  1.232035920E+02  1.177329393E+02  2.122386526E+02  1.250000000E+02  0.00000E+00  9.000E+00
      21     1     1     2   512   501  5.343004400E+01 -5.524883231E+01 -2.807114866E+03  2.808166853E+03  5.285799584E-05  0.00000E+00  9.000E+00
#rwgt            1           1   5.6958324914658270E-002           4      117762           0
</event>
<event>
      5   9999  3.79277E-02  2.90998E+01 -1.00000E+00  1.53964E-01
      21    -1     0     0   502   501  0.000000000E+00  0.000000000E+00  1.996392459E+02  1.996392459E+02  0.000000000E+00  0.00000E+00  9.000E+00
      21    -1     0     0   511   502  0.000000000E+00  0.000000000E+00 -2.893787328E+02  2.893787328E+02  0.000000000E+00  0.00000E+00  9.000E+00
      25     1     1     2     0     0  7.749270110E+01  3.736699506E+01  1.257791709E+02  1.970959433E+02  1.250000000E+02  0.00000E+00  9.000E+00
      25     1     1     2     0     0 -9.117185177E+01 -6.305126698E+01 -1.740259804E+02  2.412422241E+02  1.250000000E+02  0.00000E+00  9.000E+00
      21     1     1     2   511   501  1.367915067E+01  2.568427192E+01 -4.149267739E+01  5.067981120E+01  9.536743164E-07  0.00000E+00  9.000E+00
#rwgt            1           1   4.9505199096275106E-002           4      118112           0
</event>
<event>
      5   9999  3.79277E-02  8.93609E+01 -1.00000E+00  1.26066E-01
      21    -1     0     0   512   501  0.000000000E+00  0.000000000E+00  2.265069053E+02  2.265069053E+02  0.000000000E+00  0.00000E+00  9.000E+00
      21    -1     0     0   501   502  0.000000000E+00  0.000000000E+00 -5.602375665E+02  5.602375665E+02  0.000000000E+00  0.00000E+00  9.000E+00
      25     1     1     2     0     0  1.596800003E+02  2.506873749E+02 -2.677987774E+02  4.191456162E+02  1.250000000E+02  0.00000E+00  9.000E+00
      25     1     1     2     0     0 -8.679350565E+01 -1.989869622E+02 -1.029985011E+02  2.708553396E+02  1.250000000E+02  0.00000E+00  9.000E+00
      21     1     1     2   512   502 -7.288649464E+01 -5.170041268E+01  3.706661730E+01  9.674351601E+01  1.719260824E-06  0.00000E+00  9.000E+00
#rwgt            1           1   3.5151829698237352E-002           4      118263           0
</event>
<event>
      5   9999  3.79277E-02  4.38626E+01 -1.00000E+00  1.42400E-01
      -1    -1     0     0     0   501  0.000000000E+00  0.000000000E+00  1.065132274E+03  1.065132274E+03  0.000000000E+00  0.00000E+00  9.000E+00
      21    -1     0     0   501   502  0.000000000E+00  0.000000000E+00 -9.704884042E+01  9.704884042E+01  0.000000000E+00  0.00000E+00  9.000E+00
      25     1     1     2     0     0  8.627736857E+01  9.326776391E+01  3.002754279E+02  3.491890501E+02  1.250000000E+02  0.00000E+00  9.000E+00
      25     1     1     2     0     0 -5.440645565E+01 -6.313191993E+01  6.651994899E+00  1.503826811E+02  1.250000000E+02  0.00000E+00  9.000E+00
      -1     1     1     2     0   502 -3.187091292E+01 -3.013584398E+01  6.611560111E+02  6.626093836E+02  1.321449896E-05  0.00000E+00  9.000E+00
#rwgt            1           1   4.0066552609519315E-002           4      118327           0
</event>
<event>
      5   9999  3.79277E-02  2.35258E+01 -1.00000E+00  1.60754E-01
      21    -1     0     0   502   501  0.000000000E+00  0.000000000E+00  3.670409143E+02  3.670409143E+02  0.000000000E+00  0.00000E+00  9.000E+00
       1    -1     0     0   501     0  0.000000000E+00  0.000000000E+00 -4.682019045E+02  4.682019045E+02  0.000000000E+00  0.00000E+00  9.000E+00
      25     1     1     2     0     0 -1.288946394E+02 -7.917979089E+01  2.224342629E+02  2.966231088E+02  1.250000000E+02  0.00000E+00  9.000E+00
      25     1     1     2     0     0  1.302392640E+02  5.569241238E+01  2.381816678E+01  1.904106503E+02  1.250000000E+02  0.00000E+00  9.000E+00
       1     1     1     2   502     0 -1.344624523E+00  2.348737852E+01 -3.474134199E+02  3.482090597E+02  3.814697266E-06  0.00000E+00  9.000E+00
#rwgt            1           1   3.7705845151984385E-002           4      118482           0
</event>
<event>
      5   9999  3.79277E-02  1.74719E+01 -1.00000E+00  1.71362E-01
      21    -1     0     0   502   501  0.000000000E+00  0.000000000E+00  1.012170163E+03  1.012170163E+03  0.000000000E+00  0.00000E+00  9.000E+00
      21    -1     0     0   511   502  0.000000000E+00  0.000000000E+00 -4.642723315E+01  4.642723315E+01  0.000000000E+00  0.00000E+00  9.000E+00
      25     1     1     2     0     0 -1.340761285E+02 -1.276873828E+01  7.192967109E+02  7.423962603E+02  1.250000000E+02  0.00000E+00  9.000E+00
      25     1     1     2     0     0  1.267665086E+02  2.863809402E+01  2.192436786E+02  2.838708839E+02  1.250000000E+02  0.00000E+00  9.000E+00
      21     1     1     2   511   501  7.309619898E+00 -1.586935574E+01  2.720254041E+01  3.233025208E+01  7.539457465E-07  0.00000E+00  9.000E+00
#rwgt            1           1   4.9559339869875367E-002           4      118852           0
</event>
<event>
      5   9999  3.79277E-02  6.09686E+01 -1.00000E+00  1.34333E-01
      21    -1     0     0   502   501  0.000000000E+00  0.000000000E+00  6.704713245E+02  6.704713245E+02  0.000000000E+00  0.00000E+00  9.000E+00
       2    -1     0     0   501     0  0.000000000E+00  0.000000000E+00 -1.142471223E+03  1.142471223E+03  0.000000000E+00  0.00000E+00  9.000E+00
      25     1     1     2     0     0  1.680874836E+02 -1.276732861E+01  1.602418012E+02  2.640432572E+02  1.250000000E+02  0.00000E+00  9.000E+00
      25     1     1     2     0     0 -1.424884953E+02  6.810147725E+01  4.352899155E+02  4.796280778E+02  1.250000000E+02  0.00000E+00  9.000E+00
       2     1     1     2   502     0 -2.559898832E+01 -5.533414864E+01 -1.067531615E+03  1.069271212E+03  0.000000000E+00  0.00000E+00  9.000E+00
#rwgt            1           1   3.8285843699275637E-002           4      119035           0
</event>
<event>
      5   9999  3.79277E-02  7.16579E+01 -1.00000E+00  1.30708E-01
      21    -1     0     0   502   501  0.000000000E+00  0.000000000E+00  2.561046153E+02  2.561046153E+02  0.000000000E+00  0.00000E+00  9.000E+00
      21    -1     0     0   501   511  0.000000000E+00  0.000000000E+00 -2.713607966E+02  2.713607966E+02  0.000000000E+00  0.00000E+00  9.000E+00
      25     1     1     2     0     0  1.184234112E+02 -1.386436221E+02 -2.148422090E+01  2.221097252E+02  1.250000000E+02  0.00000E+00  9.000E+00
      25     1     1     2     0     0 -4.759396271E+01  1.277787362E+02  8.086959986E+01  2.018848258E+02  1.250000000E+02  0.00000E+00  9.000E+00
      21     1     1     2   502   511 -7.082944850E+01  1.086488593E+01 -7.464156031E+01  1.034708609E+02  9.536743164E-07  0.00000E+00  9.000E+00
#rwgt            1           1   4.1918339914011692E-002           4      119098           0
</event>
<event>
      5   9999  3.79277E-02  7.32976E+01 -1.00000E+00  1.30216E-01
       2    -1     0     0   502     0  0.000000000E+00  0.000000000E+00  1.527722896E+02  1.527722896E+02  0.000000000E+00  0.00000E+00  9.000E+00
      21    -1     0     0   501   502  0.000000000E+00  0.000000000E+00 -3.378760629E+02  3.378760629E+02  0.000000000E+00  0.00000E+00  9.000E+00
      25     1     1     2     0     0 -1.371598652E+02  1.659688143E+01 -1.042227340E+02  2.134845741E+02  1.250000000E+02  0.00000E+00  9.000E+00
      25     1     1     2     0     0  6.458588258E+01 -6.322938752E+00 -1.277616586E+02  1.901561390E+02  1.250000000E+02  0.00000E+00  9.000E+00
       2     1     1     2   501     0  7.257398267E+01 -1.027394267E+01  4.688061924E+01  8.700763943E+01  1.784161275E-06  0.00000E+00  9.000E+00
#rwgt            1           1   3.8422835995287410E-002           4      119551           0
</event>
<event>
      5   9999  3.79277E-02  5.16559E+01 -1.00000E+00  1.38273E-01
      21    -1     0     0   502   501  0.000000000E+00  0.000000000E+00  2.147837723E+03  2.147837723E+03  0.000000000E+00  0.00000E+00  9.000E+00
      -3    -1     0     0     0   502  0.000000000E+00  0.000000000E+00 -1.175139031E+03  1.175139031E+03  0.000000000E+00  0.00000E+00  9.000E+00
      25     1     1     2     0     0  2.278671537E+02  7.455228295E+01  1.738674233E+03  1.759572269E+03  1.250000000E+02  0.00000E+00  9.000E+00
      25     1     1     2     0     0 -2.759374233E+02 -9.346211337E+01  3.349970062E+02  4.612207957E+02  1.250000000E+02  0.00000E+00  9.000E+00
      -3     1     1     2     0   501  4.807026961E+01  1.890983042E+01 -1.100972547E+03  1.102183688E+03  2.642899792E-05  0.00000E+00  9.000E+00
#rwgt            1           1   4.8830655377200050E-002           4      119777           0
</event>
<event>
      5   9999  3.79277E-02  3.54552E+01 -1.00000E+00  1.48165E-01
      21    -1     0     0   502   501  0.000000000E+00  0.000000000E+00  3.315642366E+02  3.315642366E+02  0.000000000E+00  0.00000E+00  9.000E+00
      21    -1     0     0   511   502  0.000000000E+00  0.000000000E+00 -2.045244330E+02  2.045244330E+02  0.000000000E+00  0.00000E+00  9.000E+00
      25     1     1     2     0     0  2.039677019E+02  2.663065925E+01  9.458094937E+01  2.586166495E+02  1.250000000E+02  0.00000E+00  9.000E+00
      25     1     1     2     0     0 -1.690705818E+02 -3.289686524E+01  7.171231459E+01  2.245767607E+02  1.250000000E+02  0.00000E+00  9.000E+00
      21     1     1     2   511   501 -3.489712003E+01  6.266205991E+00 -3.925346032E+01  5.289525944E+01  0.000000000E+00  0.00000E+00  9.000E+00
#rwgt            1           1   4.3671820405056710E-002           4      119888           0
</event>
<event>
      5   9999  3.79277E-02  2.21478E+01 -1.00000E+00  1.62795E-01
      21    -1     0     0   512   501  0.000000000E+00  0.000000000E+00  2.350921954E+02  2.350921954E+02  0.000000000E+00  0.00000E+00  9.000E+00
      21    -1     0     0   501   502  0.000000000E+00  0.000000000E+00 -2.318345640E+02  2.318345640E+02  0.000000000E+00  0.00000E+00  9.000E+00
      25     1     1     2     0     0 -9.744226230E+01 -5.365800377E+01 -1.472401693E+02  2.228875127E+02  1.250000000E+02  0.00000E+00  9.000E+00
      25     1     1     2     0     0  7.932094632E+01  6.639160754E+01  1.045064694E+02  1.929929020E+02  1.250000000E+02  0.00000E+00  9.000E+00
      21     1     1     2   512   502  1.812131598E+01 -1.273360377E+01  4.599133127E+01  5.104634472E+01  9.536743164E-07  0.00000E+00  9.000E+00
#rwgt            1           1   4.4527587421917897E-002           4      120336           0
</event>
<event>
      5   9999  3.79277E-02  8.52780E+01 -1.00000E+00  1.27021E-01
      21    -1     0     0   502   501  0.000000000E+00  0.000000000E+00  4.004630468E+02  4.004630468E+02  0.000000000E+00  0.00000E+00  9.000E+00
      21    -1     0     0   501   511  0.000000000E+00  0.000000000E+00 -2.335362514E+02  2.335362514E+02  0.000000000E+00  0.00000E+00  9.000E+00
      25     1     1     2     0     0 -1.326193580E+01  1.499976588E+02  2.917842529E+02  3.513377675E+02  1.250000000E+02  0.00000E+00  9.000E+00
      25     1     1     2     0     0 -7.145986791E+00 -6.719754512E+01 -1.398092235E+01  1.427831971E+02  1.250000000E+02  0.00000E+00  9.000E+00
      21     1     1     2   502   511  2.040792259E+01 -8.280011371E+01 -1.108765352E+02  1.398783335E+02  1.348699152E-06  0.00000E+00  9.000E+00
#rwgt            1           1   4.2617432101038168E-002           4      120507           0
</event>
<event>
      5   9999  3.79277E-02  1.87117E+01 -1.00000E+00  1.68791E-01
      21    -1     0     0   502   501  0.000000000E+00  0.000000000E+00  8.215854718E+02  8.215854718E+02  0.000000000E+00  0.00000E+00  9.000E+00
      21    -1     0     0   501   512  0.000000000E+00  0.000000000E+00 -6.113642919E+01  6.113642919E+01  0.000000000E+00  0.00000E+00  9.000E+00
      25     1     1     2     0     0  1.399633031E+01 -1.661393001E+02  4.143358999E+02  4.637859444E+02  1.250000000E+02  0.00000E+00  9.000E+00
      25     1     1     2     0     0 -3.047592660E+01  1.750021035E+02  3.220707830E+02  3.884702146E+02  1.250000000E+02  0.00000E+00  9.000E+00
      21     1     1     2   502   512  1.647959629E+01 -8.862803411E+00  2.404235972E+01  3.046574206E+01  3.371747881E-07  0.00000E+00  9.000E+00
#rwgt            1           1   3.7705995578536711E-002           4      120577           0
</event>
<event>
      5   9999  3.79277E-02  5.49730E+01 -1.00000E+00  1.36766E-01
      21    -1     0     0   502   511  0.000000000E+00  0.000000000E+00  7.857463124E+02  7.857463124E+02  0.000000000E+00  0.00000E+00  9.000E+00
      21    -1     0     0   501   502  0.000000000E+00  0.000000000E+00 -1.466647362E+02  1.466647362E+02  0.000000000E+00  0.00000E+00  9.000E+00
      25     1     1     2     0     0 -9.851413127E+01 -1.880507833E+02  1.811384037E+02  3.057846505E+02  1.250000000E+02  0.00000E+00  9.000E+00
      25     1     1     2     0     0  1.424228119E+02  1.549742628E+02  9.991698254E+01  2.644043927E+02  1.250000000E+02  0.00000E+00  9.000E+00
      21     1     1     2   501   511 -4.390868068E+01  3.307652050E+01  3.580261900E+02  3.622220053E+02  5.394796609E-06  0.00000E+00  9.000E+00
#rwgt            1           1   3.9768931070592636E-002           4      120824           0
</event>
<event>
      5   9999  3.79277E-02  3.63174E+01 -1.00000E+00  1.47490E-01
      21    -1     0     0   502   512  0.000000000E+00  0.000000000E+00  2.424274054E+02  2.424274054E+02  0.000000000E+00  0.00000E+00  9.000E+00
      21    -1     0     0   501   502  0.000000000E+00  0.000000000E+00 -1.523839571E+02  1.523839571E+02  0.000000000E+00  0.00000E+00  9.000E+00
      25     1     1     2     0     0  4.939804367E+01 -3.190878756E+01  1.125834088E+02  1.782087578E+02  1.250000000E+02  0.00000E+00  9.000E+00
      25     1     1     2     0     0 -7.760483406E+01  5.478518684E+01 -5.652373681E+01  1.668647949E+02  1.250000000E+02  0.00000E+00  9.000E+00
      21     1     1     2   501   512  2.820679039E+01 -2.287639928E+01  3.398377634E+01  4.973780978E+01  6.743495762E-07  0.00000E+00  9.000E+00
#rwgt            1           1   3.5047720541689538E-002           4      120942           0
</event>
<event>
      5   9999  3.79277E-02  1.44729E+01 -1.00000E+00  1.78860E-01
      21    -1     0     0   502   511  0.000000000E+00  0.000000000E+00  9.539830470E+01  9.539830470E+01  0.000000000E+00  0.00000E+00  9.000E+00
      21    -1     0     0   501   502  0.000000000E+00  0.000000000E+00 -5.059480669E+02  5.059480669E+02  0.000000000E+00  0.00000E+00  9.000E+00
      25     1     1     2     0     0 -3.403826841E+00  7.945382491E+01  3.596258053E+00  1.481972652E+02  1.250000000E+02  0.00000E+00  9.000E+00
      25     1     1     2     0     0 -6.126154358E+00 -9.034618669E+01 -4.100025347E+02  4.380947862E+02  1.250000000E+02  0.00000E+00  9.000E+00
      21     1     1     2   501   511  9.529981199E+00  1.089236179E+01 -4.143485597E+00  1.505432030E+01  2.858538343E-07  0.00000E+00  9.000E+00
#rwgt            1           1   2.0889734862546416E-002           4      121039           0
</event>
<event>
      5   9999  3.79277E-02  1.07019E+02 -1.00000E+00  1.22517E-01
      21    -1     0     0   512   501  0.000000000E+00  0.000000000E+00  8.933132857E+02  8.933132857E+02  0.000000000E+00  0.00000E+00  9.000E+00
      21    -1     0     0   501   502  0.000000000E+00  0.000000000E+00 -2.454251776E+02  2.454251776E+02  0.000000000E+00  0.00000E+00  9.000E+00
      25     1     1     2     0     0  1.306715110E+02  2.192461601E+02  5.302600117E+01  2.891032330E+02  1.250000000E+02  0.00000E+00  9.000E+00
      25     1     1     2     0     0 -3.207577116E+01 -2.608636022E+02  5.116078409E+01  2.955014380E+02  1.250000000E+02  0.00000E+00  9.000E+00
      21     1     1     2   512   502 -9.859573987E+01  4.161744208E+01  5.437013228E+02  5.541337923E+02  0.000000000E+00  0.00000E+00  9.000E+00
#rwgt            2          11   1.7024343695566861E-003           4      121339           0
</event>
<event>
      5   9999  3.79277E-02  2.33457E+01 -1.00000E+00  1.61011E-01
       1    -1     0     0   502     0  0.000000000E+00  0.000000000E+00  1.894509306E+03  1.894509306E+03  0.000000000E+00  0.00000E+00  9.000E+00
      21    -1     0     0   501   502  0.000000000E+00  0.000000000E+00 -1.214454726E+02  1.214454726E+02  0.000000000E+00  0.00000E+00  9.000E+00
      25     1     1     2     0     0 -9.187937892E+01 -1.027626206E+02  1.122257034E+02  2.173052806E+02  1.250000000E+02  0.00000E+00  9.000E+00
      25     1     1     2     0     0  1.094062958E+02  8.734090982E+01  5.913221039E+01  1.967734494E+02  1.250000000E+02  0.00000E+00  9.000E+00
       1     1     1     2   501     0 -1.752691685E+01  1.542171079E+01  1.601705920E+03  1.601876049E+03  2.157918644E-05  0.00000E+00  9.000E+00
#rwgt            1           1   3.5617163116490665E-002           4      121374           0
</event>
<event>
      5   9999  3.79277E-02  5.00488E+01 -1.00000E+00  1.39051E-01
      21    -1     0     0   502   501  0.000000000E+00  0.000000000E+00  2.904190634E+02  2.904190634E+02  0.000000000E+00  0.00000E+00  9.000E+00
      21    -1     0     0   501   511  0.000000000E+00  0.000000000E+00 -7.467238566E+02  7.467238566E+02  0.000000000E+00  0.00000E+00  9.000E+00
      25     1     1     2     0     0  1.632975599E+02 -1.035203214E+02 -4.153764534E+02  4.749159379E+02  1.250000000E+02  0.00000E+00  9.000E+00
      25     1     1     2     0     0 -1.566270911E+02  5.391802309E+01  2.165496015E+02  2.999298732E+02  1.250000000E+02  0.00000E+00  9.000E+00
      21     1     1     2   502   511 -6.670468715E+00  4.960229833E+01 -2.574779412E+02  2.622971090E+02  5.394796609E-06  0.00000E+00  9.000E+00
#rwgt            1           1   3.1616878901796548E-002           4      121572           0
</event>
<event>
      5   9999  3.79277E-02  3.49102E+01 -1.00000E+00  1.48604E-01
      21    -1     0     0   502   501  0.000000000E+00  0.000000000E+00  1.405759962E+02  1.405759962E+02  0.000000000E+00  0.00000E+00  9.000E+00
      21    -1     0     0   501   512  0.000000000E+00  0.000000000E+00 -3.382931597E+02  3.382931597E+02  0.000000000E+00  0.00000E+00  9.000E+00
      25     1     1     2     0     0 -5.860212231E+01 -7.215535583E+01 -1.660739668E+02  2.276975331E+02  1.250000000E+02  0.00000E+00  9.000E+00
      25     1     1     2     0     0  6.973720998E+01  3.906861290E+01  5.462367521E+01  1.581087628E+02  1.250000000E+02  0.00000E+00  9.000E+00
      21     1     1     2   502   512 -1.113508766E+01  3.308674292E+01 -8.626687186E+01  9.306286002E+01  9.536743164E-07  0.00000E+00  9.000E+00
#rwgt            1           1   2.7658251691119396E-002           4      121686           0
</event>
<event>
      5   9999  3.79277E-02  7.33724E+01 -1.00000E+00  1.30194E-01
      21    -1     0     0   502   511  0.000000000E+00  0.000000000E+00  4.498379196E+02  4.498379196E+02  0.000000000E+00  0.00000E+00  9.000E+00
      21    -1     0     0   501   502  0.000000000E+00  0.000000000E+00 -2.999568236E+02  2.999568236E+02  0.000000000E+00  0.00000E+00  9.000E+00
      25     1     1     2     0     0  3.299169617E+01  1.251421629E+02 -6.421634132E+01  1.910438469E+02  1.250000000E+02  0.00000E+00  9.000E+00
      25     1     1     2     0     0 -5.571839150E+01 -1.949061233E+02 -8.340226079E+01  2.523368248E+02  1.250000000E+02  0.00000E+00  9.000E+00
      21     1     1     2   501   511  2.272669533E+01  6.976396041E+01  2.974996981E+02  3.064140716E+02  3.814697266E-06  0.00000E+00  9.000E+00
#rwgt            2          11   1.1563489418900195E-003           4      121882           0
</event>
<event>
      5   9999  3.79277E-02  2.96297E+00 -1.00000E+00  2.98515E-01
      21    -1     0     0   502   501  0.000000000E+00  0.000000000E+00  1.949471888E+03  1.949471888E+03  0.000000000E+00  0.00000E+00  9.000E+00
      21    -1     0     0   512   502  0.000000000E+00  0.000000000E+00 -3.494100240E+01  3.494100240E+01  0.000000000E+00  0.00000E+00  9.000E+00
      25     1     1     2     0     0 -7.999740820E+00  7.663214724E+01  1.514139786E+03  1.521243167E+03  1.250000000E+02  0.00000E+00  9.000E+00
      25     1     1     2     0     0  9.765907548E+00 -7.901118560E+01  4.189427715E+02  4.443829275E+02  1.250000000E+02  0.00000E+00  9.000E+00
      21     1     1     2   512   501 -1.766166729E+00  2.379038362E+00 -1.855167191E+01  1.878679587E+01  1.702649219E-06  0.00000E+00  9.000E+00
#rwgt            1           1  0.11962663161971128                4      122067           0
</event>
<event>
      5   9999  3.79277E-02  1.66267E+01 -1.00000E+00  1.73272E-01
      21    -1     0     0   502   501  0.000000000E+00  0.000000000E+00  3.430563927E+02  3.430563927E+02  0.000000000E+00  0.00000E+00  9.000E+00
      21    -1     0     0   501   511  0.000000000E+00  0.000000000E+00 -3.247039552E+02  3.247039552E+02  0.000000000E+00  0.00000E+00  9.000E+00
      25     1     1     2     0     0  1.905087615E+02  1.275809371E+02 -1.305951440E+01  2.614689936E+02  1.250000000E+02  0.00000E+00  9.000E+00
      25     1     1     2     0     0 -1.964830767E+02 -1.430972275E+02  1.325672657E+02  3.037786955E+02  1.250000000E+02  0.00000E+00  9.000E+00
      21     1     1     2   502   511  5.974315223E+00  1.551629037E+01 -1.011553137E+02  1.025126587E+02  1.348699152E-06  0.00000E+00  9.000E+00
#rwgt            1           1   3.9938998958859891E-002           4      122592           0
</event>
<event>
      5   9999  3.79277E-02  5.31764E+01 -1.00000E+00  1.37566E-01
      21    -1     0     0   502   501  0.000000000E+00  0.000000000E+00  1.298985382E+03  1.298985382E+03  0.000000000E+00  0.00000E+00  9.000E+00
      21    -1     0     0   512   502  0.000000000E+00  0.000000000E+00 -5.216743638E+01  5.216743638E+01  0.000000000E+00  0.00000E+00  9.000E+00
      25     1     1     2     0     0  5.748662032E+01 -1.886157934E+01  1.812916966E+02  2.283684521E+02  1.250000000E+02  0.00000E+00  9.000E+00
      25     1     1     2     0     0 -1.102558073E+02  2.543015916E+01  1.055236428E+03  1.068621521E+03  1.250000000E+02  0.00000E+00  9.000E+00
      21     1     1     2   512   501  5.276918700E+01 -6.568579826E+00  1.028982043E+01  5.416284466E+01  6.307962682E-07  0.00000E+00  9.000E+00
#rwgt            1           1   4.1587794792637134E-002           4      122815           0
</event>
<event>
      5   9999  3.79277E-02  3.56369E+01 -1.00000E+00  1.48021E-01
      21    -1     0     0   502   511  0.000000000E+00  0.000000000E+00  6.691981128E+01  6.691981128E+01  0.000000000E+00  0.00000E+00  9.000E+00
      21    -1     0     0   501   502  0.000000000E+00  0.000000000E+00 -6.144359371E+02  6.144359371E+02  0.000000000E+00  0.00000E+00  9.000E+00
      25     1     1     2     0     0  7.060440247E+01  2.466808284E+01 -4.129573589E+02  4.378952800E+02  1.250000000E+02  0.00000E+00  9.000E+00
      25     1     1     2     0     0 -1.062366230E+02 -2.524513670E+01 -1.206970137E+02  2.052225770E+02  1.250000000E+02  0.00000E+00  9.000E+00
      21     1     1     2   501   511  3.563222058E+01  5.770538680E-01 -1.386175321E+01  3.823789137E+01  6.529361695E-07  0.00000E+00  9.000E+00
#rwgt            1           1  0.21008291540978524                4      123137           0
</event>
<event>
      5   9999  3.79277E-02  9.55290E+01 -1.00000E+00  1.24728E-01
      21    -1     0     0   512   501  0.000000000E+00  0.000000000E+00  4.682281384E+02  4.682281384E+02  0.000000000E+00  0.00000E+00  9.000E+00
      21    -1     0     0   501   502  0.000000000E+00  0.000000000E+00 -1.214036786E+02  1.214036786E+02  0.000000000E+00  0.00000E+00  9.000E+00
      25     1     1     2     0     0  3.405214098E+01 -1.675095560E+02  7.796339783E+01  2.256596797E+02  1.250000000E+02  0.00000E+00  9.000E+00
      25     1     1     2     0     0 -3.901200047E+01  7.210944016E+01  1.549191152E+02  2.152826974E+02  1.250000000E+02  0.00000E+00  9.000E+00
      21     1     1     2   512   502  4.959859494E+00  9.540011584E+01  1.139419467E+02  1.486894398E+02  0.000000000E+00  0.00000E+00  9.000E+00
#rwgt            1           1   3.4002999471399044E-002           4      123298           0
</event>
<event>
      5   9999  3.79277E-02  1.61079E+01 -1.00000E+00  1.74517E-01
      21    -1     0     0   502   501  0.000000000E+00  0.000000000E+00  4.984199635E+02  4.984199635E+02  0.000000000E+00  0.00000E+00  9.000E+00
      21    -1     0     0   501   511  0.000000000E+00  0.000000000E+00 -3.333545651E+02  3.333545651E+02  0.000000000E+00  0.00000E+00  9.000E+00
      25     1     1     2     0     0 -1.864234078E+02 -2.850137255E+02 -1.175839813E+01  3.629735123E+02  1.250000000E+02  0.00000E+00  9.000E+00
      25     1     1     2     0     0  2.025313109E+02  2.850004245E+02  2.138047161E+02  4.284642697E+02  1.250000000E+02  0.00000E+00  9.000E+00
      21     1     1     2   502   511 -1.610790307E+01  1.330100446E-02 -3.698091957E+01  4.033674665E+01  6.743495762E-07  0.00000E+00  9.000E+00
#rwgt            1           1   3.2259213361154462E-002           4      123398           0
</event>
<event>
      5   9999  3.79277E-02  3.83641E+01 -1.00000E+00  1.45974E-01
      21    -1     0     0   502   501  0.000000000E+00  0.000000000E+00  5.336195402E+02  5.336195402E+02  0.000000000E+00  0.00000E+00  9.000E+00
      21    -1     0     0   512   502  0.000000000E+00  0.000000000E+00 -1.838762152E+02  1.838762152E+02  0.000000000E+00  0.00000E+00  9.000E+00
      25     1     1     2     0     0  2.243508019E+02 -1.367076456E+01  3.043315305E+02  3.984505648E+02  1.250000000E+02  0.00000E+00  9.000E+00
      25     1     1     2     0     0 -2.464836926E+02 -1.766514393E+01  3.394783300E+01  2.790048806E+02  1.250000000E+02  0.00000E+00  9.000E+00
      21     1     1     2   512   501  2.213289065E+01  3.133590849E+01  1.146396162E+01  4.004031001E+01  2.920019320E-07  0.00000E+00  9.000E+00
#rwgt            1           1   3.8701922305765780E-002           4      123561           0
</event>
<event>
      5   9999  3.79277E-02  4.94066E+01 -1.00000E+00  1.39372E-01
      21    -1     0     0   502   501  0.000000000E+00  0.000000000E+00  1.780150618E+03  1.780150618E+03  0.000000000E+00  0.00000E+00  9.000E+00
      21    -1     0     0   511   502  0.000000000E+00  0.000000000E+00 -5.974501414E+01  5.974501414E+01  0.000000000E+00  0.00000E+00  9.000E+00
      25     1     1     2     0     0 -2.714036896E+01  1.630800540E+01  1.600676105E+03  1.605861621E+03  1.250000000E+02  0.00000E+00  9.000E+00
      25     1     1     2     0     0 -1.063568270E+01  1.553505606E+01  1.323725878E+02  1.830354002E+02  1.250000000E+02  0.00000E+00  9.000E+00
      21     1     1     2   511   501  3.777605166E+01 -3.184306146E+01 -1.264308929E+01  5.099861125E+01  1.130918620E-06  0.00000E+00  9.000E+00
#rwgt            1           1   4.3161673751428604E-002           4      123683           0
</event>
<event>
      5   9999  3.79277E-02  3.18014E+01 -1.00000E+00  1.51301E-01
      21    -1     0     0   502   501  0.000000000E+00  0.000000000E+00  2.255355975E+02  2.255355975E+02  0.000000000E+00  0.00000E+00  9.000E+00
      21    -1     0     0   501   512  0.000000000E+00  0.000000000E+00 -3.457580142E+02  3.457580142E+02  0.000000000E+00  0.00000E+00  9.000E+00
      25     1     1     2     0     0 -1.594919598E+02  1.624100774E+02  2.454696911E+01  2.608491368E+02  1.250000000E+02  0.00000E+00  9.000E+00
      25     1     1     2     0     0  1.462788787E+02 -1.334836013E+02 -9.793557021E+01  2.538341153E+02  1.250000000E+02  0.00000E+00  9.000E+00
      21     1     1     2   502   512  1.321308109E+01 -2.892647606E+01 -4.683381566E+01  5.661035964E+01  0.000000000E+00  0.00000E+00  9.000E+00
#rwgt            1           1   8.4774809896846163E-003           4      123917           0
</event>
<event>
      5   9999  3.79277E-02  1.44266E+02 -1.00000E+00  1.17068E-01
      21    -1     0     0   511   501  0.000000000E+00  0.000000000E+00  6.211243019E+02  6.211243019E+02  0.000000000E+00  0.00000E+00  9.000E+00
      21    -1     0     0   501   502  0.000000000E+00  0.000000000E+00 -1.550111086E+02  1.550111086E+02  0.000000000E+00  0.00000E+00  9.000E+00
      25     1     1     2     0     0  1.110422499E+02  5.875836897E+01 -3.447405715E+01  1.805446975E+02  1.250000000E+02  0.00000E+00  9.000E+00
      25     1     1     2     0     0 -9.033847076E+01  8.401384701E+01  3.134816119E+02  3.593258782E+02  1.250000000E+02  0.00000E+00  9.000E+00
      21     1     1     2   511   502 -2.070377915E+01 -1.427722160E+02  1.871056386E+02  2.362648347E+02  2.697398305E-06  0.00000E+00  9.000E+00
#rwgt            1           1   4.9011717635553759E-002           4      124129           0
</event>
<event>
      5   9999  3.79277E-02  5.74746E+01 -1.00000E+00  1.35709E-01
      21    -1     0     0   502   501  0.000000000E+00  0.000000000E+00  1.116624764E+03  1.116624764E+03  0.000000000E+00  0.00000E+00  9.000E+00
      21    -1     0     0   512   502  0.000000000E+00  0.000000000E+00 -4.686586006E+01  4.686586006E+01  0.000000000E+00  0.00000E+00  9.000E+00
      25     1     1     2     0     0  9.953484709E+01  1.419362698E+02  4.453411187E+02  4.939704470E+02  1.250000000E+02  0.00000E+00  9.000E+00
      25     1     1     2     0     0 -5.845274673E+01 -1.017419283E+02  5.460756696E+02  5.723563405E+02  1.250000000E+02  0.00000E+00  9.000E+00
      21     1     1     2   512   501 -4.108210036E+01 -4.019434142E+01  7.834211544E+01  9.716383640E+01  9.536743164E-07  0.00000E+00  9.000E+00
#rwgt            1           1   3.1614442939746266E-002           4      124200           0
</event>
<event>
      5   9999  3.79277E-02  3.41591E+01 -1.00000E+00  1.49224E-01
       2    -1     0     0   502     0  0.000000000E+00  0.000000000E+00  1.734322154E+03  1.734322154E+03  0.000000000E+00  0.00000E+00  9.000E+00
      21    -1     0     0   501   502  0.000000000E+00  0.000000000E+00 -5.008042122E+02  5.008042122E+02  0.000000000E+00  0.00000E+00  9.000E+00
      25     1     1     2     0     0  2.175214715E+01 -2.069579392E+02 -2.920842348E+02  3.797932921E+02  1.250000000E+02  0.00000E+00  9.000E+00
      25     1     1     2     0     0 -5.582823149E+01  2.093379073E+02 -6.970575336E+01  2.596594749E+02  1.250000000E+02  0.00000E+00  9.000E+00
       2     1     1     2   501     0  3.407608434E+01 -2.379968150E+00  1.595307930E+03  1.595673600E+03  2.157918644E-05  0.00000E+00  9.000E+00
#rwgt            1           1   4.6002766239762884E-002           4      124313           0
</event>
<event>
      5   9999  3.79277E-02  2.41766E+01 -1.00000E+00  1.59848E-01
      21    -1     0     0   511   501  0.000000000E+00  0.000000000E+00  3.163408776E+02  3.163408776E+02  0.000000000E+00  0.00000E+00  9.000E+00
      21    -1     0     0   501   502  0.000000000E+00  0.000000000E+00 -1.704822392E+03  1.704822392E+03  0.000000000E+00  0.00000E+00  9.000E+00
      25     1     1     2     0     0  6.617143250E+00 -1.422487906E+02 -4.562693909E+02  4.940498579E+02  1.250000000E+02  0.00000E+00  9.000E+00
      25     1     1     2     0     0 -3.079343249E+01  1.423627114E+02 -1.221665804E+03  1.236651816E+03  1.250000000E+02  0.00000E+00  9.000E+00
      21     1     1     2   511   502  2.417628924E+01 -1.139207584E-01  2.894536801E+02  2.904615962E+02  6.607249480E-06  0.00000E+00  9.000E+00
#rwgt            1           1   3.1963061924784431E-002           4      124516           0
</event>
<event>
      5   9999  3.79277E-02  9.09609E+01 -1.00000E+00  1.25707E-01
      21    -1     0     0   502   501  0.000000000E+00  0.000000000E+00  3.681638215E+02  3.681638215E+02  0.000000000E+00  0.00000E+00  9.000E+00
      21    -1     0     0   512   502  0.000000000E+00  0.000000000E+00 -1.635954914E+03  1.635954914E+03  0.000000000E+00  0.00000E+00  9.000E+00
      25     1     1     2     0     0 -9.808620270E+00  1.149237247E+02 -4.151042534E+01  1.750765174E+02  1.250000000E+02  0.00000E+00  9.000E+00
      25     1     1     2     0     0 -1.754009633E+01 -2.817161462E+01  2.860763824E+02  3.139522120E+02  1.250000000E+02  0.00000E+00  9.000E+00
      21     1     1     2   512   501  2.734871660E+01 -8.675211005E+01 -1.512357049E+03  1.515090006E+03  2.157918644E-05  0.00000E+00  9.000E+00
#rwgt            1           1   3.8831324051551541E-002           4      124760           0
</event>
<event>
      5   9999  3.79277E-02  1.20117E+02 -1.00000E+00  1.20350E-01
      21    -1     0     0   502   501  0.000000000E+00  0.000000000E+00  3.514158713E+02  3.514158713E+02  0.000000000E+00  0.00000E+00  9.000E+00
      21    -1     0     0   501   511  0.000000000E+00  0.000000000E+00 -2.153226221E+02  2.153226221E+02  0.000000000E+00  0.00000E+00  9.000E+00
      25     1     1     2     0     0  1.131746917E+01  4.979768104E+01  2.341585294E+02  2.703018887E+02  1.250000000E+02  0.00000E+00  9.000E+00
      25     1     1     2     0     0  6.108887058E+01  4.604231546E+01 -9.804090850E+01  1.763200631E+02  1.250000000E+02  0.00000E+00  9.000E+00
      21     1     1     2   502   511 -7.240633975E+01 -9.583999650E+01 -2.437159293E-02  1.201165416E+02  2.177137038E-06  0.00000E+00  9.000E+00
#rwgt            2          11   2.3200881572762989E-003           4      124898           0
</event>
<event>
      5   9999  3.79277E-02  2.94146E+01 -1.00000E+00  1.53637E-01
      21    -1     0     0   512   501  0.000000000E+00  0.000000000E+00  5.707584357E+02  5.707584357E+02  0.000000000E+00  0.00000E+00  9.000E+00
      21    -1     0     0   501   502  0.000000000E+00  0.000000000E+00 -7.147768886E+01  7.147768886E+01  0.000000000E+00  0.00000E+00  9.000E+00
      25     1     1     2     0     0 -2.461288713E+01 -4.674027834E+01  2.653316327E+01  1.382731231E+02  1.250000000E+02  0.00000E+00  9.000E+00
      25     1     1     2     0     0  7.161134702E+00  7.041848635E+01  4.149483954E+02  4.391095717E+02  1.250000000E+02  0.00000E+00  9.000E+00
      21     1     1     2   512   502  1.745175243E+01 -2.367820801E+01  5.779918814E+01  6.485342972E+01  6.743495762E-07  0.00000E+00  9.000E+00
#rwgt            1           1   4.7485366596664760E-002           4      125083           0
</event>
<event>
      5   9999  3.79277E-02  5.95950E+01 -1.00000E+00  1.34861E-01
      21    -1     0     0   511   501  0.000000000E+00  0.000000000E+00  2.658226856E+02  2.658226856E+02  0.000000000E+00  0.00000E+00  9.000E+00
      21    -1     0     0   501   502  0.000000000E+00  0.000000000E+00 -4.787609208E+02  4.787609208E+02  0.000000000E+00  0.00000E+00  9.000E+00
      25     1     1     2     0     0  3.709192247E+01  2.233638430E+02  5.783945974E+01  2.650238106E+02  1.250000000E+02  0.00000E+00  9.000E+00
      25     1     1     2     0     0  2.243520661E+01 -2.262080385E+02 -3.129945170E+02  4.065267308E+02  1.250000000E+02  0.00000E+00  9.000E+00
      21     1     1     2   511   502 -5.952712908E+01  2.844195510E+00  4.221682202E+01  7.303306516E+01  6.743495762E-07  0.00000E+00  9.000E+00
#rwgt            1           1   1.7885019735732380E-002           4      125421           0
</event>
<event>
      5   9999  3.79277E-02  3.10061E+01 -1.00000E+00  1.52051E-01
      21    -1     0     0   502   501  0.000000000E+00  0.000000000E+00  6.153207151E+02  6.153207151E+02  0.000000000E+00  0.00000E+00  9.000E+00
       1    -1     0     0   501     0  0.000000000E+00  0.000000000E+00 -1.870331199E+03  1.870331199E+03  0.000000000E+00  0.00000E+00  9.000E+00
      25     1     1     2     0     0 -2.968081610E+01  1.761718702E+02  4.365438333E+02  4.879682337E+02  1.250000000E+02  0.00000E+00  9.000E+00
      25     1     1     2     0     0  3.247691894E+01 -1.452921404E+02  9.115391603E+01  2.147058284E+02  1.250000000E+02  0.00000E+00  9.000E+00
       1     1     1     2   502     0 -2.796102845E+00 -3.087972980E+01 -1.782708233E+03  1.782977852E+03  2.157918644E-05  0.00000E+00  9.000E+00
#rwgt            1           1   3.4394893485694161E-002           4      125485           0
</event>
<event>
      5   9999  3.79277E-02  3.97313E+01 -1.00000E+00  1.45022E-01
      21    -1     0     0   502   501  0.000000000E+00  0.000000000E+00  4.842053390E+02  4.842053390E+02  0.000000000E+00  0.00000E+00  9.000E+00
      -3    -1     0     0     0   502  0.000000000E+00  0.000000000E+00 -3.299684149E+02  3.299684149E+02  0.000000000E+00  0.00000E+00  9.000E+00
      25     1     1     2     0     0  9.865301411E+01 -1.471755037E+02  1.807270168E+02  2.822769929E+02  1.250000000E+02  0.00000E+00  9.000E+00
      25     1     1     2     0     0 -9.350749020E+01  1.077787561E+02  2.152518253E+02  2.869115879E+02  1.250000000E+02  0.00000E+00  9.000E+00
      -3     1     1     2     0   501 -5.145523904E+00  3.939674766E+01 -2.417419180E+02  2.449851732E+02  2.697398305E-06  0.00000E+00  9.000E+00
#rwgt            1           1  0.10716322927246660                4      125611           0
</event>
<event>
      5   9999 -3.79277E-02  1.48694E+02 -1.00000E+00  1.16544E-01
      21    -1     0     0   502   501  0.000000000E+00  0.000000000E+00  1.176828278E+02  1.176828278E+02  0.000000000E+00  0.00000E+00  9.000E+00
       1    -1     0     0   501     0  0.000000000E+00  0.000000000E+00 -1.110662553E+03  1.110662553E+03  0.000000000E+00  0.00000E+00  9.000E+00
      25     1     1     2     0     0 -1.287201665E+02  1.415678038E+02 -4.930373610E+02  5.434345993E+02  1.250000000E+02  0.00000E+00  9.000E+00
      25     1     1     2     0     0  2.514387669E+02 -5.760366732E+01 -1.981178440E+02  3.484470062E+02  1.250000000E+02  0.00000E+00  9.000E+00
       1     1     1     2   502     0 -1.227186004E+02 -8.396413651E+01 -3.018245207E+02  3.364637758E+02  3.814697266E-06  0.00000E+00  9.000E+00
#rwgt            1           1 -0.26034500999329441                4      125750           0
</event>
<event>
      5   9999 -3.79277E-02  1.34815E+01 -1.00000E+00  1.81865E-01
      21    -1     0     0   502   501  0.000000000E+00  0.000000000E+00  7.794290153E+01  7.794290153E+01  0.000000000E+00  0.00000E+00  9.000E+00
      21    -1     0     0   501   511  0.000000000E+00  0.000000000E+00 -3.671531774E+03  3.671531774E+03  0.000000000E+00  0.00000E+00  9.000E+00
      25     1     1     2     0     0 -2.009110522E+02  2.365187275E+02 -2.995365460E+03  3.013991638E+03  1.250000000E+02  0.00000E+00  9.000E+00
      25     1     1     2     0     0  1.902833330E+02 -2.448133836E+02 -3.397253639E+02  4.766336775E+02  1.250000000E+02  0.00000E+00  9.000E+00
      21     1     1     2   502   511  1.062771919E+01  8.294656099E+00 -2.584980491E+02  2.588493599E+02  3.814697266E-06  0.00000E+00  9.000E+00
#rwgt            1           1 -0.42349724153366342                4      125791           0
</event>
<event>
      5   9999  3.79277E-02  1.48780E+01 -1.00000E+00  1.77718E-01
      21    -1     0     0   512   501  0.000000000E+00  0.000000000E+00  8.688932456E+02  8.688932456E+02  0.000000000E+00  0.00000E+00  9.000E+00
      21    -1     0     0   501   502  0.000000000E+00  0.000000000E+00 -4.937686052E+01  4.937686052E+01  0.000000000E+00  0.00000E+00  9.000E+00
      25     1     1     2     0     0 -2.483472344E+01 -6.612162371E+01  8.908916321E+01  1.689695582E+02  1.250000000E+02  0.00000E+00  9.000E+00
      25     1     1     2     0     0  2.179830905E+01  8.068645367E+01  6.907113457E+02  7.068894066E+02  1.250000000E+02  0.00000E+00  9.000E+00
      21     1     1     2   512   502  3.036414397E+00 -1.456482997E+01  3.971587613E+01  4.241114123E+01  4.768371582E-07  0.00000E+00  9.000E+00
#rwgt            1           1   2.8480527149488392E-002           4      126043           0
</event>
<event>
      5   9999  3.79277E-02  8.01587E+01 -1.00000E+00  1.28308E-01
      21    -1     0     0   502   501  0.000000000E+00  0.000000000E+00  2.385911976E+02  2.385911976E+02  0.000000000E+00  0.00000E+00  9.000E+00
      21    -1     0     0   511   502  0.000000000E+00  0.000000000E+00 -4.615374707E+02  4.615374707E+02  0.000000000E+00  0.00000E+00  9.000E+00
      25     1     1     2     0     0  1.425345680E+02  3.591385138E+01 -3.365013627E+01  1.958653605E+02  1.250000000E+02  0.00000E+00  9.000E+00
      25     1     1     2     0     0 -1.583142614E+02  4.267635336E+01  8.161304662E+01  2.217439196E+02  1.250000000E+02  0.00000E+00  9.000E+00
      21     1     1     2   511   501  1.577969340E+01 -7.859020474E+01 -2.709091835E+02  2.825193882E+02  0.000000000E+00  0.00000E+00  9.000E+00
#rwgt            1           1   1.7122523821239116E-002           4      126249           0
</event>
<event>
      5   9999  3.79277E-02  7.38895E+01 -1.00000E+00  1.30042E-01
      21    -1     0     0   502   501  0.000000000E+00  0.000000000E+00  1.071894323E+02  1.071894323E+02  0.000000000E+00  0.00000E+00  9.000E+00
      21    -1     0     0   512   502  0.000000000E+00  0.000000000E+00 -4.196537335E+02  4.196537335E+02  0.000000000E+00  0.00000E+00  9.000E+00
      25     1     1     2     0     0 -3.778682222E-01 -1.898815084E+01  1.010348561E+01  1.268375854E+02  1.250000000E+02  0.00000E+00  9.000E+00
      25     1     1     2     0     0 -3.965186892E+01  8.109512996E+01 -2.639648553E+02  3.056977848E+02  1.250000000E+02  0.00000E+00  9.000E+00
      21     1     1     2   512   501  4.002973714E+01 -6.210697911E+01 -5.860293163E+01  9.430779557E+01  0.000000000E+00  0.00000E+00  9.000E+00
#rwgt            1           1   4.5715958474491232E-002           4      126315           0
</event>
<event>
      5   9999  3.79277E-02  2.21367E+01 -1.00000E+00  1.62812E-01
      21    -1     0     0   502   501  0.000000000E+00  0.000000000E+00  6.147161105E+02  6.147161105E+02  0.000000000E+00  0.00000E+00  9.000E+00
       1    -1     0     0   501     0  0.000000000E+00  0.000000000E+00 -4.790503398E+02  4.790503398E+02  0.000000000E+00  0.00000E+00  9.000E+00
      25     1     1     2     0     0  1.423034850E+02  4.877176257E+01  5.309993876E+02  5.658748239E+02  1.250000000E+02  0.00000E+00  9.000E+00
      25     1     1     2     0     0 -1.464681349E+02 -2.703038134E+01 -7.755072628E+01  2.093386520E+02  1.250000000E+02  0.00000E+00  9.000E+00
       1     1     1     2   502     0  4.164649924E+00 -2.174138123E+01 -3.177828907E+02  3.185529745E+02  0.000000000E+00  0.00000E+00  9.000E+00
#rwgt            1           1   3.3391642466534754E-002           4      126378           0
</event>
<event>
      5   9999  3.79277E-02  3.22220E+01 -1.00000E+00  1.50915E-01
      -2    -1     0     0     0   501  0.000000000E+00  0.000000000E+00  6.526922926E+01  6.526922926E+01  0.000000000E+00  0.00000E+00  9.000E+00
      21    -1     0     0   501   502  0.000000000E+00  0.000000000E+00 -1.028323098E+03  1.028323098E+03  0.000000000E+00  0.00000E+00  9.000E+00
      25     1     1     2     0     0  2.422013992E+01 -1.250766853E+02 -3.053251288E+02  3.536654163E+02  1.250000000E+02  0.00000E+00  9.000E+00
      25     1     1     2     0     0 -5.505072824E+01  1.157102102E+02 -6.784159603E+02  7.016356965E+02  1.250000000E+02  0.00000E+00  9.000E+00
      -2     1     1     2     0   502  3.083058833E+01  9.366475075E+00  2.068722029E+01  3.829121459E+01  9.536743164E-07  0.00000E+00  9.000E+00
#rwgt            1           1   3.8823244987586318E-002           4      126533           0
</event>
<event>
      5   9999  3.79277E-02  2.42924E+02 -1.00000E+00  1.08658E-01
      21    -1     0     0   502   501  0.000000000E+00  0.000000000E+00  3.311263224E+01  3.311263224E+01  0.000000000E+00  0.00000E+00  9.000E+00
       1    -1     0     0   501     0  0.000000000E+00  0.000000000E+00 -3.757807960E+03  3.757807960E+03  0.000000000E+00  0.00000E+00  9.000E+00
      25     1     1     2     0     0 -1.768742208E+02  2.742572096E+01 -1.222608395E+03  1.241947240E+03  1.250000000E+02  0.00000E+00  9.000E+00
      25     1     1     2     0     0  1.304913370E+01  1.519443266E+02 -6.032321493E+02  6.346427217E+02  1.250000000E+02  0.00000E+00  9.000E+00
       1     1     1     2   502     0  1.638250871E+02 -1.793700475E+02 -1.898854784E+03  1.914330631E+03  4.315837288E-05  0.00000E+00  9.000E+00
#rwgt            1           1   3.3134164783014029E-002           4      126656           0
</event>
<event>
      5   9999  3.79277E-02  1.35746E+01 -1.00000E+00  1.81569E-01
      21    -1     0     0   502   501  0.000000000E+00  0.000000000E+00  1.913672357E+03  1.913672357E+03  0.000000000E+00  0.00000E+00  9.000E+00
      21    -1     0     0   511   502  0.000000000E+00  0.000000000E+00 -4.567193914E+01  4.567193914E+01  0.000000000E+00  0.00000E+00  9.000E+00
      25     1     1     2     0     0  7.458716901E+01  1.358258233E+02  4.531974728E+02  4.949998479E+02  1.250000000E+02  0.00000E+00  9.000E+00
      25     1     1     2     0     0 -6.237489562E+01 -1.298987029E+02  1.430745052E+03  1.443405939E+03  1.250000000E+02  0.00000E+00  9.000E+00
      21     1     1     2   511   501 -1.221227339E+01 -5.927120360E+00 -1.594210726E+01  2.093850904E+01  1.400392070E-06  0.00000E+00  9.000E+00
#rwgt            1           1  0.15295289859272265                4      126696           0
</event>
<event>
      5   9999  3.79277E-02  1.19621E+02 -1.00000E+00  1.20427E-01
      21    -1     0     0   502   501  0.000000000E+00  0.000000000E+00  2.100205757E+02  2.100205757E+02  0.000000000E+00  0.00000E+00  9.000E+00
      21    -1     0     0   512   502  0.000000000E+00  0.000000000E+00 -3.057773885E+02  3.057773885E+02  0.000000000E+00  0.00000E+00  9.000E+00
      25     1     1     2     0     0  9.618323319E+01  1.126755352E+02 -1.332017794E+02  2.351907835E+02  1.250000000E+02  0.00000E+00  9.000E+00
      25     1     1     2     0     0 -2.842198437E+01 -1.409719535E+01  8.214931291E+01  1.529053620E+02  1.250000000E+02  0.00000E+00  9.000E+00
      21     1     1     2   512   501 -6.776124882E+01 -9.857833987E+01 -4.470434627E+01  1.277018187E+02  9.536743164E-07  0.00000E+00  9.000E+00
#rwgt            1           1   3.8476846566897857E-002           4      126944           0
</event>
<event>
      5   9999  3.79277E-02  4.71031E+00 -1.00000E+00  2.47792E-01
      21    -1     0     0   511   501  0.000000000E+00  0.000000000E+00  5.554294928E+02  5.554294928E+02  0.000000000E+00  0.00000E+00  9.000E+00
      21    -1     0     0   501   502  0.000000000E+00  0.000000000E+00 -1.619164406E+02  1.619164406E+02  0.000000000E+00  0.00000E+00  9.000E+00
      25     1     1     2     0     0 -1.366808471E+02 -1.895731680E+02  2.849717110E+02  3.891702919E+02  1.250000000E+02  0.00000E+00  9.000E+00
      25     1     1     2     0     0  1.386846661E+02  1.938359978E+02  5.533287413E+01  2.747590901E+02  1.250000000E+02  0.00000E+00  9.000E+00
      21     1     1     2   511   502 -2.003818966E+00 -4.262829719E+00  5.320846706E+01  5.341655150E+01  6.743495762E-07  0.00000E+00  9.000E+00
#rwgt            1           1   3.1850094015443364E-002           4      127041           0
</event>
<event>
      5   9999  3.79277E-02  1.80795E+01 -1.00000E+00  1.70070E-01
       2    -1     0     0   502     0  0.000000000E+00  0.000000000E+00  1.293102600E+03  1.293102600E+03  0.000000000E+00  0.00000E+00  9.000E+00
      21    -1     0     0   501   502  0.000000000E+00  0.000000000E+00 -8.572681671E+01  8.572681671E+01  0.000000000E+00  0.00000E+00  9.000E+00
      25     1     1     2     0     0  1.298506101E+02 -5.401855649E+01  4.872172855E+02  5.222881088E+02  1.250000000E+02  0.00000E+00  9.000E+00
      25     1     1     2     0     0 -1.293209381E+02  7.209025966E+01  6.983727523E+01  2.059688218E+02  1.250000000E+02  0.00000E+00  9.000E+00
       2     1     1     2   501     0 -5.296720304E-01 -1.807170317E+01  6.503212225E+02  6.505724860E+02  1.525878906E-05  0.00000E+00  9.000E+00
#rwgt            1           1   4.0679419857024751E-002           4      127557           0
</event>
<event>
      5   9999  3.79277E-02  1.02126E+02 -1.00000E+00  1.23418E-01
      21    -1     0     0   502   501  0.000000000E+00  0.000000000E+00  8.037579935E+02  8.037579935E+02  0.000000000E+00  0.00000E+00  9.000E+00
      21    -1     0     0   511   502  0.000000000E+00  0.000000000E+00 -6.719463413E+01  6.719463413E+01  0.000000000E+00  0.00000E+00  9.000E+00
      25     1     1     2     0     0  5.028108832E+01 -3.841903981E+00  1.149882764E+02  1.771729431E+02  1.250000000E+02  0.00000E+00  9.000E+00
      25     1     1     2     0     0 -1.304192468E+02  6.714704298E+01  4.946572793E+02  5.308754367E+02  1.250000000E+02  0.00000E+00  9.000E+00
      21     1     1     2   511   501  8.013815846E+01 -6.330513900E+01  1.269178036E+02  1.629042478E+02  1.907348633E-06  0.00000E+00  9.000E+00
#rwgt            1           1   2.6159986697238055E-002           4      127752           0
</event>
<event>
      5   9999  3.79277E-02  3.00960E+01 -1.00000E+00  1.52944E-01
      21    -1     0     0   512   501  0.000000000E+00  0.000000000E+00  9.308337995E+02  9.308337995E+02  0.000000000E+00  0.00000E+00  9.000E+00
      21    -1     0     0   501   502  0.000000000E+00  0.000000000E+00 -4.012286866E+01  4.012286866E+01  0.000000000E+00  0.00000E+00  9.000E+00
      25     1     1     2     0     0 -4.334040174E+01 -3.161138540E+01  6.169888254E+02  6.318052554E+02  1.250000000E+02  0.00000E+00  9.000E+00
      25     1     1     2     0     0  5.795599369E+01  5.792016018E+01  1.497343025E+02  2.115632376E+02  1.250000000E+02  0.00000E+00  9.000E+00
      21     1     1     2   512   502 -1.461559195E+01 -2.630877478E+01  1.239878029E+02  1.275881751E+02  1.348699152E-06  0.00000E+00  9.000E+00
#rwgt            1           1   4.4295640687659753E-002           4      127911           0
</event>
<event>
      5   9999  3.79277E-02  6.86426E+01 -1.00000E+00  1.31653E-01
      21    -1     0     0   502   501  0.000000000E+00  0.000000000E+00  9.405769220E+02  9.405769220E+02  0.000000000E+00  0.00000E+00  9.000E+00
      21    -1     0     0   511   502  0.000000000E+00  0.000000000E+00 -7.483868457E+01  7.483868457E+01  0.000000000E+00  0.00000E+00  9.000E+00
      25     1     1     2     0     0 -1.621378607E+02 -7.604793793E+01  2.176884331E+02  3.083589283E+02  1.250000000E+02  0.00000E+00  9.000E+00
      25     1     1     2     0     0  9.539299346E+01  9.207693314E+01  5.888947589E+02  6.164414180E+02  1.250000000E+02  0.00000E+00  9.000E+00
      21     1     1     2   511   501  6.674486725E+01 -1.602899521E+01  5.915504541E+01  9.061526024E+01  1.348699152E-06  0.00000E+00  9.000E+00
#rwgt            1           1   2.7100898566977970E-002           4      128152           0
</event>
<event>
      5   9999  3.79277E-02  7.20922E+01 -1.00000E+00  1.30576E-01
      21    -1     0     0   502   501  0.000000000E+00  0.000000000E+00  5.718270985E+01  5.718270985E+01  0.000000000E+00  0.00000E+00  9.000E+00
      -3    -1     0     0     0   502  0.000000000E+00  0.000000000E+00 -1.059607833E+03  1.059607833E+03  0.000000000E+00  0.00000E+00  9.000E+00
      25     1     1     2     0     0  9.784299660E+01 -1.229219591E+01 -5.334170406E+02  5.566714374E+02  1.250000000E+02  0.00000E+00  9.000E+00
      25     1     1     2     0     0 -8.081382024E+01  8.234421426E+01 -1.315305155E+02  2.150272533E+02  1.250000000E+02  0.00000E+00  9.000E+00
      -3     1     1     2     0   501 -1.702917636E+01 -7.005201835E+01 -3.374775672E+02  3.450918523E+02  3.814697266E-06  0.00000E+00  9.000E+00
#rwgt            1           1   4.1793233918633398E-002           4      128366           0
</event>
<event>
      5   9999 -3.79277E-02  2.22738E+02 -1.00000E+00  1.09972E-01
      21    -1     0     0   502   501  0.000000000E+00  0.000000000E+00  1.495758014E+02  1.495758014E+02  0.000000000E+00  0.00000E+00  9.000E+00
      21    -1     0     0   511   502  0.000000000E+00  0.000000000E+00 -1.768566057E+03  1.768566057E+03  0.000000000E+00  0.00000E+00  9.000E+00
      25     1     1     2     0     0 -5.445803077E+01 -4.258810360E+02 -5.951089976E+02  7.443924052E+02  1.250000000E+02  0.00000E+00  9.000E+00
      25     1     1     2     0     0  1.785269690E+02  2.408966649E+02 -4.260135678E+02  5.357384079E+02  1.250000000E+02  0.00000E+00  9.000E+00
      21     1     1     2   511   501 -1.240689382E+02  1.849843711E+02 -5.978676905E+02  6.380110456E+02  7.629394531E-06  0.00000E+00  9.000E+00
#rwgt            1           1 -0.26281042791153653                4      128450           0
</event>
<event>
      5   9999  3.79277E-02  7.25554E+01 -1.00000E+00  1.30437E-01
      21    -1     0     0   502   512  0.000000000E+00  0.000000000E+00  2.234345529E+02  2.234345529E+02  0.000000000E+00  0.00000E+00  9.000E+00
      21    -1     0     0   501   502  0.000000000E+00  0.000000000E+00 -3.916613657E+02  3.916613657E+02  0.000000000E+00  0.00000E+00  9.000E+00
      25     1     1     2     0     0  2.153380288E+02  9.429111041E+00 -1.436159891E+02  2.875933363E+02  1.250000000E+02  0.00000E+00  9.000E+00
      25     1     1     2     0     0 -1.449210534E+02 -2.691426914E+01 -1.043971946E+02  2.196594269E+02  1.250000000E+02  0.00000E+00  9.000E+00
      21     1     1     2   501   512 -7.041697539E+01  1.748515810E+01  7.978637095E+01  1.078431554E+02  2.336015456E-06  0.00000E+00  9.000E+00
#rwgt            1           1   3.4457567469161982E-002           4      128582           0
</event>
<event>
      5   9999  3.79277E-02  2.86653E+01 -1.00000E+00  1.54425E-01
      21    -1     0     0   511   501  0.000000000E+00  0.000000000E+00  2.546540412E+03  2.546540412E+03  0.000000000E+00  0.00000E+00  9.000E+00
      21    -1     0     0   501   502  0.000000000E+00  0.000000000E+00 -1.367666940E+02  1.367666940E+02  0.000000000E+00  0.00000E+00  9.000E+00
      25     1     1     2     0     0  4.624623128E+02  4.655803158E+01  7.434796440E+02  8.856782836E+02  1.250000000E+02  0.00000E+00  9.000E+00
      25     1     1     2     0     0 -4.733379187E+02 -2.003590148E+01  8.520910532E+02  9.829213527E+02  1.250000000E+02  0.00000E+00  9.000E+00
      21     1     1     2   511   502  1.087560593E+01 -2.652213010E+01  8.142030209E+02  8.147074698E+02  1.078959322E-05  0.00000E+00  9.000E+00
#rwgt            1           1   8.7728116734125339E-002           4      128673           0
</event>
<event>
      5   9999  3.79277E-02  3.38316E+01 -1.00000E+00  1.49500E-01
      21    -1     0     0   502   501  0.000000000E+00  0.000000000E+00  1.676101749E+03  1.676101749E+03  0.000000000E+00  0.00000E+00  9.000E+00
       2    -1     0     0   501     0  0.000000000E+00  0.000000000E+00 -3.375631755E+03  3.375631755E+03  0.000000000E+00  0.00000E+00  9.000E+00
      25     1     1     2     0     0 -1.400366927E+02  2.594749107E+02  9.832619503E+02  1.034101817E+03  1.250000000E+02  0.00000E+00  9.000E+00
      25     1     1     2     0     0  1.125622468E+02 -2.792165221E+02  6.275268180E+02  7.071400376E+02  1.250000000E+02  0.00000E+00  9.000E+00
       2     1     1     2   502     0  2.747444596E+01  1.974161135E+01 -3.310318774E+03  3.310491650E+03  0.000000000E+00  0.00000E+00  9.000E+00
#rwgt            1           1   2.8272821421600033E-002           4      128891           0
</event>
<event>
      5   9999  3.79277E-02  1.85479E+02 -1.00000E+00  1.12853E-01
      21    -1     0     0   502   511  0.000000000E+00  0.000000000E+00  5.857961243E+02  5.857961243E+02  0.000000000E+00  0.00000E+00  9.000E+00
      21    -1     0     0   501   502  0.000000000E+00  0.000000000E+00 -5.875363297E+02  5.875363297E+02  0.000000000E+00  0.00000E+00  9.000E+00
      25     1     1     2     0     0 -1.698744423E+02 -1.246971588E+02 -2.737981302E+02  3.674195472E+02  1.250000000E+02  0.00000E+00  9.000E+00
      25     1     1     2     0     0  2.580514070E+02 -3.848206279E+01 -1.636407254E+02  3.323773230E+02  1.250000000E+02  0.00000E+00  9.000E+00
      21     1     1     2   501   511 -8.817696473E+01  1.631792216E+02  4.356986501E+02  4.735355839E+02  0.000000000E+00  0.00000E+00  9.000E+00
#rwgt            1           1   2.9435167525174069E-002           4      129152           0
</event>
<event>
      5   9999  3.79277E-02  1.27100E+02 -1.00000E+00  1.19318E-01
      21    -1     0     0   502   501  0.000000000E+00  0.000000000E+00  5.150910389E+02  5.150910389E+02  0.000000000E+00  0.00000E+00  9.000E+00
       2    -1     0     0   501     0  0.000000000E+00  0.000000000E+00 -1.517346187E+03  1.517346187E+03  0.000000000E+00  0.00000E+00  9.000E+00
      25     1     1     2     0     0 -7.729101577E+01 -7.579423769E+01  4.791512862E+02  5.068822572E+02  1.250000000E+02  0.00000E+00  9.000E+00
      25     1     1     2     0     0  4.619433071E+01 -4.744337781E+01 -2.471232814E+02  2.847449850E+02  1.250000000E+02  0.00000E+00  9.000E+00
       2     1     1     2   502     0  3.109668507E+01  1.232376155E+02 -1.234283153E+03  1.240809983E+03  1.525878906E-05  0.00000E+00  9.000E+00
#rwgt            1           1   3.4233403495188400E-002           4      129404           0
</event>
<event>
      5   9999 -3.79277E-02  5.47363E+01 -1.00000E+00  1.36869E-01
      21    -1     0     0   502   501  0.000000000E+00  0.000000000E+00  2.278650262E+02  2.278650262E+02  0.000000000E+00  0.00000E+00  9.000E+00
      21    -1     0     0   501   511  0.000000000E+00  0.000000000E+00 -6.204588752E+02  6.204588752E+02  0.000000000E+00  0.00000E+00  9.000E+00
      25     1     1     2     0     0  1.612294398E+02  5.491268303E+01 -3.362096506E+02  3.970796699E+02  1.250000000E+02  0.00000E+00  9.000E+00
      25     1     1     2     0     0 -2.152019077E+02 -6.402484481E+01  1.074302568E+02  2.785270219E+02  1.250000000E+02  0.00000E+00  9.000E+00
      21     1     1     2   502   511  5.397246786E+01  9.112161776E+00 -1.638144552E+02  1.727172097E+02  1.907348633E-06  0.00000E+00  9.000E+00
#rwgt            1           1 -0.10837549414993697                4      129585           0
</event>
<event>
      5   9999  3.79277E-02  8.65343E+01 -1.00000E+00  1.26721E-01
      21    -1     0     0   512   501  0.000000000E+00  0.000000000E+00  5.276141064E+02  5.276141064E+02  0.000000000E+00  0.00000E+00  9.000E+00
      21    -1     0     0   501   502  0.000000000E+00  0.000000000E+00 -2.871112806E+02  2.871112806E+02  0.000000000E+00  0.00000E+00  9.000E+00
      25     1     1     2     0     0 -9.166347390E+00 -1.858982592E+02  6.437090582E+01  2.332612231E+02  1.250000000E+02  0.00000E+00  9.000E+00
      25     1     1     2     0     0  2.032109774E+01  1.000859620E+02 -1.642294209E+02  2.302747261E+02  1.250000000E+02  0.00000E+00  9.000E+00
      21     1     1     2   512   502 -1.115475035E+01  8.581229726E+01  3.403613409E+02  3.511894378E+02  5.394796609E-06  0.00000E+00  9.000E+00
#rwgt            2          11   1.3025455455345290E-003           4      129743           0
</event>
<event>
      5   9999  3.79277E-02  4.44577E+01 -1.00000E+00  1.42051E-01
      -1    -1     0     0     0   501  0.000000000E+00  0.000000000E+00  7.197011877E+02  7.197011877E+02  0.000000000E+00  0.00000E+00  9.000E+00
      21    -1     0     0   501   502  0.000000000E+00  0.000000000E+00 -2.356793877E+02  2.356793877E+02  0.000000000E+00  0.00000E+00  9.000E+00
      25     1     1     2     0     0  2.395580107E+01 -8.613294872E+01  2.494381685E+02  2.929798033E+02  1.250000000E+02  0.00000E+00  9.000E+00
      25     1     1     2     0     0  3.153945921E+00  1.213685242E+02 -1.770232748E+02  2.483998911E+02  1.250000000E+02  0.00000E+00  9.000E+00
      -1     1     1     2     0   502 -2.710974699E+01 -3.523557552E+01  4.116069064E+02  4.140008811E+02  7.629394531E-06  0.00000E+00  9.000E+00
#rwgt            1           1   5.2737460661981893E-002           4      129988           0
</event>
<event>
      5   9999  3.79277E-02  4.59760E+01 -1.00000E+00  1.41187E-01
      21    -1     0     0   502   501  0.000000000E+00  0.000000000E+00  1.240231267E+03  1.240231267E+03  0.000000000E+00  0.00000E+00  9.000E+00
      21    -1     0     0   501   511  0.000000000E+00  0.000000000E+00 -3.688204059E+01  3.688204059E+01  0.000000000E+00  0.00000E+00  9.000E+00
      25     1     1     2     0     0  1.449554093E+02 -1.865320482E+01  4.782566837E+02  5.154749929E+02  1.250000000E+02  0.00000E+00  9.000E+00
      25     1     1     2     0     0 -1.250909782E+02  6.011642499E+01  5.976130396E+02  6.261214598E+02  1.250000000E+02  0.00000E+00  9.000E+00
      21     1     1     2   502   511 -1.986443116E+01 -4.146322017E+01  1.274795032E+02  1.355168550E+02  0.000000000E+00  0.00000E+00  9.000E+00
#rwgt            1           1   3.2934137448808340E-002           4      130175           0
</event>
<event>
      5   9999  3.79277E-02  2.93195E+01 -1.00000E+00  1.53735E-01
      21    -1     0     0   502   501  0.000000000E+00  0.000000000E+00  4.598947128E+02  4.598947128E+02  0.000000000E+00  0.00000E+00  9.000E+00
      21    -1     0     0   501   512  0.000000000E+00  0.000000000E+00 -8.691332812E+01  8.691332812E+01  0.000000000E+00  0.00000E+00  9.000E+00
      25     1     1     2     0     0  8.744789767E+01  9.431622121E+01  1.549448826E+02  2.370139258E+02  1.250000000E+02  0.00000E+00  9.000E+00
      25     1     1     2     0     0 -7.313423426E+01 -1.199043099E+02  2.035264103E+02  2.770806010E+02  1.250000000E+02  0.00000E+00  9.000E+00
      21     1     1     2   502   512 -1.431366341E+01  2.558808870E+01  1.451009186E+01  3.271351417E+01  6.529361695E-07  0.00000E+00  9.000E+00
#rwgt            1           1   3.2328096545464355E-002           4      130274           0
</event>
<event>
      5   9999  3.79277E-02  8.17427E+01 -1.00000E+00  1.27898E-01
      21    -1     0     0   502   511  0.000000000E+00  0.000000000E+00  1.191830502E+03  1.191830502E+03  0.000000000E+00  0.00000E+00  9.000E+00
      21    -1     0     0   501   502  0.000000000E+00  0.000000000E+00 -3.726297398E+01  3.726297398E+01  0.000000000E+00  0.00000E+00  9.000E+00
      25     1     1     2     0     0  3.852582192E+01 -7.859216537E+01  3.993414361E+02  4.275038596E+02  1.250000000E+02  0.00000E+00  9.000E+00
      25     1     1     2     0     0  3.503410587E+01  1.142405443E+02  3.790100686E+02  4.165956344E+02  1.250000000E+02  0.00000E+00  9.000E+00
      21     1     1     2   501   511 -7.355992779E+01 -3.564837895E+01  3.762160236E+02  3.849939822E+02  5.394796609E-06  0.00000E+00  9.000E+00
#rwgt            1           1   4.2125698328055530E-002           4      130411           0
</event>
<event>
      5   9999  3.79277E-02  6.14369E+01 -1.00000E+00  1.34156E-01
      21    -1     0     0   502   501  0.000000000E+00  0.000000000E+00  1.015452021E+03  1.015452021E+03  0.000000000E+00  0.00000E+00  9.000E+00
      21    -1     0     0   512   502  0.000000000E+00  0.000000000E+00 -1.656274192E+02  1.656274192E+02  0.000000000E+00  0.00000E+00  9.000E+00
      25     1     1     2     0     0 -7.093295138E+01  1.788127148E+02  3.780271569E+02  4.421933988E+02  1.250000000E+02  0.00000E+00  9.000E+00
      25     1     1     2     0     0  1.039883556E+02 -1.270262811E+02  5.793646602E+02  6.150102956E+02  1.250000000E+02  0.00000E+00  9.000E+00
      21     1     1     2   512   501 -3.305540426E+01 -5.178643372E+01 -1.075672155E+02  1.238757455E+02  1.348699152E-06  0.00000E+00  9.000E+00
#rwgt            1           1   3.4756172328135708E-002           4      130445           0
</event>
<event>
      5   9999  3.79277E-02  1.36031E+02 -1.00000E+00  1.18101E-01
      21    -1     0     0   511   501  0.000000000E+00  0.000000000E+00  1.905584877E+03  1.905584877E+03  0.000000000E+00  0.00000E+00  9.000E+00
      21    -1     0     0   501   502  0.000000000E+00  0.000000000E+00 -3.916826892E+01  3.916826892E+01  0.000000000E+00  0.00000E+00  9.000E+00
      25     1     1     2     0     0  1.424728232E+01  1.551264535E+02  6.214098426E+02  6.527192307E+02  1.250000000E+02  0.00000E+00  9.000E+00
      25     1     1     2     0     0 -1.343847350E+02 -9.131920376E+01  6.446650528E+02  6.764735651E+02  1.250000000E+02  0.00000E+00  9.000E+00
      21     1     1     2   511   502  1.201374527E+02 -6.380724974E+01  6.003417126E+02  6.155603501E+02  7.629394531E-06  0.00000E+00  9.000E+00
#rwgt            1           1   3.2339816068424052E-002           4      130514           0
</event>
<event>
      5   9999  3.79277E-02  2.91899E+01 -1.00000E+00  1.53870E-01
      21    -1     0     0   502   512  0.000000000E+00  0.000000000E+00  7.637011621E+02  7.637011621E+02  0.000000000E+00  0.00000E+00  9.000E+00
      21    -1     0     0   501   502  0.000000000E+00  0.000000000E+00 -1.806640767E+02  1.806640767E+02  0.000000000E+00  0.00000E+00  9.000E+00
      25     1     1     2     0     0 -2.586841410E+02  1.470046317E+02  4.084914729E+02  5.205940165E+02  1.250000000E+02  0.00000E+00  9.000E+00
      25     1     1     2     0     0  2.878440419E+02 -1.483281951E+02  1.302785564E+02  3.707464743E+02  1.250000000E+02  0.00000E+00  9.000E+00
      21     1     1     2   501   512 -2.915990089E+01  1.323563355E+00  4.426705607E+01  5.302474793E+01  9.536743164E-07  0.00000E+00  9.000E+00
#rwgt            1           1   3.3549994034860975E-002           4      130688           0
</event>
<event>
      5   9999  3.79277E-02  1.01995E+01 -1.00000E+00  1.94771E-01
      21    -1     0     0   511   501  0.000000000E+00  0.000000000E+00  2.608948727E+02  2.608948727E+02  0.000000000E+00  0.00000E+00  9.000E+00
      21    -1     0     0   501   502  0.000000000E+00  0.000000000E+00 -4.104535903E+02  4.104535903E+02  0.000000000E+00  0.00000E+00  9.000E+00
      25     1     1     2     0     0 -5.159736724E+01  2.693467673E+01  1.733362477E+02  2.214909025E+02  1.250000000E+02  0.00000E+00  9.000E+00
      25     1     1     2     0     0  4.254589713E+01 -3.163583192E+01 -3.739272514E+02  3.978159984E+02  1.250000000E+02  0.00000E+00  9.000E+00
      21     1     1     2   511   502  9.051470112E+00  4.701155185E+00  5.103228610E+01  5.204156219E+01  6.743495762E-07  0.00000E+00  9.000E+00
#rwgt            1           1   3.2699021628445207E-002           4      130927           0
</event>
<event>
      5   9999  3.79277E-02  3.07291E+01 -1.00000E+00  1.52319E-01
      21    -1     0     0   502   501  0.000000000E+00  0.000000000E+00  2.501968713E+02  2.501968713E+02  0.000000000E+00  0.00000E+00  9.000E+00
      21    -1     0     0   501   512  0.000000000E+00  0.000000000E+00 -3.955580349E+02  3.955580349E+02  0.000000000E+00  0.00000E+00  9.000E+00
      25     1     1     2     0     0 -2.288634387E+02  6.352057234E+01  3.669217604E+01  2.708960178E+02  1.250000000E+02  0.00000E+00  9.000E+00
      25     1     1     2     0     0  2.576683349E+02 -7.422373002E+01 -1.553942291E+02  3.341773471E+02  1.250000000E+02  0.00000E+00  9.000E+00
      21     1     1     2   502   512 -2.880489619E+01  1.070315768E+01 -2.665911046E+01  4.068154126E+01  5.840038640E-07  0.00000E+00  9.000E+00
#rwgt            1           1   3.5177368039854627E-002           4      131191           0
</event>
<event>
      5   9999  3.79277E-02  1.89010E+01 -1.00000E+00  1.68420E-01
      21    -1     0     0   511   501  0.000000000E+00  0.000000000E+00  1.783122331E+02  1.783122331E+02  0.000000000E+00  0.00000E+00  9.000E+00
      21    -1     0     0   501   502  0.000000000E+00  0.000000000E+00 -1.237338475E+02  1.237338475E+02  0.000000000E+00  0.00000E+00  9.000E+00
      25     1     1     2     0     0  1.750014202E+01  5.909903588E+01  2.401870859E+01  1.414243592E+02  1.250000000E+02  0.00000E+00  9.000E+00
      25     1     1     2     0     0 -7.512309852E+00 -4.305254669E+01  1.015550864E+01  1.328084746E+02  1.250000000E+02  0.00000E+00  9.000E+00
      21     1     1     2   511   502 -9.987832164E+00 -1.604648920E+01  2.040416839E+01  2.781324675E+01  4.768371582E-07  0.00000E+00  9.000E+00
#rwgt            1           1   1.9644791263330397E-002           4      131439           0
</event>
<event>
      5   9999  3.79277E-02  5.23172E+00 -1.00000E+00  2.35129E-01
      21    -1     0     0   512   501  0.000000000E+00  0.000000000E+00  9.222816623E+01  9.222816623E+01  0.000000000E+00  0.00000E+00  9.000E+00
      21    -1     0     0   501   502  0.000000000E+00  0.000000000E+00 -7.732078274E+02  7.732078274E+02  0.000000000E+00  0.00000E+00  9.000E+00
      25     1     1     2     0     0 -7.121035508E+01 -8.157888522E+01 -6.223468117E+02  6.439461027E+02  1.250000000E+02  0.00000E+00  9.000E+00
      25     1     1     2     0     0  6.637908846E+01  8.358629942E+01 -9.155860212E+01  1.881510841E+02  1.250000000E+02  0.00000E+00  9.000E+00
      21     1     1     2   512   502  4.831266617E+00 -2.007414203E+00  3.292575265E+01  3.333880676E+01  1.168007728E-06  0.00000E+00  9.000E+00
#rwgt            1           1   4.3108178515902103E-002           4      131747           0
</event>
<event>
      5   9999  3.79277E-02  3.57594E+01 -1.00000E+00  1.47925E-01
      21    -1     0     0   511   501  0.000000000E+00  0.000000000E+00  1.942625932E+02  1.942625932E+02  0.000000000E+00  0.00000E+00  9.000E+00
      21    -1     0     0   501   502  0.000000000E+00  0.000000000E+00 -1.794689935E+02  1.794689935E+02  0.000000000E+00  0.00000E+00  9.000E+00
      25     1     1     2     0     0 -7.777889622E+01  9.782135310E+01 -2.560883266E+01  1.786039925E+02  1.250000000E+02  0.00000E+00  9.000E+00
      25     1     1     2     0     0  6.580649657E+01 -6.412576246E+01  3.320313275E+01  1.586507372E+02  1.250000000E+02  0.00000E+00  9.000E+00
      21     1     1     2   511   502  1.197239964E+01 -3.369559064E+01  7.199299569E+00  3.647685699E+01  3.264680848E-07  0.00000E+00  9.000E+00
#rwgt            1           1   8.5024945931668913E-002           4      132035           0
</event>
<event>
      5   9999  3.79277E-02  2.30517E+01 -1.00000E+00  1.61436E-01
      21    -1     0     0   502   512  0.000000000E+00  0.000000000E+00  3.284708115E+03  3.284708115E+03  0.000000000E+00  0.00000E+00  9.000E+00
      21    -1     0     0   501   502  0.000000000E+00  0.000000000E+00 -3.260709147E+01  3.260709147E+01  0.000000000E+00  0.00000E+00  9.000E+00
      25     1     1     2     0     0 -7.150035205E+01  2.099571062E+02  1.218044694E+03  1.244368179E+03  1.250000000E+02  0.00000E+00  9.000E+00
      25     1     1     2     0     0  4.877092903E+01 -2.061161878E+02  7.625196120E+02  8.012013761E+02  1.250000000E+02  0.00000E+00  9.000E+00
      21     1     1     2   501   512  2.272942302E+01 -3.840918387E+00  1.271536717E+03  1.271745652E+03  1.525878906E-05  0.00000E+00  9.000E+00
#rwgt            1           1  0.10647059472091046                4      132120           0
</event>
<event>
      5   9999  3.79277E-02  2.62513E+01 -1.00000E+00  1.57178E-01
      21    -1     0     0   511   501  0.000000000E+00  0.000000000E+00  5.824283334E+01  5.824283334E+01  0.000000000E+00  0.00000E+00  9.000E+00
      21    -1     0     0   501   502  0.000000000E+00  0.000000000E+00 -7.402998064E+02  7.402998064E+02  0.000000000E+00  0.00000E+00  9.000E+00
      25     1     1     2     0     0 -9.464609846E+01 -1.168436556E+02 -3.008614705E+02  3.588216106E+02  1.250000000E+02  0.00000E+00  9.000E+00
      25     1     1     2     0     0  9.954956032E+01  9.105435331E+01 -3.654210764E+02  4.090948219E+02  1.250000000E+02  0.00000E+00  9.000E+00
      21     1     1     2   511   502 -4.903461864E+00  2.578930226E+01 -1.577442613E+01  3.062620722E+01  6.951036328E-07  0.00000E+00  9.000E+00
#rwgt            1           1   3.3707617457170477E-002           4      132305           0
</event>
<event>
      5   9999  3.79277E-02  4.46692E+01 -1.00000E+00  1.41928E-01
      21    -1     0     0   512   501  0.000000000E+00  0.000000000E+00  2.148941849E+02  2.148941849E+02  0.000000000E+00  0.00000E+00  9.000E+00
      21    -1     0     0   501   502  0.000000000E+00  0.000000000E+00 -5.267453606E+02  5.267453606E+02  0.000000000E+00  0.00000E+00  9.000E+00
      25     1     1     2     0     0  6.662786084E+01 -2.828182157E+01 -2.486837920E+02  2.875895715E+02  1.250000000E+02  0.00000E+00  9.000E+00
      25     1     1     2     0     0 -9.790995850E+01 -3.604977757E+00 -2.310244828E+02  2.803509720E+02  1.250000000E+02  0.00000E+00  9.000E+00
      21     1     1     2   512   502  3.128209766E+01  3.188679932E+01  1.678570990E+02  1.736990020E+02  3.303624740E-06  0.00000E+00  9.000E+00
#rwgt            1           1   8.6955029654280119E-002           4      132537           0
</event>
<event>
      5   9999  3.79277E-02  2.74462E+01 -1.00000E+00  1.55773E-01
      21    -1     0     0   511   501  0.000000000E+00  0.000000000E+00  3.376683904E+01  3.376683904E+01  0.000000000E+00  0.00000E+00  9.000E+00
      21    -1     0     0   501   502  0.000000000E+00  0.000000000E+00 -3.425931601E+03  3.425931601E+03  0.000000000E+00  0.00000E+00  9.000E+00
      25     1     1     2     0     0 -1.957576011E+02  1.212656017E+02 -2.065017823E+03  2.081573923E+03  1.250000000E+02  0.00000E+00  9.000E+00
      25     1     1     2     0     0  2.225990254E+02 -1.269955363E+02 -1.319038327E+03  1.349505576E+03  1.250000000E+02  0.00000E+00  9.000E+00
      21     1     1     2   511   502 -2.684142434E+01  5.729934644E+00 -8.108611680E+00  2.861894119E+01  1.643186659E-06  0.00000E+00  9.000E+00
#rwgt            1           1   2.0877555651913900E-002           4      132647           0
</event>
<event>
      5   9999  3.79277E-02  3.53204E+01 -1.00000E+00  1.48273E-01
      21    -1     0     0   502   501  0.000000000E+00  0.000000000E+00  8.613625757E+01  8.613625757E+01  0.000000000E+00  0.00000E+00  9.000E+00
      21    -1     0     0   501   512  0.000000000E+00  0.000000000E+00 -7.363945365E+02  7.363945365E+02  0.000000000E+00  0.00000E+00  9.000E+00
      25     1     1     2     0     0 -1.622270105E+02  2.198364419E+00 -3.505703788E+02  4.060135789E+02  1.250000000E+02  0.00000E+00  9.000E+00
      25     1     1     2     0     0  1.963307283E+02 -1.138883169E+01 -1.880902141E+02  2.994635019E+02  1.250000000E+02  0.00000E+00  9.000E+00
      21     1     1     2   502   512 -3.410371773E+01  9.190467273E+00 -1.115976861E+02  1.170537133E+02  1.907348633E-06  0.00000E+00  9.000E+00
#rwgt            1           1   3.9834614726886479E-002           4      132805           0
</event>
<event>
      5   9999  3.79277E-02  5.48801E+01 -1.00000E+00  1.36807E-01
      21    -1     0     0   511   501  0.000000000E+00  0.000000000E+00  6.009044815E+01  6.009044815E+01  0.000000000E+00  0.00000E+00  9.000E+00
      21    -1     0     0   501   502  0.000000000E+00  0.000000000E+00 -1.164172035E+03  1.164172035E+03  0.000000000E+00  0.00000E+00  9.000E+00
      25     1     1     2     0     0 -1.164023376E+02 -3.710494550E+01 -9.133838430E+02  9.299577011E+02  1.250000000E+02  0.00000E+00  9.000E+00
      25     1     1     2     0     0  8.151284935E+01 -5.257133861E+00 -7.688898855E+01  1.679550494E+02  1.250000000E+02  0.00000E+00  9.000E+00
      21     1     1     2   511   502  3.488948827E+01  4.236207936E+01 -1.138087556E+02  1.263497329E+02  1.907348633E-06  0.00000E+00  9.000E+00
#rwgt            1           1   4.8461245488814864E-002           4      132993           0
</event>
<event>
      5   9999  3.79277E-02  3.23847E+01 -1.00000E+00  1.50768E-01
      21    -1     0     0   502   512  0.000000000E+00  0.000000000E+00  1.162088231E+02  1.162088231E+02  0.000000000E+00  0.00000E+00  9.000E+00
      21    -1     0     0   501   502  0.000000000E+00  0.000000000E+00 -7.184668896E+02  7.184668896E+02  0.000000000E+00  0.00000E+00  9.000E+00
      25     1     1     2     0     0  3.144082474E+01  1.230773422E+02 -2.008854074E+02  2.685451629E+02  1.250000000E+02  0.00000E+00  9.000E+00
      25     1     1     2     0     0 -9.829688411E+00 -9.895833350E+01 -4.666666786E+02  4.932465544E+02  1.250000000E+02  0.00000E+00  9.000E+00
      21     1     1     2   501   512 -2.161113633E+01 -2.411900870E+01  6.529401954E+01  7.288399537E+01  2.336015456E-06  0.00000E+00  9.000E+00
#rwgt            1           1   3.5301788392566508E-002           4      133096           0
</event>
<event>
      5   9999  3.79277E-02  8.71981E+01 -1.00000E+00  1.26564E-01
      21    -1     0     0   502   511  0.000000000E+00  0.000000000E+00  1.115043297E+03  1.115043297E+03  0.000000000E+00  0.00000E+00  9.000E+00
      21    -1     0     0   501   502  0.000000000E+00  0.000000000E+00 -6.467781223E+01  6.467781223E+01  0.000000000E+00  0.00000E+00  9.000E+00
      25     1     1     2     0     0  6.960828042E+01 -1.523988104E+02  6.199073422E+02  6.542024327E+02  1.250000000E+02  0.00000E+00  9.000E+00
      25     1     1     2     0     0 -9.380315501E+01  6.862457453E+01  1.354672676E+02  2.179099463E+02  1.250000000E+02  0.00000E+00  9.000E+00
      21     1     1     2   501   511  2.419487459E+01  8.377423585E+01  2.949908749E+02  3.076087300E+02  5.394796609E-06  0.00000E+00  9.000E+00
#rwgt            1           1   3.1825777822474983E-002           4      133229           0
</event>
<event>
      5   9999  3.79277E-02  3.18334E+01 -1.00000E+00  1.51272E-01
       3    -1     0     0   502     0  0.000000000E+00  0.000000000E+00  1.056835596E+03  1.056835596E+03  0.000000000E+00  0.00000E+00  9.000E+00
      21    -1     0     0   501   502  0.000000000E+00  0.000000000E+00 -1.013769973E+02  1.013769973E+02  0.000000000E+00  0.00000E+00  9.000E+00
      25     1     1     2     0     0  5.579692044E+01 -5.424390384E+00 -3.195245703E+01  1.406722427E+02  1.250000000E+02  0.00000E+00  9.000E+00
      25     1     1     2     0     0 -6.989695986E+01  3.396481617E+01  3.546656832E+02  3.839947143E+02  1.250000000E+02  0.00000E+00  9.000E+00
       3     1     1     2   501     0  1.410003942E+01 -2.854042578E+01  6.327453726E+02  6.335456365E+02  0.000000000E+00  0.00000E+00  9.000E+00
#rwgt            1           1   5.0101068759315685E-002           4      133336           0
</event>
<event>
      5   9999  3.79277E-02  4.07351E+01 -1.00000E+00  1.44351E-01
      21    -1     0     0   511   501  0.000000000E+00  0.000000000E+00  2.407444683E+02  2.407444683E+02  0.000000000E+00  0.00000E+00  9.000E+00
      21    -1     0     0   501   502  0.000000000E+00  0.000000000E+00 -8.469323838E+02  8.469323838E+02  0.000000000E+00  0.00000E+00  9.000E+00
      25     1     1     2     0     0 -7.596326937E+01 -2.589589317E+01 -1.411366568E+02  2.049038103E+02  1.250000000E+02  0.00000E+00  9.000E+00
      25     1     1     2     0     0  9.930902068E+01 -7.485617913E+00 -6.623261523E+02  6.813363692E+02  1.250000000E+02  0.00000E+00  9.000E+00
      21     1     1     2   511   502 -2.334575131E+01  3.338151109E+01  1.972748936E+02  2.014366725E+02  5.394796609E-06  0.00000E+00  9.000E+00
#rwgt            1           1   4.0633597891813270E-002           4      133490           0
</event>
<event>
      5   9999  3.79277E-02  5.53719E+01 -1.00000E+00  1.36593E-01
      21    -1     0     0   502   501  0.000000000E+00  0.000000000E+00  1.194228232E+02  1.194228232E+02  0.000000000E+00  0.00000E+00  9.000E+00
      21    -1     0     0   501   512  0.000000000E+00  0.000000000E+00 -6.253278688E+02  6.253278688E+02  0.000000000E+00  0.00000E+00  9.000E+00
      25     1     1     2     0     0 -4.715707847E+01 -1.152900630E+02 -2.485594845E+02  3.048317667E+02  1.250000000E+02  0.00000E+00  9.000E+00
      25     1     1     2     0     0  9.872400873E+01  1.354617620E+02 -3.652595073E+01  2.122627239E+02  1.250000000E+02  0.00000E+00  9.000E+00
      21     1     1     2   502   512 -5.156693026E+01 -2.017169903E+01 -2.208196103E+02  2.276562014E+02  0.000000000E+00  0.00000E+00  9.000E+00
#rwgt            1           1   3.5792542791137250E-002           4      133632           0
</event>
<event>
      5   9999  3.79277E-02  2.90936E+01 -1.00000E+00  1.53971E-01
      21    -1     0     0   502   501  0.000000000E+00  0.000000000E+00  3.421116341E+02  3.421116341E+02  0.000000000E+00  0.00000E+00  9.000E+00
      21    -1     0     0   501   511  0.000000000E+00  0.000000000E+00 -1.051197166E+02  1.051197166E+02  0.000000000E+00  0.00000E+00  9.000E+00
      25     1     1     2     0     0  7.670592884E+01  6.517511948E+01  3.903292304E+01  1.651670815E+02  1.250000000E+02  0.00000E+00  9.000E+00
      25     1     1     2     0     0 -4.949479168E+01 -7.547032397E+01  2.004265936E+02  2.528662169E+02  1.250000000E+02  0.00000E+00  9.000E+00
      21     1     1     2   502   511 -2.721113716E+01  1.029520449E+01 -2.467599123E+00  2.919805244E+01  5.479090306E-07  0.00000E+00  9.000E+00
#rwgt            1           1   4.4258212912085697E-002           4      133795           0
</event>
<event>
      5   9999  3.79277E-02  3.10114E+01 -1.00000E+00  1.52046E-01
      21    -1     0     0   502   512  0.000000000E+00  0.000000000E+00  9.314166746E+02  9.314166746E+02  0.000000000E+00  0.00000E+00  9.000E+00
      21    -1     0     0   501   502  0.000000000E+00  0.000000000E+00 -9.728716855E+01  9.728716855E+01  0.000000000E+00  0.00000E+00  9.000E+00
      25     1     1     2     0     0  2.405693654E+02 -1.002461458E+02  4.929993843E+02  5.714860473E+02  1.250000000E+02  0.00000E+00  9.000E+00
      25     1     1     2     0     0 -2.095584433E+02  1.004231113E+02  2.603262002E+02  3.706673346E+02  1.250000000E+02  0.00000E+00  9.000E+00
      21     1     1     2   501   512 -3.101092213E+01 -1.769654900E-01  8.080392157E+01  8.655046128E+01  0.000000000E+00  0.00000E+00  9.000E+00
#rwgt            1           1  0.27294188866017860                4      133893           0
</event>
<event>
      5   9999  3.79277E-02  3.96004E+01 -1.00000E+00  1.45111E-01
      21    -1     0     0   502   501  0.000000000E+00  0.000000000E+00  4.619937522E+02  4.619937522E+02  0.000000000E+00  0.00000E+00  9.000E+00
      21    -1     0     0   511   502  0.000000000E+00  0.000000000E+00 -1.189764117E+02  1.189764117E+02  0.000000000E+00  0.00000E+00  9.000E+00
      25     1     1     2     0     0  1.520051468E+02  2.562267852E+01  5.628465267E+01  2.062887501E+02  1.250000000E+02  0.00000E+00  9.000E+00
      25     1     1     2     0     0 -1.151549142E+02 -4.012266126E+01  2.859701120E+02  3.350737041E+02  1.250000000E+02  0.00000E+00  9.000E+00
      21     1     1     2   511   501 -3.685023261E+01  1.449998273E+01  7.625758435E-01  3.960770966E+01  7.677352433E-07  0.00000E+00  9.000E+00
#rwgt            1           1   3.6582527711877491E-002           4      134043           0
</event>
<event>
      5   9999  3.79277E-02  2.34081E+01 -1.00000E+00  1.60921E-01
      21    -1     0     0   502   512  0.000000000E+00  0.000000000E+00  1.283337909E+02  1.283337909E+02  0.000000000E+00  0.00000E+00  9.000E+00
      21    -1     0     0   501   502  0.000000000E+00  0.000000000E+00 -5.654712295E+02  5.654712295E+02  0.000000000E+00  0.00000E+00  9.000E+00
      25     1     1     2     0     0 -7.631499219E+01 -2.148254536E+02 -1.922042352E+02  3.233286588E+02  1.250000000E+02  0.00000E+00  9.000E+00
      25     1     1     2     0     0  8.131224639E+01  1.919569798E+02 -2.475325371E+02  3.469243728E+02  1.250000000E+02  0.00000E+00  9.000E+00
      21     1     1     2   501   512 -4.997254199E+00  2.286847377E+01  2.599333619E+00  2.355198882E+01  2.980232239E-08  0.00000E+00  9.000E+00
#rwgt            1           1   3.9190592662411851E-002           4      134305           0
</event>
<event>
      5   9999  3.79277E-02  2.57843E+01 -1.00000E+00  1.57753E-01
      21    -1     0     0   502   501  0.000000000E+00  0.000000000E+00  2.250602995E+02  2.250602995E+02  0.000000000E+00  0.00000E+00  9.000E+00
      21    -1     0     0   511   502  0.000000000E+00  0.000000000E+00 -3.454606005E+02  3.454606005E+02  0.000000000E+00  0.00000E+00  9.000E+00
      25     1     1     2     0     0  9.496292499E+01 -4.007735763E+01  1.678017491E+02  2.332521784E+02  1.250000000E+02  0.00000E+00  9.000E+00
      25     1     1     2     0     0 -7.889121030E+01  1.991471515E+01 -2.390156156E+02  2.817337102E+02  1.250000000E+02  0.00000E+00  9.000E+00
      21     1     1     2   511   501 -1.607171468E+01  2.016264248E+01 -4.918643444E+01  5.553501146E+01  6.743495762E-07  0.00000E+00  9.000E+00
#rwgt            1           1   4.5869876137654114E-002           4      134566           0
</event>
<event>
      5   9999  3.79277E-02  1.18713E+01 -1.00000E+00  1.87522E-01
      21    -1     0     0   502   501  0.000000000E+00  0.000000000E+00  5.082762574E+01  5.082762574E+01  0.000000000E+00  0.00000E+00  9.000E+00
      21    -1     0     0   512   502  0.000000000E+00  0.000000000E+00 -2.132820916E+03  2.132820916E+03  0.000000000E+00  0.00000E+00  9.000E+00
      25     1     1     2     0     0 -3.369462580E+01 -8.917152503E+01 -8.360003020E+01  1.780473357E+02  1.250000000E+02  0.00000E+00  9.000E+00
      25     1     1     2     0     0  4.490182203E+01  8.525671630E+01 -1.832852637E+03  1.839635472E+03  1.250000000E+02  0.00000E+00  9.000E+00
      21     1     1     2   512   501 -1.120719623E+01  3.914808727E+00 -1.655406230E+02  1.659657339E+02  2.697398305E-06  0.00000E+00  9.000E+00
#rwgt            1           1   4.5043045783136962E-002           4      134727           0
</event>
<event>
      5   9999  3.79277E-02  5.98545E+01 -1.00000E+00  1.34760E-01
      21    -1     0     0   502   511  0.000000000E+00  0.000000000E+00  1.311728170E+02  1.311728170E+02  0.000000000E+00  0.00000E+00  9.000E+00
      21    -1     0     0   501   502  0.000000000E+00  0.000000000E+00 -5.063516825E+02  5.063516825E+02  0.000000000E+00  0.00000E+00  9.000E+00
      25     1     1     2     0     0  9.396641832E+01  7.781215222E+01 -1.105058460E+02  2.066904952E+02  1.250000000E+02  0.00000E+00  9.000E+00
      25     1     1     2     0     0 -1.257539262E+02 -1.285281799E+02 -2.920327127E+02  3.650228051E+02  1.250000000E+02  0.00000E+00  9.000E+00
      21     1     1     2   501   511  3.178750783E+01  5.071602772E+01  2.735969319E+01  6.581119915E+01  9.536743164E-07  0.00000E+00  9.000E+00
#rwgt            1           1   3.5527126019164183E-002           4      134959           0
</event>
<event>
      5   9999  3.79277E-02  1.46025E+02 -1.00000E+00  1.16858E-01
      21    -1     0     0   512   501  0.000000000E+00  0.000000000E+00  4.979440169E+02  4.979440169E+02  0.000000000E+00  0.00000E+00  9.000E+00
      21    -1     0     0   501   502  0.000000000E+00  0.000000000E+00 -1.881475514E+02  1.881475514E+02  0.000000000E+00  0.00000E+00  9.000E+00
      25     1     1     2     0     0 -3.640978501E+01 -3.542105066E+01 -8.004990585E+01  1.568862986E+02  1.250000000E+02  0.00000E+00  9.000E+00
      25     1     1     2     0     0 -4.831519099E+01  1.543534566E+02  2.790275353E+02  3.458911862E+02  1.250000000E+02  0.00000E+00  9.000E+00
      21     1     1     2   512   502  8.472497600E+01 -1.189324060E+02  1.108188361E+02  1.833140834E+02  3.568322551E-06  0.00000E+00  9.000E+00
#rwgt            2          11   2.6545455106356092E-003           4      135127           0
</event>
<event>
      5   9999  3.79277E-02  3.20393E+01 -1.00000E+00  1.51082E-01
      21    -1     0     0   502   501  0.000000000E+00  0.000000000E+00  4.619507394E+01  4.619507394E+01  0.000000000E+00  0.00000E+00  9.000E+00
      21    -1     0     0   501   511  0.000000000E+00  0.000000000E+00 -6.619374986E+02  6.619374986E+02  0.000000000E+00  0.00000E+00  9.000E+00
      25     1     1     2     0     0  2.417411463E+01 -2.339034403E+01 -4.424633983E+02  4.610101461E+02  1.250000000E+02  0.00000E+00  9.000E+00
      25     1     1     2     0     0 -5.003771685E+01  4.480313809E+00 -1.020068716E+02  1.689800230E+02  1.250000000E+02  0.00000E+00  9.000E+00
      21     1     1     2   502   511  2.586360222E+01  1.891003022E+01 -7.127215483E+01  7.814240345E+01  1.907348633E-06  0.00000E+00  9.000E+00
#rwgt            1           1   4.5235354621214613E-002           4      135177           0
</event>
<event>
      5   9999  3.79277E-02  5.87932E+01 -1.00000E+00  1.35177E-01
      21    -1     0     0   502   501  0.000000000E+00  0.000000000E+00  4.273524415E+02  4.273524415E+02  0.000000000E+00  0.00000E+00  9.000E+00
      21    -1     0     0   501   512  0.000000000E+00  0.000000000E+00 -2.548408191E+02  2.548408191E+02  0.000000000E+00  0.00000E+00  9.000E+00
      25     1     1     2     0     0 -2.254875726E+01 -1.431156386E+02  1.119744660E+02  2.217065933E+02  1.250000000E+02  0.00000E+00  9.000E+00
      25     1     1     2     0     0 -3.609345824E+01  1.389052255E+02  2.197824421E+02  2.907347954E+02  1.250000000E+02  0.00000E+00  9.000E+00
      21     1     1     2   502   512  5.864221550E+01  4.210413104E+00 -1.592452856E+02  1.697518719E+02  0.000000000E+00  0.00000E+00  9.000E+00
#rwgt            1           1   3.4530640935614913E-002           4      135295           0
</event>
<event>
      5   9999  3.79277E-02  1.62458E+02 -1.00000E+00  1.15037E-01
      21    -1     0     0   502   501  0.000000000E+00  0.000000000E+00  1.650347351E+02  1.650347351E+02  0.000000000E+00  0.00000E+00  9.000E+00
       2    -1     0     0   501     0  0.000000000E+00  0.000000000E+00 -1.883719641E+03  1.883719641E+03  0.000000000E+00  0.00000E+00  9.000E+00
      25     1     1     2     0     0  5.056089229E+01 -8.550650512E+01 -2.232514832E+02  2.744703827E+02  1.250000000E+02  0.00000E+00  9.000E+00
      25     1     1     2     0     0 -9.808454962E+00 -7.175698554E+01  9.672660022E+01  1.738571424E+02  1.250000000E+02  0.00000E+00  9.000E+00
       2     1     1     2   502     0 -4.075243733E+01  1.572634907E+02 -1.592160023E+03  1.600426851E+03  2.157918644E-05  0.00000E+00  9.000E+00
#rwgt            2          13   1.9699398069406098E-003           4      135386           0
</event>
<event>
      5   9999  3.79277E-02  4.36527E+01 -1.00000E+00  1.42525E-01
      21    -1     0     0   502   511  0.000000000E+00  0.000000000E+00  5.676438299E+02  5.676438299E+02  0.000000000E+00  0.00000E+00  9.000E+00
      21    -1     0     0   501   502  0.000000000E+00  0.000000000E+00 -1.683974946E+02  1.683974946E+02  0.000000000E+00  0.00000E+00  9.000E+00
      25     1     1     2     0     0 -1.061553622E+02 -3.798619997E+01  9.996988920E+01  1.957827650E+02  1.250000000E+02  0.00000E+00  9.000E+00
      25     1     1     2     0     0  1.498036987E+02  3.860412403E+01 -3.602774013E+01  2.021247748E+02  1.250000000E+02  0.00000E+00  9.000E+00
      21     1     1     2   501   511 -4.364833657E+01 -6.179240589E-01  3.353041862E+02  3.381337848E+02  3.814697266E-06  0.00000E+00  9.000E+00
#rwgt            1           1   4.1003096755020348E-002           4      135405           0
</event>
<event>
      5   9999  3.79277E-02  4.75627E+01 -1.00000E+00  1.40325E-01
      21    -1     0     0   502   512  0.000000000E+00  0.000000000E+00  2.676128957E+02  2.676128957E+02  0.000000000E+00  0.00000E+00  9.000E+00
      21    -1     0     0   501   502  0.000000000E+00  0.000000000E+00 -9.136278783E+02  9.136278783E+02  0.000000000E+00  0.00000E+00  9.000E+00
      25     1     1     2     0     0  5.719872899E+01 -1.815834980E+02 -6.387436946E+02  6.781318226E+02  1.250000000E+02  0.00000E+00  9.000E+00
      25     1     1     2     0     0 -9.990110080E+00  1.757908954E+02 -2.062003252E+02  2.985729649E+02  1.250000000E+02  0.00000E+00  9.000E+00
      21     1     1     2   501   512 -4.720861891E+01  5.792602558E+00  1.989290373E+02  2.045359866E+02  5.394796609E-06  0.00000E+00  9.000E+00
#rwgt            1           1   3.9635115341571277E-002           4      135559           0
</event>
<event>
      5   9999  3.79277E-02  2.23276E+02 -1.00000E+00  1.09935E-01
       2    -1     0     0   502     0  0.000000000E+00  0.000000000E+00  8.927440651E+02  8.927440651E+02  0.000000000E+00  0.00000E+00  9.000E+00
      21    -1     0     0   501   502  0.000000000E+00  0.000000000E+00 -1.806000412E+02  1.806000412E+02  0.000000000E+00  0.00000E+00  9.000E+00
      25     1     1     2     0     0 -2.498306715E+02 -1.761468884E+01  4.360260002E+01  2.832875366E+02  1.250000000E+02  0.00000E+00  9.000E+00
      25     1     1     2     0     0  7.377265045E+01 -1.197017303E+02  2.234784698E+02  2.921276000E+02  1.250000000E+02  0.00000E+00  9.000E+00
       2     1     1     2   501     0  1.760580210E+02  1.373164191E+02  4.450629541E+02  4.979289697E+02  5.394796609E-06  0.00000E+00  9.000E+00
#rwgt            2          18   3.1478935505984562E-004           4      135694           0
</event>
<event>
      5   9999  3.79277E-02  3.30121E+01 -1.00000E+00  1.50209E-01
      21    -1     0     0   511   501  0.000000000E+00  0.000000000E+00  2.786128379E+02  2.786128379E+02  0.000000000E+00  0.00000E+00  9.000E+00
      21    -1     0     0   501   502  0.000000000E+00  0.000000000E+00 -2.399998662E+02  2.399998662E+02  0.000000000E+00  0.00000E+00  9.000E+00
      25     1     1     2     0     0  2.394014139E+01  1.251828089E+02 -1.247344429E+02  2.177786658E+02  1.250000000E+02  0.00000E+00  9.000E+00
      25     1     1     2     0     0 -1.963071412E+01 -1.579123731E+02  9.213310914E+01  2.223402625E+02  1.250000000E+02  0.00000E+00  9.000E+00
      21     1     1     2   511   502 -4.309427274E+00  3.272956420E+01  7.121430549E+01  7.849377582E+01  9.536743164E-07  0.00000E+00  9.000E+00
#rwgt            1           1   3.4189444600244125E-002           4      135758           0
</event>
<event>
      5   9999  3.79277E-02  1.28739E+01 -1.00000E+00  1.83874E-01
      21    -1     0     0   502   501  0.000000000E+00  0.000000000E+00  4.785364916E+02  4.785364916E+02  0.000000000E+00  0.00000E+00  9.000E+00
      21    -1     0     0   501   512  0.000000000E+00  0.000000000E+00 -1.261506366E+02  1.261506366E+02  0.000000000E+00  0.00000E+00  9.000E+00
      25     1     1     2     0     0  1.467738876E+00 -1.920505490E+02  2.725495632E+02  3.560812155E+02  1.250000000E+02  0.00000E+00  9.000E+00
      25     1     1     2     0     0  6.108449175E+00  1.816419220E+02  8.241785215E+01  2.354756958E+02  1.250000000E+02  0.00000E+00  9.000E+00
      21     1     1     2   502   512 -7.576188051E+00  1.040862700E+01 -2.581560322E+00  1.313021687E+01  2.995096332E-07  0.00000E+00  9.000E+00
#rwgt            1           1   4.3821221382846928E-002           4      135925           0
</event>
<event>
      5   9999  3.79277E-02  2.16593E+01 -1.00000E+00  1.63563E-01
      21    -1     0     0   502   511  0.000000000E+00  0.000000000E+00  1.210123019E+03  1.210123019E+03  0.000000000E+00  0.00000E+00  9.000E+00
      21    -1     0     0   501   502  0.000000000E+00  0.000000000E+00 -5.287458550E+01  5.287458550E+01  0.000000000E+00  0.00000E+00  9.000E+00
      25     1     1     2     0     0 -1.658836012E+02 -5.744467701E+01  6.181681892E+02  6.546557647E+02  1.250000000E+02  0.00000E+00  9.000E+00
      25     1     1     2     0     0  1.608551155E+02  7.851222370E+01  3.152489626E+02  3.834650517E+02  1.250000000E+02  0.00000E+00  9.000E+00
      21     1     1     2   501   511  5.028485712E+00 -2.106754668E+01  2.238312812E+02  2.248767877E+02  3.814697266E-06  0.00000E+00  9.000E+00
#rwgt            1           1   4.0404001185070329E-002           4      136133           0
</event>
<event>
      5   9999  3.79277E-02  1.41201E+01 -1.00000E+00  1.79893E-01
      21    -1     0     0   502   501  0.000000000E+00  0.000000000E+00  1.112317724E+02  1.112317724E+02  0.000000000E+00  0.00000E+00  9.000E+00
      21    -1     0     0   501   512  0.000000000E+00  0.000000000E+00 -3.189160547E+02  3.189160547E+02  0.000000000E+00  0.00000E+00  9.000E+00
      25     1     1     2     0     0  4.142228981E+01  5.135640235E+01 -2.335216493E+02  2.729663841E+02  1.250000000E+02  0.00000E+00  9.000E+00
      25     1     1     2     0     0 -3.695092181E+01 -3.796297296E+01  3.518431075E+01  1.402479720E+02  1.250000000E+02  0.00000E+00  9.000E+00
      21     1     1     2   502   512 -4.471367997E+00 -1.339342939E+01 -9.346943785E+00  1.693347102E+01  2.920019320E-07  0.00000E+00  9.000E+00
#rwgt            1           1   3.1698972612125599E-002           4      136298           0
</event>
<event>
      5   9999  3.79277E-02  8.59578E+01 -1.00000E+00  1.26858E-01
       2    -1     0     0   502     0  0.000000000E+00  0.000000000E+00  3.330056726E+03  3.330056726E+03  0.000000000E+00  0.00000E+00  9.000E+00
      21    -1     0     0   501   502  0.000000000E+00  0.000000000E+00 -2.860393111E+01  2.860393111E+01  0.000000000E+00  0.00000E+00  9.000E+00
      25     1     1     2     0     0 -5.723060993E+01  6.587823966E+01  2.565051727E+03  2.569577912E+03  1.250000000E+02  0.00000E+00  9.000E+00
      25     1     1     2     0     0  1.156689863E+02 -2.840911728E+00  6.282630066E+02  6.509430010E+02  1.250000000E+02  0.00000E+00  9.000E+00
       2     1     1     2   501     0 -5.843837636E+01 -6.303732793E+01  1.081380620E+02  1.381397444E+02  3.303624740E-06  0.00000E+00  9.000E+00
#rwgt            1           1   2.8031120044451050E-002           4      136579           0
</event>
<event>
      5   9999  3.79277E-02  3.18985E+01 -1.00000E+00  1.51212E-01
      21    -1     0     0   502   501  0.000000000E+00  0.000000000E+00  1.066841004E+03  1.066841004E+03  0.000000000E+00  0.00000E+00  9.000E+00
      21    -1     0     0   501   511  0.000000000E+00  0.000000000E+00 -1.295227864E+02  1.295227864E+02  0.000000000E+00  0.00000E+00  9.000E+00
      25     1     1     2     0     0 -1.908903046E+02 -6.812041599E+01  3.607654454E+02  4.322686734E+02  1.250000000E+02  0.00000E+00  9.000E+00
      25     1     1     2     0     0  1.848275008E+02  3.680333983E+01  6.477434146E+02  6.860847047E+02  1.250000000E+02  0.00000E+00  9.000E+00
      21     1     1     2   502   511  6.062803757E+00  3.131707616E+01 -7.119064240E+01  7.801041221E+01  2.861022949E-06  0.00000E+00  9.000E+00
#rwgt            1           1   3.3010850996465960E-002           4      136637           0
</event>
<event>
      5   9999  3.79277E-02  8.65426E+01 -1.00000E+00  1.26719E-01
      21    -1     0     0   502   501  0.000000000E+00  0.000000000E+00  2.573255971E+02  2.573255971E+02  0.000000000E+00  0.00000E+00  9.000E+00
      21    -1     0     0   512   502  0.000000000E+00  0.000000000E+00 -1.781462139E+02  1.781462139E+02  0.000000000E+00  0.00000E+00  9.000E+00
      25     1     1     2     0     0 -1.213526262E+01 -7.563751635E+01 -6.471311408E+01  1.602531922E+02  1.250000000E+02  0.00000E+00  9.000E+00
      25     1     1     2     0     0  5.511401664E+01  5.212941572E-01  1.280415525E+02  1.872363900E+02  1.250000000E+02  0.00000E+00  9.000E+00
      21     1     1     2   512   501 -4.297875402E+01  7.511622220E+01  1.585094478E+01  8.798222880E+01  1.760104067E-06  0.00000E+00  9.000E+00
#rwgt            2          11   2.3533199446176211E-003           4      136799           0
</event>
<event>
      5   9999  3.79277E-02  1.12700E+02 -1.00000E+00  1.21537E-01
      21    -1     0     0   502   501  0.000000000E+00  0.000000000E+00  1.578669420E+02  1.578669420E+02  0.000000000E+00  0.00000E+00  9.000E+00
      21    -1     0     0   511   502  0.000000000E+00  0.000000000E+00 -1.278864165E+03  1.278864165E+03  0.000000000E+00  0.00000E+00  9.000E+00
      25     1     1     2     0     0 -1.093352665E+02  6.842468675E+01  6.351180127E+01  1.905121706E+02  1.250000000E+02  0.00000E+00  9.000E+00
      25     1     1     2     0     0  1.354504709E+02 -1.780576599E+02 -9.773189662E+02  1.010360689E+03  1.250000000E+02  0.00000E+00  9.000E+00
      21     1     1     2   511   501 -2.611520436E+01  1.096329731E+02 -2.071900585E+02  2.358582478E+02  0.000000000E+00  0.00000E+00  9.000E+00
#rwgt            2          11   3.4738963188210045E-003           4      136834           0
</event>
<event>
      5   9999  3.79277E-02  8.79234E+00 -1.00000E+00  2.02449E-01
      21    -1     0     0   512   501  0.000000000E+00  0.000000000E+00  4.880891718E+02  4.880891718E+02  0.000000000E+00  0.00000E+00  9.000E+00
      21    -1     0     0   501   502  0.000000000E+00  0.000000000E+00 -2.528224213E+02  2.528224213E+02  0.000000000E+00  0.00000E+00  9.000E+00
      25     1     1     2     0     0 -4.654806096E+01  2.064742306E+02  3.722019284E+02  4.460466403E+02  1.250000000E+02  0.00000E+00  9.000E+00
      25     1     1     2     0     0  4.938169741E+01 -1.981510201E+02 -1.474241361E+02  2.811783326E+02  1.250000000E+02  0.00000E+00  9.000E+00
      21     1     1     2   512   502 -2.833636451E+00 -8.323210470E+00  1.048895829E+01  1.368662026E+01  1.192092896E-07  0.00000E+00  9.000E+00
#rwgt            1           1  0.15224916300822788                4      137244           0
</event>
<event>
      5   9999  3.79277E-02  3.29796E+01 -1.00000E+00  1.50237E-01
      21    -1     0     0   502   501  0.000000000E+00  0.000000000E+00  1.783803276E+02  1.783803276E+02  0.000000000E+00  0.00000E+00  9.000E+00
      21    -1     0     0   501   511  0.000000000E+00  0.000000000E+00 -4.008785052E+02  4.008785052E+02  0.000000000E+00  0.00000E+00  9.000E+00
      25     1     1     2     0     0  9.417303411E+01  1.738185398E+02 -1.250977885E+02  2.652468696E+02  1.250000000E+02  0.00000E+00  9.000E+00
      25     1     1     2     0     0 -6.123603520E+01 -1.754949027E+02 -1.411930943E+01  2.244385613E+02  1.250000000E+02  0.00000E+00  9.000E+00
      21     1     1     2   502   511 -3.293699892E+01  1.676362929E+00 -8.328107974E+01  8.957340193E+01  1.348699152E-06  0.00000E+00  9.000E+00
#rwgt            1           1   3.3694485126570896E-002           4      137716           0
</event>
<event>
      5   9999  3.79277E-02  1.52861E+01 -1.00000E+00  1.76614E-01
      21    -1     0     0   502   501  0.000000000E+00  0.000000000E+00  2.482938069E+02  2.482938069E+02  0.000000000E+00  0.00000E+00  9.000E+00
      21    -1     0     0   501   512  0.000000000E+00  0.000000000E+00 -8.263148070E+02  8.263148070E+02  0.000000000E+00  0.00000E+00  9.000E+00
      25     1     1     2     0     0  8.608896736E+01 -2.102227846E+02  7.322795246E+01  2.694295130E+02  1.250000000E+02  0.00000E+00  9.000E+00
      25     1     1     2     0     0 -8.603946255E+01  1.949367492E+02 -1.216628420E+02  2.753724249E+02  1.250000000E+02  0.00000E+00  9.000E+00
      21     1     1     2   502   512 -4.950481393E-02  1.528603542E+01 -5.295861106E+02  5.298066760E+02  1.078959322E-05  0.00000E+00  9.000E+00
#rwgt            1           1  0.19101521623885356                4      137847           0
</event>
<event>
      5   9999  3.79277E-02  5.46517E+01 -1.00000E+00  1.36906E-01
       2    -1     0     0   502     0  0.000000000E+00  0.000000000E+00  1.121371380E+03  1.121371380E+03  0.000000000E+00  0.00000E+00  9.000E+00
      21    -1     0     0   501   502  0.000000000E+00  0.000000000E+00 -1.810936971E+02  1.810936971E+02  0.000000000E+00  0.00000E+00  9.000E+00
      25     1     1     2     0     0 -2.145992444E+02 -3.046518646E+02  4.066477806E+02  5.655554895E+02  1.250000000E+02  0.00000E+00  9.000E+00
      25     1     1     2     0     0  2.673819048E+02  2.904813627E+02  3.403053083E+02  5.360085895E+02  1.250000000E+02  0.00000E+00  9.000E+00
       2     1     1     2   501     0 -5.278266047E+01  1.417050194E+01  1.933245944E+02  2.009009985E+02  3.814697266E-06  0.00000E+00  9.000E+00
#rwgt            1           1   3.6605127061774281E-002           4      138065           0
</event>
<event>
      5   9999  3.79277E-02  8.91459E+01 -1.00000E+00  1.26115E-01
      21    -1     0     0   502   501  0.000000000E+00  0.000000000E+00  4.070341027E+02  4.070341027E+02  0.000000000E+00  0.00000E+00  9.000E+00
      21    -1     0     0   501   511  0.000000000E+00  0.000000000E+00 -8.179178890E+02  8.179178890E+02  0.000000000E+00  0.00000E+00  9.000E+00
      25     1     1     2     0     0  8.591555465E+01  1.840518083E+01  3.296392359E+02  3.633280323E+02  1.250000000E+02  0.00000E+00  9.000E+00
      25     1     1     2     0     0 -1.501995468E+02  4.335698792E+01 -1.171814325E+02  2.319401224E+02  1.250000000E+02  0.00000E+00  9.000E+00
      21     1     1     2   502   511  6.428399212E+01 -6.176216875E+01 -6.233415897E+02  6.296838370E+02  7.629394531E-06  0.00000E+00  9.000E+00
#rwgt            1           1   3.8816296560250825E-002           4      138255           0
</event>
<event>
      5   9999  3.79277E-02  4.94570E+01 -1.00000E+00  1.39347E-01
      21    -1     0     0   502   512  0.000000000E+00  0.000000000E+00  1.676326977E+02  1.676326977E+02  0.000000000E+00  0.00000E+00  9.000E+00
      21    -1     0     0   501   502  0.000000000E+00  0.000000000E+00 -4.799043974E+02  4.799043974E+02  0.000000000E+00  0.00000E+00  9.000E+00
      25     1     1     2     0     0 -5.641780272E+01 -9.740274908E+01 -3.777021923E+02  4.134660930E+02  1.250000000E+02  0.00000E+00  9.000E+00
      25     1     1     2     0     0  6.472158200E+01  4.864787298E+01 -3.811797387E+00  1.489799601E+02  1.250000000E+02  0.00000E+00  9.000E+00
      21     1     1     2   501   512 -8.303779282E+00  4.875487610E+01  6.924229003E+01  8.509104197E+01  9.536743164E-07  0.00000E+00  9.000E+00
#rwgt            1           1   3.8176471469647207E-002           4      138372           0
</event>
<event>
      5   9999  3.79277E-02  1.49831E+02 -1.00000E+00  1.16413E-01
      21    -1     0     0   502   501  0.000000000E+00  0.000000000E+00  6.595659020E+02  6.595659020E+02  0.000000000E+00  0.00000E+00  9.000E+00
       2    -1     0     0   501     0  0.000000000E+00  0.000000000E+00 -4.929286737E+02  4.929286737E+02  0.000000000E+00  0.00000E+00  9.000E+00
      25     1     1     2     0     0 -1.503823113E+02 -5.636992608E+01  5.509546468E+02  5.873401323E+02  1.250000000E+02  0.00000E+00  9.000E+00
      25     1     1     2     0     0  5.156909835E+00  9.323392124E+01 -3.658107776E+00  1.560690217E+02  1.250000000E+02  0.00000E+00  9.000E+00
       2     1     1     2   502     0  1.452254015E+02 -3.686399515E+01 -3.806593107E+02  4.090854217E+02  5.394796609E-06  0.00000E+00  9.000E+00
#rwgt            1           1   4.2297562927055866E-002           4      138451           0
</event>
<event>
      5   9999  3.79277E-02  1.91990E+01 -1.00000E+00  1.67847E-01
      21    -1     0     0   511   501  0.000000000E+00  0.000000000E+00  2.462938357E+02  2.462938357E+02  0.000000000E+00  0.00000E+00  9.000E+00
      21    -1     0     0   501   502  0.000000000E+00  0.000000000E+00 -3.680534633E+02  3.680534633E+02  0.000000000E+00  0.00000E+00  9.000E+00
      25     1     1     2     0     0  1.324294658E+02 -7.403122551E+01 -1.865118800E+02  2.709794589E+02  1.250000000E+02  0.00000E+00  9.000E+00
      25     1     1     2     0     0 -1.134082660E+02  7.663823291E+01 -7.670922666E+01  2.006094688E+02  1.250000000E+02  0.00000E+00  9.000E+00
      21     1     1     2   511   502 -1.902119986E+01 -2.607007405E+00  1.414614790E+02  1.427583712E+02  0.000000000E+00  0.00000E+00  9.000E+00
#rwgt            1           1   3.5321944626170582E-002           4      138561           0
</event>
<event>
      5   9999  3.79277E-02  5.18701E+01 -1.00000E+00  1.38172E-01
      21    -1     0     0   502   501  0.000000000E+00  0.000000000E+00  2.313537815E+02  2.313537815E+02  0.000000000E+00  0.00000E+00  9.000E+00
      21    -1     0     0   501   512  0.000000000E+00  0.000000000E+00 -3.294494045E+02  3.294494045E+02  0.000000000E+00  0.00000E+00  9.000E+00
      25     1     1     2     0     0  1.880846835E+02 -6.433940108E+01 -1.273738134E+02  2.671413391E+02  1.250000000E+02  0.00000E+00  9.000E+00
      25     1     1     2     0     0 -1.478587408E+02  3.159222184E+01  8.826008430E+01  2.151165224E+02  1.250000000E+02  0.00000E+00  9.000E+00
      21     1     1     2   502   512 -4.022594269E+01  3.274717924E+01 -5.898189385E+01  7.854532460E+01  6.743495762E-07  0.00000E+00  9.000E+00
#rwgt            1           1   5.5477175507567811E-002           4      138740           0
</event>
<event>
      5   9999  3.79277E-02  1.66237E+01 -1.00000E+00  1.73279E-01
      21    -1     0     0   502   501  0.000000000E+00  0.000000000E+00  1.528424669E+02  1.528424669E+02  0.000000000E+00  0.00000E+00  9.000E+00
      21    -1     0     0   501   511  0.000000000E+00  0.000000000E+00 -4.176467886E+02  4.176467886E+02  0.000000000E+00  0.00000E+00  9.000E+00
      25     1     1     2     0     0 -7.007271768E+00  1.190076410E+02  7.125255189E+01  1.868524729E+02  1.250000000E+02  0.00000E+00  9.000E+00
      25     1     1     2     0     0  1.148776450E+01 -1.029991484E+02 -3.260199491E+02  3.642180673E+02  1.250000000E+02  0.00000E+00  9.000E+00
      21     1     1     2   502   511 -4.480492736E+00 -1.600849261E+01 -1.003692455E+01  1.941871533E+01  2.920019320E-07  0.00000E+00  9.000E+00
#rwgt            1           1   4.6876680310721154E-002           4      138901           0
</event>
<event>
      5   9999  3.79277E-02  5.58202E+01 -1.00000E+00  1.36401E-01
      21    -1     0     0   502   501  0.000000000E+00  0.000000000E+00  7.046513322E+01  7.046513322E+01  0.000000000E+00  0.00000E+00  9.000E+00
      21    -1     0     0   501   512  0.000000000E+00  0.000000000E+00 -2.066430601E+03  2.066430601E+03  0.000000000E+00  0.00000E+00  9.000E+00
      25     1     1     2     0     0  4.691370759E+01 -1.797343031E+02 -1.033883619E+03  1.057849541E+03  1.250000000E+02  0.00000E+00  9.000E+00
      25     1     1     2     0     0 -8.686793173E+01  1.407528625E+02 -1.291762716E+02  2.442722150E+02  1.250000000E+02  0.00000E+00  9.000E+00
      21     1     1     2   502   512  3.995422414E+01  3.898144053E+01 -8.329055773E+02  8.347739775E+02  1.078959322E-05  0.00000E+00  9.000E+00
#rwgt            1           1   4.0316639759469301E-002           4      139145           0
</event>
<event>
      5   9999 -5.45797E-02  1.41553E+02 -1.00000E+00  1.17400E-01
      21    -1     0     0   511   501  0.000000000E+00  0.000000000E+00  3.624193655E+02  3.624193655E+02  0.000000000E+00  0.00000E+00  9.000E+00
      21    -1     0     0   501   502  0.000000000E+00  0.000000000E+00 -4.331909000E+02  4.331909000E+02  0.000000000E+00  0.00000E+00  9.000E+00
      25     1     1     2     0     0  1.599199128E+02 -2.963019924E+02 -8.252208192E+01  3.685161369E+02  1.250000000E+02  0.00000E+00  9.000E+00
      25     1     1     2     0     0 -1.943577693E+02  1.590017079E+02 -2.266757712E+01  2.814166034E+02  1.250000000E+02  0.00000E+00  9.000E+00
      21     1     1     2   511   502  3.443785649E+01  1.373002844E+02  3.441812454E+01  1.456775252E+02  1.581489940E-06  0.00000E+00  9.000E+00
#rwgt            1           1 -0.43669925566135492                4      139251           0
</event>
<event>
      5   9999  3.79277E-02  4.20296E+01 -1.00000E+00  1.43520E-01
      21    -1     0     0   502   512  0.000000000E+00  0.000000000E+00  1.075571851E+02  1.075571851E+02  0.000000000E+00  0.00000E+00  9.000E+00
      21    -1     0     0   501   502  0.000000000E+00  0.000000000E+00 -4.368007352E+02  4.368007352E+02  0.000000000E+00  0.00000E+00  9.000E+00
      25     1     1     2     0     0 -1.534882489E+02 -1.788357814E+00 -1.312120386E+02  2.374940839E+02  1.250000000E+02  0.00000E+00  9.000E+00
      25     1     1     2     0     0  1.268913744E+02  3.433204861E+01 -1.924492505E+02  2.644651669E+02  1.250000000E+02  0.00000E+00  9.000E+00
      21     1     1     2   501   512  2.659687459E+01 -3.254369079E+01 -5.582260999E+00  4.239866963E+01  3.153981341E-07  0.00000E+00  9.000E+00
#rwgt            1           1   1.7671810101391735E-002           4      139345           0
</event>
<event>
      5   9999  3.79277E-02  6.39997E+01 -1.00000E+00  1.33223E-01
      21    -1     0     0   502   501  0.000000000E+00  0.000000000E+00  2.060876066E+02  2.060876066E+02  0.000000000E+00  0.00000E+00  9.000E+00
      21    -1     0     0   511   502  0.000000000E+00  0.000000000E+00 -1.457074008E+02  1.457074008E+02  0.000000000E+00  0.00000E+00  9.000E+00
      25     1     1     2     0     0  1.014280435E+01 -2.410909724E+01  2.790006838E+01  1.307193133E+02  1.250000000E+02  0.00000E+00  9.000E+00
      25     1     1     2     0     0 -6.821486221E+01  5.100889854E+01  4.046199419E+01  1.565801652E+02  1.250000000E+02  0.00000E+00  9.000E+00
      21     1     1     2   511   501  5.807205786E+01 -2.689980131E+01 -7.981856686E+00  6.449552892E+01  1.186117455E-06  0.00000E+00  9.000E+00
#rwgt            1           1   2.1631026484707157E-002           4      139570           0
</event>
<event>
      5   9999  3.79277E-02  2.56148E+01 -1.00000E+00  1.57965E-01
      21    -1     0     0   502   501  0.000000000E+00  0.000000000E+00  1.805974852E+03  1.805974852E+03  0.000000000E+00  0.00000E+00  9.000E+00
      21    -1     0     0   501   512  0.000000000E+00  0.000000000E+00 -7.073525987E+01  7.073525987E+01  0.000000000E+00  0.00000E+00  9.000E+00
      25     1     1     2     0     0  2.187886114E+01 -8.429541108E+01  1.648711997E+03  1.655735682E+03  1.250000000E+02  0.00000E+00  9.000E+00
      25     1     1     2     0     0 -4.433841232E+01  7.197934910E+01  1.095964824E+02  1.865028430E+02  1.250000000E+02  0.00000E+00  9.000E+00
      21     1     1     2   502   512  2.245955118E+01  1.231606198E+01 -2.306888630E+01  3.447158739E+01  1.752011592E-06  0.00000E+00  9.000E+00
#rwgt            1           1   4.6227728042159494E-002           4      139788           0
</event>
<event>
      5   9999  3.79277E-02  3.54895E+01 -1.00000E+00  1.48138E-01
      21    -1     0     0   511   501  0.000000000E+00  0.000000000E+00  7.390656394E+02  7.390656394E+02  0.000000000E+00  0.00000E+00  9.000E+00
      21    -1     0     0   501   502  0.000000000E+00  0.000000000E+00 -4.516095564E+01  4.516095564E+01  0.000000000E+00  0.00000E+00  9.000E+00
      25     1     1     2     0     0  9.440655504E+01  6.365791737E+01  3.545378821E+02  3.927938874E+02  1.250000000E+02  0.00000E+00  9.000E+00
      25     1     1     2     0     0 -9.187186978E+01 -2.825909014E+01  2.537590286E+02  2.987602069E+02  1.250000000E+02  0.00000E+00  9.000E+00
      21     1     1     2   511   502 -2.534685258E+00 -3.539882723E+01  8.560777298E+01  9.267250073E+01  1.348699152E-06  0.00000E+00  9.000E+00
#rwgt            1           1   5.0618733480217976E-002           4      140008           0
</event>
<event>
      5   9999  3.79277E-02  3.37423E+01 -1.00000E+00  1.49576E-01
      21    -1     0     0   502   512  0.000000000E+00  0.000000000E+00  9.031785049E+01  9.031785049E+01  0.000000000E+00  0.00000E+00  9.000E+00
      21    -1     0     0   501   502  0.000000000E+00  0.000000000E+00 -2.022919417E+03  2.022919417E+03  0.000000000E+00  0.00000E+00  9.000E+00
      25     1     1     2     0     0 -2.276082748E+02  3.852758039E+01 -1.381057471E+03  1.405786128E+03  1.250000000E+02  0.00000E+00  9.000E+00
      25     1     1     2     0     0  1.973079818E+02 -2.368060481E+01 -6.023369700E+02  6.464719918E+02  1.250000000E+02  0.00000E+00  9.000E+00
      21     1     1     2   501   512  3.030029300E+01 -1.484697558E+01  5.079287378E+01  6.097914780E+01  3.162979880E-06  0.00000E+00  9.000E+00
#rwgt            1           1   8.2273382044115689E-002           4      140124           0
</event>
<event>
      5   9999  3.79277E-02  2.10581E+02 -1.00000E+00  1.10839E-01
      21    -1     0     0   511   501  0.000000000E+00  0.000000000E+00  9.567412599E+01  9.567412599E+01  0.000000000E+00  0.00000E+00  9.000E+00
      21    -1     0     0   501   502  0.000000000E+00  0.000000000E+00 -2.378827860E+03  2.378827860E+03  0.000000000E+00  0.00000E+00  9.000E+00
      25     1     1     2     0     0  2.028838149E+02 -1.052100978E+02 -3.438191835E+02  4.313555819E+02  1.250000000E+02  0.00000E+00  9.000E+00
      25     1     1     2     0     0 -4.533688029E+01 -3.451559273E+01 -1.763400161E+03  1.768743025E+03  1.250000000E+02  0.00000E+00  9.000E+00
      21     1     1     2   511   502 -1.575469346E+02  1.397256906E+02 -1.759343886E+02  2.744033788E+02  5.722045898E-06  0.00000E+00  9.000E+00
#rwgt            2          11   6.3356255675729349E-003           4      140334           0
</event>
<event>
      5   9999 -3.79277E-02  2.14428E+01 -1.00000E+00  1.63911E-01
      21    -1     0     0   502   501  0.000000000E+00  0.000000000E+00  2.939778080E+02  2.939778080E+02  0.000000000E+00  0.00000E+00  9.000E+00
      21    -1     0     0   512   502  0.000000000E+00  0.000000000E+00 -1.874473439E+02  1.874473439E+02  0.000000000E+00  0.00000E+00  9.000E+00
      25     1     1     2     0     0 -8.518424498E+01 -1.372036787E+01 -7.041008406E+01  1.674132134E+02  1.250000000E+02  0.00000E+00  9.000E+00
      25     1     1     2     0     0  8.894756225E+01  3.483038929E+01  2.173231812E+02  2.682893772E+02  1.250000000E+02  0.00000E+00  9.000E+00
      21     1     1     2   512   501 -3.763317273E+00 -2.111002142E+01 -4.038263299E+01  4.572256126E+01  8.259061849E-07  0.00000E+00  9.000E+00
#rwgt            1           1  -3.6786069351290918E-002           4      140354           0
</event>
<event>
      5   9999  3.79277E-02  1.51197E+01 -1.00000E+00  1.77059E-01
      21    -1     0     0   502   511  0.000000000E+00  0.000000000E+00  8.210041573E+02  8.210041573E+02  0.000000000E+00  0.00000E+00  9.000E+00
      21    -1     0     0   501   502  0.000000000E+00  0.000000000E+00 -5.791603011E+01  5.791603011E+01  0.000000000E+00  0.00000E+00  9.000E+00
      25     1     1     2     0     0 -1.327545146E+02  8.944769295E+01  4.933965921E+02  5.335633495E+02  1.250000000E+02  0.00000E+00  9.000E+00
      25     1     1     2     0     0  1.196719041E+02 -9.702736898E+01  2.352251444E+02  3.077199108E+02  1.250000000E+02  0.00000E+00  9.000E+00
      21     1     1     2   501   511  1.308261046E+01  7.579676028E+00  3.446639075E+01  3.763692703E+01  6.743495762E-07  0.00000E+00  9.000E+00
#rwgt            1           1   4.1205339455872354E-002           4      140474           0
</event>
<event>
      5   9999  3.79277E-02  4.50226E+01 -1.00000E+00  1.41725E-01
      21    -1     0     0   502   501  0.000000000E+00  0.000000000E+00  4.362584114E+02  4.362584114E+02  0.000000000E+00  0.00000E+00  9.000E+00
      21    -1     0     0   512   502  0.000000000E+00  0.000000000E+00 -4.998612889E+02  4.998612889E+02  0.000000000E+00  0.00000E+00  9.000E+00
      25     1     1     2     0     0 -5.467658556E+01 -3.342738735E+01 -1.197832588E+02  1.846075522E+02  1.250000000E+02  0.00000E+00  9.000E+00
      25     1     1     2     0     0  2.136973117E+01  6.372080923E+01  3.898185096E+02  4.148499456E+02  1.250000000E+02  0.00000E+00  9.000E+00
      21     1     1     2   512   501  3.330685439E+01 -3.029342187E+01 -3.336381283E+02  3.366622026E+02  5.394796609E-06  0.00000E+00  9.000E+00
#rwgt            1           1   3.5966388904366084E-002           4      140782           0
</event>
<event>
      5   9999  3.79277E-02  7.72890E+01 -1.00000E+00  1.29078E-01
      21    -1     0     0   502   501  0.000000000E+00  0.000000000E+00  2.471968775E+02  2.471968775E+02  0.000000000E+00  0.00000E+00  9.000E+00
      21    -1     0     0   501   511  0.000000000E+00  0.000000000E+00 -2.774602896E+02  2.774602896E+02  0.000000000E+00  0.00000E+00  9.000E+00
      25     1     1     2     0     0  1.240854292E+02  7.793513616E+01  1.746843583E+01  1.933939643E+02  1.250000000E+02  0.00000E+00  9.000E+00
      25     1     1     2     0     0 -1.195847859E+02 -1.550929564E+02  1.339958591E+01  2.327206373E+02  1.250000000E+02  0.00000E+00  9.000E+00
      21     1     1     2   502   511 -4.500643244E+00  7.715782021E+01 -6.113143376E+01  9.854256544E+01  0.000000000E+00  0.00000E+00  9.000E+00
#rwgt            1           1  0.16016379210357751                4      140978           0
</event>
<event>
      5   9999  3.79277E-02  2.40197E+01 -1.00000E+00  1.60063E-01
      21    -1     0     0   502   501  0.000000000E+00  0.000000000E+00  7.422411433E+02  7.422411433E+02  0.000000000E+00  0.00000E+00  9.000E+00
      21    -1     0     0   512   502  0.000000000E+00  0.000000000E+00 -4.724632307E+02  4.724632307E+02  0.000000000E+00  0.00000E+00  9.000E+00
      25     1     1     2     0     0 -1.927090540E+02 -8.787093560E+01  1.692453196E+02  2.985415532E+02  1.250000000E+02  0.00000E+00  9.000E+00
      25     1     1     2     0     0  1.875117583E+02  1.113215883E+02  4.768710699E+02  5.390585987E+02  1.250000000E+02  0.00000E+00  9.000E+00
      21     1     1     2   512   501  5.197295733E+00 -2.345065267E+01 -3.763384769E+02  3.771042220E+02  5.394796609E-06  0.00000E+00  9.000E+00
#rwgt            1           1   8.9110188873905080E-002           4      141042           0
</event>
<event>
      5   9999  3.79277E-02  1.08578E+02 -1.00000E+00  1.22241E-01
      21    -1     0     0   502   501  0.000000000E+00  0.000000000E+00  3.553367224E+02  3.553367224E+02  0.000000000E+00  0.00000E+00  9.000E+00
      21    -1     0     0   511   502  0.000000000E+00  0.000000000E+00 -5.144633187E+02  5.144633187E+02  0.000000000E+00  0.00000E+00  9.000E+00
      25     1     1     2     0     0  1.086446875E+02 -7.028855458E+01  2.040960070E+02  2.720741243E+02  1.250000000E+02  0.00000E+00  9.000E+00
      25     1     1     2     0     0 -1.651694297E+02 -2.241555456E+01  1.043966851E+01  2.086082076E+02  1.250000000E+02  0.00000E+00  9.000E+00
      21     1     1     2   511   501  5.652474227E+01  9.270410914E+01 -3.736622718E+02  3.891177093E+02  5.394796609E-06  0.00000E+00  9.000E+00
#rwgt            1           1   4.4730954628768117E-002           4      141257           0
</event>
<event>
      5   9999  3.79277E-02  3.60949E+01 -1.00000E+00  1.47662E-01
      -3    -1     0     0     0   501  0.000000000E+00  0.000000000E+00  3.648380110E+02  3.648380110E+02  0.000000000E+00  0.00000E+00  9.000E+00
      21    -1     0     0   501   502  0.000000000E+00  0.000000000E+00 -8.005727485E+02  8.005727485E+02  0.000000000E+00  0.00000E+00  9.000E+00
      25     1     1     2     0     0  2.124417989E+02  7.376563089E+00 -1.765321643E+02  3.032730398E+02  1.250000000E+02  0.00000E+00  9.000E+00
      25     1     1     2     0     0 -2.163574988E+02  2.850530222E+01 -5.312158522E+02  5.877400796E+02  1.250000000E+02  0.00000E+00  9.000E+00
      -3     1     1     2     0   502  3.915699838E+00 -3.588186531E+01  2.720132790E+02  2.743976402E+02  5.394796609E-06  0.00000E+00  9.000E+00
#rwgt            1           1   4.4642283556725990E-002           4      141372           0
</event>
<event>
      5   9999  3.79277E-02  3.66818E+01 -1.00000E+00  1.47212E-01
      21    -1     0     0   502   501  0.000000000E+00  0.000000000E+00  3.049929533E+02  3.049929533E+02  0.000000000E+00  0.00000E+00  9.000E+00
       2    -1     0     0   501     0  0.000000000E+00  0.000000000E+00 -6.767397586E+02  6.767397586E+02  0.000000000E+00  0.00000E+00  9.000E+00
      25     1     1     2     0     0 -3.590199550E+01 -1.401357299E+02 -2.682884504E+02  3.294399318E+02  1.250000000E+02  0.00000E+00  9.000E+00
      25     1     1     2     0     0  4.642248913E+01  1.752764833E+02  2.290593612E+02  3.177579016E+02  1.250000000E+02  0.00000E+00  9.000E+00
       2     1     1     2   502     0 -1.052049363E+01 -3.514075347E+01 -3.325177162E+02  3.345348784E+02  5.394796609E-06  0.00000E+00  9.000E+00
#rwgt            1           1   3.6638463184779278E-002           4      141501           0
</event>
<event>
      5   9999  3.79277E-02  8.81379E+01 -1.00000E+00  1.26346E-01
      21    -1     0     0   511   501  0.000000000E+00  0.000000000E+00  1.633745243E+02  1.633745243E+02  0.000000000E+00  0.00000E+00  9.000E+00
      21    -1     0     0   501   502  0.000000000E+00  0.000000000E+00 -2.853274181E+02  2.853274181E+02  0.000000000E+00  0.00000E+00  9.000E+00
      25     1     1     2     0     0  6.874466009E+01 -9.256581510E+01 -1.339583674E+02  2.164811830E+02  1.250000000E+02  0.00000E+00  9.000E+00
      25     1     1     2     0     0 -7.014241085E+01  4.439045212E+00  1.076367154E+00  1.434078850E+02  1.250000000E+02  0.00000E+00  9.000E+00
      21     1     1     2   511   502  1.397750756E+00  8.812676989E+01  1.092910642E+01  8.881287432E+01  1.353957259E-06  0.00000E+00  9.000E+00
#rwgt            1           1   4.0477771213835285E-002           4      141651           0
</event>
<event>
      5   9999  3.79277E-02  7.22491E+01 -1.00000E+00  1.30529E-01
      21    -1     0     0   502   501  0.000000000E+00  0.000000000E+00  4.542590159E+02  4.542590159E+02  0.000000000E+00  0.00000E+00  9.000E+00
      21    -1     0     0   501   512  0.000000000E+00  0.000000000E+00 -2.699192011E+02  2.699192011E+02  0.000000000E+00  0.00000E+00  9.000E+00
      25     1     1     2     0     0  1.452651592E+02  6.451384531E+01  2.593712320E+02  3.288805843E+02  1.250000000E+02  0.00000E+00  9.000E+00
      25     1     1     2     0     0 -7.627329455E+01 -8.596258973E+01  1.061447346E+02  2.002470648E+02  1.250000000E+02  0.00000E+00  9.000E+00
      21     1     1     2   502   512 -6.899186466E+01  2.144874441E+01 -1.811761518E+02  1.950505678E+02  2.697398305E-06  0.00000E+00  9.000E+00
#rwgt            1           1   4.2647443060957892E-002           4      141700           0
</event>
<event>
      5   9999  3.79277E-02  2.23669E+01 -1.00000E+00  1.62458E-01
      -5    -1     0     0     0   501  0.000000000E+00  0.000000000E+00  4.770896419E+02  4.770896419E+02  0.000000000E+00  0.00000E+00  9.000E+00
      21    -1     0     0   501   502  0.000000000E+00  0.000000000E+00 -9.924441420E+01  9.924441420E+01  0.000000000E+00  0.00000E+00  9.000E+00
      25     1     1     2     0     0  2.394290508E+01 -1.225608358E+02  8.927119356E+01  1.979615296E+02  1.250000000E+02  0.00000E+00  9.000E+00
      25     1     1     2     0     0 -4.223530784E+01  1.354319115E+02  1.594794739E+02  2.473546573E+02  1.250000000E+02  0.00000E+00  9.000E+00
      -5     1     1     2     0   502  1.829240277E+01 -1.287107565E+01  1.290945602E+02  1.310178693E+02  1.907348633E-06  0.00000E+00  9.000E+00
#rwgt            1           1   3.3945392682443870E-002           4      141805           0
</event>
<event>
      5   9999  3.79277E-02  1.60917E+02 -1.00000E+00  1.15197E-01
      21    -1     0     0   502   501  0.000000000E+00  0.000000000E+00  3.764529242E+01  3.764529242E+01  0.000000000E+00  0.00000E+00  9.000E+00
      21    -1     0     0   511   502  0.000000000E+00  0.000000000E+00 -2.304568476E+03  2.304568476E+03  0.000000000E+00  0.00000E+00  9.000E+00
      25     1     1     2     0     0  2.042088562E+01  9.719299175E+01 -2.941942541E+02  3.347218985E+02  1.250000000E+02  0.00000E+00  9.000E+00
      25     1     1     2     0     0  1.403810302E+02 -9.109535523E+01 -1.220340725E+03  1.238087914E+03  1.250000000E+02  0.00000E+00  9.000E+00
      21     1     1     2   511   501 -1.608019158E+02 -6.097636525E+00 -7.523882046E+02  7.694039561E+02  1.078959322E-05  0.00000E+00  9.000E+00
#rwgt            2          11   9.1739682454835246E-004           4      141995           0
</event>
<event>
      5   9999  3.79277E-02  3.36813E+01 -1.00000E+00  1.49629E-01
      21    -1     0     0   502   501  0.000000000E+00  0.000000000E+00  7.762067158E+02  7.762067158E+02  0.000000000E+00  0.00000E+00  9.000E+00
      21    -1     0     0   512   502  0.000000000E+00  0.000000000E+00 -6.048430762E+01  6.048430762E+01  0.000000000E+00  0.00000E+00  9.000E+00
      25     1     1     2     0     0 -1.061467159E+02 -1.168355087E+02  4.196921283E+02  4.654934413E+02  1.250000000E+02  0.00000E+00  9.000E+00
      25     1     1     2     0     0  1.151462535E+02  8.437881343E+01  2.418277154E+02  3.073826407E+02  1.250000000E+02  0.00000E+00  9.000E+00
      21     1     1     2   512   501 -8.999537610E+00  3.245669531E+01  5.420256452E+01  6.381494142E+01  9.536743164E-07  0.00000E+00  9.000E+00
#rwgt            1           1   3.7466021070687000E-002           4      142195           0
</event>
<event>
      5   9999  3.79277E-02  7.46346E+01 -1.00000E+00  1.29826E-01
      21    -1     0     0   502   501  0.000000000E+00  0.000000000E+00  5.896617874E+02  5.896617874E+02  0.000000000E+00  0.00000E+00  9.000E+00
      21    -1     0     0   501   511  0.000000000E+00  0.000000000E+00 -3.986396586E+02  3.986396586E+02  0.000000000E+00  0.00000E+00  9.000E+00
      25     1     1     2     0     0  2.469186088E+02  7.403712671E+01  3.790969028E+02  4.751733970E+02  1.250000000E+02  0.00000E+00  9.000E+00
      25     1     1     2     0     0 -1.731180802E+02 -8.516359889E+01  7.331327962E+01  2.412934836E+02  1.250000000E+02  0.00000E+00  9.000E+00
      21     1     1     2   502   511 -7.380052865E+01  1.112647217E+01 -2.613880536E+02  2.718345654E+02  3.814697266E-06  0.00000E+00  9.000E+00
#rwgt            1           1   3.4953745036071730E-002           4      142531           0
</event>
<event>
      5   9999  3.79277E-02  6.01365E+01 -1.00000E+00  1.34651E-01
       2    -1     0     0   502     0  0.000000000E+00  0.000000000E+00  2.157274481E+03  2.157274481E+03  0.000000000E+00  0.00000E+00  9.000E+00
      21    -1     0     0   501   502  0.000000000E+00  0.000000000E+00 -3.305588473E+01  3.305588473E+01  0.000000000E+00  0.00000E+00  9.000E+00
      25     1     1     2     0     0  3.772134882E+01  8.919594898E+01  1.467396275E+03  1.475891475E+03  1.250000000E+02  0.00000E+00  9.000E+00
      25     1     1     2     0     0 -3.062850616E+01 -2.947917521E+01  1.338149314E+02  1.879855394E+02  1.250000000E+02  0.00000E+00  9.000E+00
       2     1     1     2   501     0 -7.092842651E+00 -5.971677377E+01  5.230073895E+02  5.264533511E+02  7.629394531E-06  0.00000E+00  9.000E+00
#rwgt            1           1   3.1873029421476212E-002           4      142599           0
</event>
<event>
      5   9999  3.79277E-02  2.83038E+01 -1.00000E+00  1.54816E-01
      21    -1     0     0   502   501  0.000000000E+00  0.000000000E+00  6.771513497E+02  6.771513497E+02  0.000000000E+00  0.00000E+00  9.000E+00
      21    -1     0     0   511   502  0.000000000E+00  0.000000000E+00 -6.550572256E+01  6.550572256E+01  0.000000000E+00  0.00000E+00  9.000E+00
      25     1     1     2     0     0 -3.436319209E+01 -5.598344179E+01  1.389191553E+02  1.980871183E+02  1.250000000E+02  0.00000E+00  9.000E+00
      25     1     1     2     0     0  6.266644190E+01  5.616261649E+01  4.891584288E+02  5.118420566E+02  1.250000000E+02  0.00000E+00  9.000E+00
      21     1     1     2   511   501 -2.830324981E+01 -1.791747098E-01 -1.643195700E+01  3.272789734E+01  3.371747881E-07  0.00000E+00  9.000E+00
#rwgt            1           1   3.8947613718597153E-002           4      142686           0
</event>
<event>
      5   9999  3.79277E-02  2.31153E+01 -1.00000E+00  1.61344E-01
      21    -1     0     0   502   501  0.000000000E+00  0.000000000E+00  9.163185787E+02  9.163185787E+02  0.000000000E+00  0.00000E+00  9.000E+00
      21    -1     0     0   512   502  0.000000000E+00  0.000000000E+00 -6.008583542E+01  6.008583542E+01  0.000000000E+00  0.00000E+00  9.000E+00
      25     1     1     2     0     0  1.266357656E+02  1.296150524E+02  4.893439993E+02  5.365810550E+02  1.250000000E+02  0.00000E+00  9.000E+00
      25     1     1     2     0     0 -1.397177073E+02 -1.105578188E+02  3.454600294E+02  4.083034422E+02  1.250000000E+02  0.00000E+00  9.000E+00
      21     1     1     2   512   501  1.308194177E+01 -1.905723361E+01  2.142871467E+01  3.151991697E+01  6.743495762E-07  0.00000E+00  9.000E+00
#rwgt            1           1   2.3022688495007316E-002           4      142797           0
</event>
<event>
      5   9999  3.79277E-02  6.64777E+01 -1.00000E+00  1.32366E-01
      21    -1     0     0   502   511  0.000000000E+00  0.000000000E+00  2.734876018E+02  2.734876018E+02  0.000000000E+00  0.00000E+00  9.000E+00
      21    -1     0     0   501   502  0.000000000E+00  0.000000000E+00 -1.914617653E+02  1.914617653E+02  0.000000000E+00  0.00000E+00  9.000E+00
      25     1     1     2     0     0 -6.339179176E+01  1.156001663E+02 -4.040875550E+01  1.861176650E+02  1.250000000E+02  0.00000E+00  9.000E+00
      25     1     1     2     0     0 -7.575849544E-01 -1.330400076E+02  7.598830973E+01  1.977357853E+02  1.250000000E+02  0.00000E+00  9.000E+00
      21     1     1     2   501   511  6.414937672E+01  1.743984138E+01  4.644628222E+01  8.109591687E+01  1.784161275E-06  0.00000E+00  9.000E+00
#rwgt            1           1   3.9975657967241902E-002           4      142992           0
</event>
<event>
      5   9999  3.79277E-02  4.59102E+01 -1.00000E+00  1.41224E-01
      21    -1     0     0   502   501  0.000000000E+00  0.000000000E+00  2.060904408E+02  2.060904408E+02  0.000000000E+00  0.00000E+00  9.000E+00
      21    -1     0     0   512   502  0.000000000E+00  0.000000000E+00 -3.692988137E+02  3.692988137E+02  0.000000000E+00  0.00000E+00  9.000E+00
      25     1     1     2     0     0 -1.630027436E+02  1.448547900E+02 -8.104722905E+00  2.514825862E+02  1.250000000E+02  0.00000E+00  9.000E+00
      25     1     1     2     0     0  1.203512245E+02 -1.618429694E+02 -1.187018483E+02  2.653162127E+02  1.250000000E+02  0.00000E+00  9.000E+00
      21     1     1     2   512   501  4.265151916E+01  1.698817939E+01 -3.640180166E+01  5.859045562E+01  1.348699152E-06  0.00000E+00  9.000E+00
#rwgt            1           1   3.2256136692058589E-002           4      143153           0
</event>
<event>
      5   9999  3.79277E-02  2.15909E+01 -1.00000E+00  1.63672E-01
      21    -1     0     0   502   501  0.000000000E+00  0.000000000E+00  8.152666355E+02  8.152666355E+02  0.000000000E+00  0.00000E+00  9.000E+00
      21    -1     0     0   511   502  0.000000000E+00  0.000000000E+00 -5.478474077E+01  5.478474077E+01  0.000000000E+00  0.00000E+00  9.000E+00
      25     1     1     2     0     0 -3.280158068E+01  9.884611093E+01  5.963702254E+02  6.181657893E+02  1.250000000E+02  0.00000E+00  9.000E+00
      25     1     1     2     0     0  1.557075853E+01 -1.118563768E+02  1.531505004E+02  2.276716349E+02  1.250000000E+02  0.00000E+00  9.000E+00
      21     1     1     2   511   501  1.723082215E+01  1.301026591E+01  1.096116901E+01  2.421395212E+01  1.192092896E-07  0.00000E+00  9.000E+00
#rwgt            1           1   3.7459541529282860E-002           4      143253           0
</event>
<event>
      5   9999  3.79277E-02  3.98710E+01 -1.00000E+00  1.44927E-01
      21    -1     0     0   502   501  0.000000000E+00  0.000000000E+00  2.794516777E+02  2.794516777E+02  0.000000000E+00  0.00000E+00  9.000E+00
       2    -1     0     0   501     0  0.000000000E+00  0.000000000E+00 -9.808919528E+02  9.808919528E+02  0.000000000E+00  0.00000E+00  9.000E+00
      25     1     1     2     0     0  7.623561481E+01  3.933889510E+01 -1.322429347E+02  2.011780590E+02  1.250000000E+02  0.00000E+00  9.000E+00
      25     1     1     2     0     0 -4.505862315E+01 -1.448545348E+01  2.262166657E+02  2.627529024E+02  1.250000000E+02  0.00000E+00  9.000E+00
       2     1     1     2   502     0 -3.117699166E+01 -2.485344162E+01 -7.954140061E+02  7.964126691E+02  1.525878906E-05  0.00000E+00  9.000E+00
#rwgt            1           1   5.3032957897235347E-002           4      143443           0
</event>
<event>
      5   9999  3.79277E-02  2.50177E+01 -1.00000E+00  1.58728E-01
      21    -1     0     0   502   511  0.000000000E+00  0.000000000E+00  3.997015096E+02  3.997015096E+02  0.000000000E+00  0.00000E+00  9.000E+00
      21    -1     0     0   501   502  0.000000000E+00  0.000000000E+00 -3.869539457E+02  3.869539457E+02  0.000000000E+00  0.00000E+00  9.000E+00
      25     1     1     2     0     0 -1.276145623E+02 -1.374114105E+01 -3.362151499E+02  3.809723383E+02  1.250000000E+02  0.00000E+00  9.000E+00
      25     1     1     2     0     0  1.067354158E+02  2.752331583E+01  3.408000040E+02  3.793674006E+02  1.250000000E+02  0.00000E+00  9.000E+00
      21     1     1     2   501   511  2.087914654E+01 -1.378217478E+01  8.162709798E+00  2.631571647E+01  2.064765462E-07  0.00000E+00  9.000E+00
#rwgt            1           1   3.7486159736421172E-002           4      143611           0
</event>
<event>
      5   9999  3.79277E-02  1.41947E+02 -1.00000E+00  1.17351E-01
      21    -1     0     0   502   501  0.000000000E+00  0.000000000E+00  4.584358262E+02  4.584358262E+02  0.000000000E+00  0.00000E+00  9.000E+00
      21    -1     0     0   501   512  0.000000000E+00  0.000000000E+00 -1.888977712E+02  1.888977712E+02  0.000000000E+00  0.00000E+00  9.000E+00
      25     1     1     2     0     0 -1.528681902E+02 -1.499950249E+02  2.172556042E+02  3.296849839E+02  1.250000000E+02  0.00000E+00  9.000E+00
      25     1     1     2     0     0  2.657247674E+01  8.520140093E+01  7.976071541E+01  1.730668858E+02  1.250000000E+02  0.00000E+00  9.000E+00
      21     1     1     2   502   512  1.262957134E+02  6.479362399E+01 -2.747826458E+01  1.445817276E+02  2.759894586E-06  0.00000E+00  9.000E+00
#rwgt            1           1   4.6408810683285069E-002           4      143756           0
</event>
<event>
      5   9999  3.79277E-02  1.19189E+02 -1.00000E+00  1.20493E-01
      21    -1     0     0   511   501  0.000000000E+00  0.000000000E+00  3.600677639E+02  3.600677639E+02  0.000000000E+00  0.00000E+00  9.000E+00
      21    -1     0     0   501   502  0.000000000E+00  0.000000000E+00 -2.828507099E+02  2.828507099E+02  0.000000000E+00  0.00000E+00  9.000E+00
      25     1     1     2     0     0  1.195646396E+02 -7.017501159E+01  1.120870495E+02  2.177354862E+02  1.250000000E+02  0.00000E+00  9.000E+00
      25     1     1     2     0     0 -2.327350328E+02  3.278016523E+01 -1.058301142E+02  2.864701516E+02  1.250000000E+02  0.00000E+00  9.000E+00
      21     1     1     2   511   502  1.131703932E+02  3.739484636E+01  7.096011871E+01  1.387128360E+02  1.907348633E-06  0.00000E+00  9.000E+00
#rwgt            1           1   3.9599853201310438E-002           4      143816           0
</event>
<event>
      5   9999  3.79277E-02  2.37661E+02 -1.00000E+00  1.08987E-01
      21    -1     0     0   502   501  0.000000000E+00  0.000000000E+00  1.363032969E+03  1.363032969E+03  0.000000000E+00  0.00000E+00  9.000E+00
      21    -1     0     0   501   512  0.000000000E+00  0.000000000E+00 -1.045056096E+02  1.045056096E+02  0.000000000E+00  0.00000E+00  9.000E+00
      25     1     1     2     0     0  2.733451274E+01  1.521512424E+01  4.970866381E+01  1.381109223E+02  1.250000000E+02  0.00000E+00  9.000E+00
      25     1     1     2     0     0 -4.204689111E+01 -2.524204720E+02  8.710464304E+02  9.164228934E+02  1.250000000E+02  0.00000E+00  9.000E+00
      21     1     1     2   502   512  1.471237837E+01  2.372053477E+02  3.377722651E+02  4.130047628E+02  7.629394531E-06  0.00000E+00  9.000E+00
#rwgt            2          11   1.3205124005679946E-003           4      143893           0
</event>
<event>
      5   9999  3.79277E-02  8.27416E+01 -1.00000E+00  1.27645E-01
      21    -1     0     0   502   501  0.000000000E+00  0.000000000E+00  1.027083496E+02  1.027083496E+02  0.000000000E+00  0.00000E+00  9.000E+00
      21    -1     0     0   501   511  0.000000000E+00  0.000000000E+00 -5.853063950E+02  5.853063950E+02  0.000000000E+00  0.00000E+00  9.000E+00
      25     1     1     2     0     0  1.054692527E+02  7.891320735E+01 -2.188858052E+02  2.844064930E+02  1.250000000E+02  0.00000E+00  9.000E+00
      25     1     1     2     0     0 -1.279436384E+02  7.176145173E-01 -6.841956204E+01  1.915106421E+02  1.250000000E+02  0.00000E+00  9.000E+00
      21     1     1     2   502   511  2.247438569E+01 -7.963082186E+01 -1.952926782E+02  2.120976095E+02  2.697398305E-06  0.00000E+00  9.000E+00
#rwgt            1           1   3.5690492563511464E-002           4      144018           0
</event>
<event>
      5   9999  3.79277E-02  3.48057E+01 -1.00000E+00  1.48689E-01
      21    -1     0     0   502   501  0.000000000E+00  0.000000000E+00  4.756855068E+02  4.756855068E+02  0.000000000E+00  0.00000E+00  9.000E+00
      21    -1     0     0   501   512  0.000000000E+00  0.000000000E+00 -1.760146323E+02  1.760146323E+02  0.000000000E+00  0.00000E+00  9.000E+00
      25     1     1     2     0     0 -1.042677891E+00  1.076804327E+02 -7.490744257E+01  1.811968204E+02  1.250000000E+02  0.00000E+00  9.000E+00
      25     1     1     2     0     0  1.034039354E+01 -1.412212622E+02  3.893090134E+02  4.327087665E+02  1.250000000E+02  0.00000E+00  9.000E+00
      21     1     1     2   502   512 -9.297715652E+00  3.354082953E+01 -1.473069643E+01  3.779455224E+01  5.057621821E-07  0.00000E+00  9.000E+00
#rwgt            1           1   4.7357510700773105E-002           4      144169           0
</event>
<event>
      5   9999  3.79277E-02  1.77797E+01 -1.00000E+00  1.70699E-01
      21    -1     0     0   502   501  0.000000000E+00  0.000000000E+00  8.936239779E+02  8.936239779E+02  0.000000000E+00  0.00000E+00  9.000E+00
      21    -1     0     0   511   502  0.000000000E+00  0.000000000E+00 -8.422751318E+01  8.422751318E+01  0.000000000E+00  0.00000E+00  9.000E+00
      25     1     1     2     0     0  2.276158042E+01 -1.858869114E+02  5.956506815E+02  6.367862811E+02  1.250000000E+02  0.00000E+00  9.000E+00
      25     1     1     2     0     0 -1.716216594E+01  2.027619129E+02  2.173621570E+02  3.229214155E+02  1.250000000E+02  0.00000E+00  9.000E+00
      21     1     1     2   511   501 -5.599414481E+00 -1.687500155E+01 -3.616373809E+00  1.814379452E+01  4.693274423E-07  0.00000E+00  9.000E+00
#rwgt            1           1   3.3334903993718489E-002           4      144320           0
</event>
<event>
      5   9999 -3.79277E-02  9.68207E+01 -1.00000E+00  1.24462E-01
       2    -1     0     0   502     0  0.000000000E+00  0.000000000E+00  8.231664651E+02  8.231664651E+02  0.000000000E+00  0.00000E+00  9.000E+00
      21    -1     0     0   501   502  0.000000000E+00  0.000000000E+00 -2.784784583E+02  2.784784583E+02  0.000000000E+00  0.00000E+00  9.000E+00
      25     1     1     2     0     0  1.150345488E+02 -1.848509700E+02  5.851721987E+01  2.577830358E+02  1.250000000E+02  0.00000E+00  9.000E+00
      25     1     1     2     0     0 -7.824691054E+01  2.744105566E+02 -3.526251448E+01  3.135158329E+02  1.250000000E+02  0.00000E+00  9.000E+00
       2     1     1     2   501     0 -3.678763828E+01 -8.955958656E+01  5.214333014E+02  5.303460546E+02  0.000000000E+00  0.00000E+00  9.000E+00
#rwgt            1           1 -0.10899151041415739                4      144553           0
</event>
<event>
      5   9999  3.79277E-02  1.80113E+01 -1.00000E+00  1.70211E-01
      21    -1     0     0   502   511  0.000000000E+00  0.000000000E+00  8.155911916E+02  8.155911916E+02  0.000000000E+00  0.00000E+00  9.000E+00
      21    -1     0     0   501   502  0.000000000E+00  0.000000000E+00 -1.100452047E+02  1.100452047E+02  0.000000000E+00  0.00000E+00  9.000E+00
      25     1     1     2     0     0 -4.704933615E+01 -1.943758243E+02  3.948694001E+02  4.599374351E+02  1.250000000E+02  0.00000E+00  9.000E+00
      25     1     1     2     0     0  6.454596658E+01  1.901007853E+02  1.041895098E+02  2.584278319E+02  1.250000000E+02  0.00000E+00  9.000E+00
      21     1     1     2   501   511 -1.749663043E+01  4.275038990E+00  2.064870769E+02  2.072711292E+02  3.814697266E-06  0.00000E+00  9.000E+00
#rwgt            1           1   3.1315841293566141E-002           4      144736           0
</event>
<event>
      5   9999  3.79277E-02  1.18100E+02 -1.00000E+00  1.20663E-01
      21    -1     0     0   502   501  0.000000000E+00  0.000000000E+00  8.748694317E+02  8.748694317E+02  0.000000000E+00  0.00000E+00  9.000E+00
      21    -1     0     0   501   512  0.000000000E+00  0.000000000E+00 -1.001636313E+02  1.001636313E+02  0.000000000E+00  0.00000E+00  9.000E+00
      25     1     1     2     0     0 -5.307354023E+00  8.282723916E+01  7.237120846E+01  1.665866482E+02  1.250000000E+02  0.00000E+00  9.000E+00
      25     1     1     2     0     0  6.297812412E+01  2.023405205E+01  6.717157512E+02  6.864420670E+02  1.250000000E+02  0.00000E+00  9.000E+00
      21     1     1     2   502   512 -5.767077010E+01 -1.030612912E+02  3.061884072E+01  1.220043478E+02  1.936921693E-06  0.00000E+00  9.000E+00
#rwgt            1           1   5.1883226019349783E-002           4      144934           0
</event>
<event>
      5   9999  3.79277E-02  5.15629E+01 -1.00000E+00  1.38317E-01
      21    -1     0     0   502   511  0.000000000E+00  0.000000000E+00  2.969907911E+02  2.969907911E+02  0.000000000E+00  0.00000E+00  9.000E+00
      21    -1     0     0   501   502  0.000000000E+00  0.000000000E+00 -1.983324913E+02  1.983324913E+02  0.000000000E+00  0.00000E+00  9.000E+00
      25     1     1     2     0     0  8.442488973E+01  1.183248476E+02 -1.563431364E+00  1.917179592E+02  1.250000000E+02  0.00000E+00  9.000E+00
      25     1     1     2     0     0 -1.085585879E+02 -1.638912164E+02  6.752204899E+01  2.425479848E+02  1.250000000E+02  0.00000E+00  9.000E+00
      21     1     1     2   501   511  2.413369820E+01  4.556636879E+01  3.269968222E+01  6.105733838E+01  4.768371582E-07  0.00000E+00  9.000E+00
#rwgt            1           1   9.6685865855319783E-002           4      144995           0
</event>
<event>
      5   9999  3.79277E-02  5.47238E+01 -1.00000E+00  1.36875E-01
      21    -1     0     0   502   512  0.000000000E+00  0.000000000E+00  5.234394685E+02  5.234394685E+02  0.000000000E+00  0.00000E+00  9.000E+00
      21    -1     0     0   501   502  0.000000000E+00  0.000000000E+00 -4.157993903E+02  4.157993903E+02  0.000000000E+00  0.00000E+00  9.000E+00
      25     1     1     2     0     0 -1.847227339E+02  7.342592269E+01 -3.176185718E+02  3.949941919E+02  1.250000000E+02  0.00000E+00  9.000E+00
      25     1     1     2     0     0  1.875802248E+02 -1.877676127E+01  1.693904337E+02  2.825898557E+02  1.250000000E+02  0.00000E+00  9.000E+00
      21     1     1     2   501   512 -2.857490923E+00 -5.464916142E+01  2.558682163E+02  2.616548111E+02  2.697398305E-06  0.00000E+00  9.000E+00
#rwgt            1           1   3.0901733502320838E-002           4      145086           0
</event>
<event>
      5   9999 -3.79277E-02  5.92599E+01 -1.00000E+00  1.34992E-01
      21    -1     0     0   511   501  0.000000000E+00  0.000000000E+00  8.099638128E+02  8.099638128E+02  0.000000000E+00  0.00000E+00  9.000E+00
      21    -1     0     0   501   502  0.000000000E+00  0.000000000E+00 -7.511736016E+01  7.511736016E+01  0.000000000E+00  0.00000E+00  9.000E+00
      25     1     1     2     0     0  5.076045846E+01 -1.261102398E+02  1.866557169E+02  2.625752719E+02  1.250000000E+02  0.00000E+00  9.000E+00
      25     1     1     2     0     0 -1.096894482E+02  1.198568635E+02  2.752048947E+02  3.431620271E+02  1.250000000E+02  0.00000E+00  9.000E+00
      21     1     1     2   511   502  5.892898974E+01  6.253376288E+00  2.729858410E+02  2.793438740E+02  3.814697266E-06  0.00000E+00  9.000E+00
#rwgt            1           1 -0.38892537895709267                4      145186           0
</event>
<event>
      5   9999  3.79277E-02  5.66936E+01 -1.00000E+00  1.36032E-01
      21    -1     0     0   502   501  0.000000000E+00  0.000000000E+00  7.077154810E+02  7.077154810E+02  0.000000000E+00  0.00000E+00  9.000E+00
      21    -1     0     0   512   502  0.000000000E+00  0.000000000E+00 -2.300362111E+02  2.300362111E+02  0.000000000E+00  0.00000E+00  9.000E+00
      25     1     1     2     0     0  2.125644576E+02 -1.130046278E+02 -3.322471001E+01  2.732811298E+02  1.250000000E+02  0.00000E+00  9.000E+00
      25     1     1     2     0     0 -2.691049755E+02  1.088417046E+02  5.185384349E+02  6.072652740E+02  1.250000000E+02  0.00000E+00  9.000E+00
      21     1     1     2   512   501  5.654051795E+01  4.162923273E+00 -7.634455055E+00  5.720528825E+01  1.531271050E-06  0.00000E+00  9.000E+00
#rwgt            1           1   4.6663642729242151E-002           4      145300           0
</event>
<event>
      5   9999  3.79277E-02  1.19269E+01 -1.00000E+00  1.87307E-01
      21    -1     0     0   502   501  0.000000000E+00  0.000000000E+00  2.237914232E+02  2.237914232E+02  0.000000000E+00  0.00000E+00  9.000E+00
      21    -1     0     0   501   511  0.000000000E+00  0.000000000E+00 -1.751619928E+02  1.751619928E+02  0.000000000E+00  0.00000E+00  9.000E+00
      25     1     1     2     0     0 -4.099793463E+01  7.490820559E+01 -8.552017510E+01  1.738699809E+02  1.250000000E+02  0.00000E+00  9.000E+00
      25     1     1     2     0     0  3.092615122E+01 -6.851992611E+01  1.473200035E+02  2.073151961E+02  1.250000000E+02  0.00000E+00  9.000E+00
      21     1     1     2   502   511  1.007178341E+01 -6.388279475E+00 -1.317039793E+01  1.776823901E+01  2.384185791E-07  0.00000E+00  9.000E+00
#rwgt            1           1   4.1103287739251031E-002           4      145436           0
</event>
<event>
      5   9999  3.79277E-02  2.10655E+01 -1.00000E+00  1.64530E-01
      21    -1     0     0   502   501  0.000000000E+00  0.000000000E+00  3.724446062E+02  3.724446062E+02  0.000000000E+00  0.00000E+00  9.000E+00
      21    -1     0     0   501   512  0.000000000E+00  0.000000000E+00 -2.247462826E+02  2.247462826E+02  0.000000000E+00  0.00000E+00  9.000E+00
      25     1     1     2     0     0 -1.916231059E+01  2.043452686E+02  1.225130786E+01  2.406226870E+02  1.250000000E+02  0.00000E+00  9.000E+00
      25     1     1     2     0     0  9.692263707E-01 -2.149643649E+02  1.802065274E+02  3.070993489E+02  1.250000000E+02  0.00000E+00  9.000E+00
      21     1     1     2   502   512  1.819308422E+01  1.061909629E+01 -4.475951169E+01  4.946885289E+01  4.768371582E-07  0.00000E+00  9.000E+00
#rwgt            1           1   9.2200722982831801E-002           4      145596           0
</event>
<event>
      5   9999  3.79277E-02  3.22763E+01 -1.00000E+00  1.50866E-01
      21    -1     0     0   502   501  0.000000000E+00  0.000000000E+00  6.060270600E+01  6.060270600E+01  0.000000000E+00  0.00000E+00  9.000E+00
      21    -1     0     0   501   511  0.000000000E+00  0.000000000E+00 -7.658620445E+02  7.658620445E+02  0.000000000E+00  0.00000E+00  9.000E+00
      25     1     1     2     0     0 -1.718434320E+01 -6.142070389E+01 -7.800292982E+01  1.605529868E+02  1.250000000E+02  0.00000E+00  9.000E+00
      25     1     1     2     0     0  4.922370126E+01  6.532442253E+01 -2.817561237E+02  3.189071435E+02  1.250000000E+02  0.00000E+00  9.000E+00
      21     1     1     2   502   511 -3.203935806E+01 -3.903718644E+00 -3.455002850E+02  3.470046202E+02  5.394796609E-06  0.00000E+00  9.000E+00
#rwgt            1           1   4.3197832147990438E-002           4      145854           0
</event>
<event>
      5   9999  3.79277E-02  1.48067E+01 -1.00000E+00  1.77916E-01
       2    -1     0     0   502     0  0.000000000E+00  0.000000000E+00  1.606770738E+03  1.606770738E+03  0.000000000E+00  0.00000E+00  9.000E+00
      21    -1     0     0   501   502  0.000000000E+00  0.000000000E+00 -1.386657721E+02  1.386657721E+02  0.000000000E+00  0.00000E+00  9.000E+00
      25     1     1     2     0     0  1.114125100E+02 -1.745664423E+02  6.231057174E+01  2.497875047E+02  1.250000000E+02  0.00000E+00  9.000E+00
      25     1     1     2     0     0 -9.664372818E+01  1.756250646E+02  2.660061585E+02  3.557645990E+02  1.250000000E+02  0.00000E+00  9.000E+00
       2     1     1     2   501     0 -1.476878184E+01 -1.058622320E+00  1.139788236E+03  1.139884407E+03  0.000000000E+00  0.00000E+00  9.000E+00
#rwgt            1           1   2.9663496946652858E-002           4      146020           0
</event>
<event>
      5   9999 -3.79277E-02  5.41292E+01 -1.00000E+00  1.37137E-01
      21    -1     0     0   502   501  0.000000000E+00  0.000000000E+00  1.181355518E+03  1.181355518E+03  0.000000000E+00  0.00000E+00  9.000E+00
      21    -1     0     0   501   511  0.000000000E+00  0.000000000E+00 -2.584023457E+02  2.584023457E+02  0.000000000E+00  0.00000E+00  9.000E+00
      25     1     1     2     0     0  2.211849969E+02  1.179720635E+02  5.996816260E+02  6.618785865E+02  1.250000000E+02  0.00000E+00  9.000E+00
      25     1     1     2     0     0 -1.975852805E+02 -1.666857644E+02  5.090098436E+02  5.844143291E+02  1.250000000E+02  0.00000E+00  9.000E+00
      21     1     1     2   502   511 -2.359971641E+01  4.871370090E+01 -1.857382971E+02  1.934649484E+02  4.672030912E-06  0.00000E+00  9.000E+00
#rwgt            1           1 -0.10505045030887954                4      146217           0
</event>
<event>
      5   9999  3.79277E-02  1.09663E+02 -1.00000E+00  1.22053E-01
      21    -1     0     0   512   501  0.000000000E+00  0.000000000E+00  1.267342186E+02  1.267342186E+02  0.000000000E+00  0.00000E+00  9.000E+00
      21    -1     0     0   501   502  0.000000000E+00  0.000000000E+00 -8.655239849E+02  8.655239849E+02  0.000000000E+00  0.00000E+00  9.000E+00
      25     1     1     2     0     0  1.250730365E+02 -1.819565610E+02 -3.505190628E+02  4.327124541E+02  1.250000000E+02  0.00000E+00  9.000E+00
      25     1     1     2     0     0 -1.805714486E+02  8.737424917E+01 -3.826208139E+02  4.497376954E+02  1.250000000E+02  0.00000E+00  9.000E+00
      21     1     1     2   512   502  5.549841214E+01  9.458231183E+01 -5.649889702E+00  1.098080540E+02  2.356457400E-06  0.00000E+00  9.000E+00
#rwgt            1           1   3.7669922551608552E-002           4      146432           0
</event>
<event>
      5   9999  3.79277E-02  1.09088E+02 -1.00000E+00  1.22152E-01
      21    -1     0     0   502   501  0.000000000E+00  0.000000000E+00  6.045671345E+02  6.045671345E+02  0.000000000E+00  0.00000E+00  9.000E+00
      21    -1     0     0   511   502  0.000000000E+00  0.000000000E+00 -2.159915195E+02  2.159915195E+02  0.000000000E+00  0.00000E+00  9.000E+00
      25     1     1     2     0     0 -1.141695427E+02 -1.830297767E+01  1.741836513E+02  2.435870026E+02  1.250000000E+02  0.00000E+00  9.000E+00
      25     1     1     2     0     0  1.742456508E+02 -7.275191692E+01  3.413194854E+02  4.096075919E+02  1.250000000E+02  0.00000E+00  9.000E+00
      21     1     1     2   511   501 -6.007610817E+01  9.105489459E+01 -1.269275217E+02  1.673640594E+02  3.015782986E-06  0.00000E+00  9.000E+00
#rwgt            1           1   1.5219176440880351E-002           4      146654           0
</event>
<event>
      5   9999  3.79277E-02  4.59411E+01 -1.00000E+00  1.41206E-01
      21    -1     0     0   502   501  0.000000000E+00  0.000000000E+00  1.855422604E+02  1.855422604E+02  0.000000000E+00  0.00000E+00  9.000E+00
      21    -1     0     0   512   502  0.000000000E+00  0.000000000E+00 -2.349834829E+02  2.349834829E+02  0.000000000E+00  0.00000E+00  9.000E+00
      25     1     1     2     0     0  3.230693325E+01  1.253325098E+02  1.329985722E+01  1.804268887E+02  1.250000000E+02  0.00000E+00  9.000E+00
      25     1     1     2     0     0  1.217364319E+01 -1.368241822E+02 -4.762251858E+01  1.917340833E+02  1.250000000E+02  0.00000E+00  9.000E+00
      21     1     1     2   512   501 -4.448057644E+01  1.149167235E+01 -1.511856119E+01  4.836477134E+01  5.591411304E-07  0.00000E+00  9.000E+00
#rwgt            1           1  0.21261327547329609                4      146705           0
</event>
<event>
      5   9999  3.79277E-02  1.91170E+01 -1.00000E+00  1.68003E-01
      21    -1     0     0   502   501  0.000000000E+00  0.000000000E+00  4.388193840E+01  4.388193840E+01  0.000000000E+00  0.00000E+00  9.000E+00
      21    -1     0     0   501   511  0.000000000E+00  0.000000000E+00 -7.317796526E+02  7.317796526E+02  0.000000000E+00  0.00000E+00  9.000E+00
      25     1     1     2     0     0  1.575761871E+01  2.961021346E+01 -4.806073134E+02  4.977282963E+02  1.250000000E+02  0.00000E+00  9.000E+00
      25     1     1     2     0     0 -2.166991592E+01 -4.779003424E+01 -9.874465736E+01  1.677169639E+02  1.250000000E+02  0.00000E+00  9.000E+00
      21     1     1     2   502   511  5.912297214E+00  1.817982078E+01 -1.085457434E+02  1.102163307E+02  1.348699152E-06  0.00000E+00  9.000E+00
#rwgt            1           1   4.3839428954829680E-002           4      146765           0
</event>
<event>
      5   9999  3.79277E-02  5.49831E+01 -1.00000E+00  1.36762E-01
       2    -1     0     0   502     0  0.000000000E+00  0.000000000E+00  1.292009957E+03  1.292009957E+03  0.000000000E+00  0.00000E+00  9.000E+00
      21    -1     0     0   501   502  0.000000000E+00  0.000000000E+00 -6.110304640E+01  6.110304640E+01  0.000000000E+00  0.00000E+00  9.000E+00
      25     1     1     2     0     0  6.973687622E+01  6.258439043E+01  7.536617539E+02  7.696824521E+02  1.250000000E+02  0.00000E+00  9.000E+00
      25     1     1     2     0     0 -6.624129846E+01 -7.712532878E+00  4.638607099E+01  1.490773637E+02  1.250000000E+02  0.00000E+00  9.000E+00
       2     1     1     2   501     0 -3.495577752E+00 -5.487185755E+01  4.308590853E+02  4.343531872E+02  0.000000000E+00  0.00000E+00  9.000E+00
#rwgt            1           1   5.4919175600109511E-002           4      146940           0
</event>
<event>
      5   9999  3.79277E-02  2.26481E+01 -1.00000E+00  1.62033E-01
       2    -1     0     0   502     0  0.000000000E+00  0.000000000E+00  7.776173624E+02  7.776173624E+02  0.000000000E+00  0.00000E+00  9.000E+00
      21    -1     0     0   501   502  0.000000000E+00  0.000000000E+00 -1.645148994E+02  1.645148994E+02  0.000000000E+00  0.00000E+00  9.000E+00
      25     1     1     2     0     0  2.047105068E+01  5.926885212E+01  1.660377178E+01  1.408280724E+02  1.250000000E+02  0.00000E+00  9.000E+00
      25     1     1     2     0     0 -4.206727336E+01 -6.609095467E+01 -4.897080542E+01  1.554374780E+02  1.250000000E+02  0.00000E+00  9.000E+00
       2     1     1     2   501     0  2.159622268E+01  6.822102544E+00  6.454694966E+02  6.458667114E+02  7.629394531E-06  0.00000E+00  9.000E+00
#rwgt            1           1   9.0496801761756090E-002           4      147068           0
</event>
<event>
      5   9999  3.79277E-02  3.78523E+01 -1.00000E+00  1.46342E-01
      21    -1     0     0   502   511  0.000000000E+00  0.000000000E+00  2.100796400E+02  2.100796400E+02  0.000000000E+00  0.00000E+00  9.000E+00
      21    -1     0     0   501   502  0.000000000E+00  0.000000000E+00 -4.919808751E+02  4.919808751E+02  0.000000000E+00  0.00000E+00  9.000E+00
      25     1     1     2     0     0  1.399860442E+02  4.918870240E+01 -2.210076271E+02  2.940833083E+02  1.250000000E+02  0.00000E+00  9.000E+00
      25     1     1     2     0     0 -1.776502806E+02 -4.542049475E+01 -1.782664782E+02  2.846516832E+02  1.250000000E+02  0.00000E+00  9.000E+00
      21     1     1     2   501   511  3.766423638E+01 -3.768207652E+00  1.173728702E+02  1.233255235E+02  1.348699152E-06  0.00000E+00  9.000E+00
#rwgt            1           1   3.9143720903761545E-002           4      147214           0
</event>
<event>
      5   9999  3.79277E-02  4.27104E+01 -1.00000E+00  1.43096E-01
      21    -1     0     0   502   512  0.000000000E+00  0.000000000E+00  1.403504263E+02  1.403504263E+02  0.000000000E+00  0.00000E+00  9.000E+00
      21    -1     0     0   501   502  0.000000000E+00  0.000000000E+00 -1.175926109E+03  1.175926109E+03  0.000000000E+00  0.00000E+00  9.000E+00
      25     1     1     2     0     0  3.893733070E+01  2.060805808E+02 -3.348668634E+02  4.144226558E+02  1.250000000E+02  0.00000E+00  9.000E+00
      25     1     1     2     0     0 -8.502857054E+00 -1.761152233E+02 -7.813004121E+02  8.106443144E+02  1.250000000E+02  0.00000E+00  9.000E+00
      21     1     1     2   501   512 -3.043447364E+01 -2.996535746E+01  8.059159312E+01  9.120956482E+01  2.861022949E-06  0.00000E+00  9.000E+00
#rwgt            1           1   2.5345850011378759E-002           4      147312           0
</event>
<event>
      5   9999  3.79277E-02  3.14442E+01 -1.00000E+00  1.51635E-01
      21    -1     0     0   511   501  0.000000000E+00  0.000000000E+00  6.251967230E+02  6.251967230E+02  0.000000000E+00  0.00000E+00  9.000E+00
      21    -1     0     0   501   502  0.000000000E+00  0.000000000E+00 -1.086674871E+02  1.086674871E+02  0.000000000E+00  0.00000E+00  9.000E+00
      25     1     1     2     0     0 -5.434209548E+01  2.659159545E+01 -3.960028412E+01  1.444069209E+02  1.250000000E+02  0.00000E+00  9.000E+00
      25     1     1     2     0     0  8.578086051E+01 -2.600927773E+01  5.162177394E+02  5.386470023E+02  1.250000000E+02  0.00000E+00  9.000E+00
      21     1     1     2   511   502 -3.143876503E+01 -5.823177194E-01  3.991178059E+01  5.081028706E+01  6.743495762E-07  0.00000E+00  9.000E+00
#rwgt            1           1   4.1893449363147824E-002           4      147458           0
</event>
<event>
      5   9999  3.79277E-02  1.26734E+01 -1.00000E+00  1.84569E-01
      21    -1     0     0   502   501  0.000000000E+00  0.000000000E+00  1.586986821E+02  1.586986821E+02  0.000000000E+00  0.00000E+00  9.000E+00
      21    -1     0     0   512   502  0.000000000E+00  0.000000000E+00 -6.051152777E+02  6.051152777E+02  0.000000000E+00  0.00000E+00  9.000E+00
      25     1     1     2     0     0 -1.428154170E+02 -2.261451530E+02 -2.026625969E+02  3.580991507E+02  1.250000000E+02  0.00000E+00  9.000E+00
      25     1     1     2     0     0  1.372421507E+02  2.147630156E+02 -1.700066178E+02  3.308864018E+02  1.250000000E+02  0.00000E+00  9.000E+00
      21     1     1     2   512   501  5.573266304E+00  1.138213735E+01 -7.374738089E+01  7.482840728E+01  9.536743164E-07  0.00000E+00  9.000E+00
#rwgt            1           1   3.8216085117197561E-002           4      147677           0
</event>
<event>
      5   9999 -3.79277E-02  8.35844E+01 -1.00000E+00  1.27435E-01
      21    -1     0     0   511   501  0.000000000E+00  0.000000000E+00  8.419997468E+02  8.419997468E+02  0.000000000E+00  0.00000E+00  9.000E+00
      21    -1     0     0   501   502  0.000000000E+00  0.000000000E+00 -1.606457139E+02  1.606457139E+02  0.000000000E+00  0.00000E+00  9.000E+00
      25     1     1     2     0     0 -8.634681625E+01  2.098005125E+02  1.619492913E+02  3.054907538E+02  1.250000000E+02  0.00000E+00  9.000E+00
      25     1     1     2     0     0  1.097446649E+01 -2.459303195E+02  1.417386604E+02  3.103498168E+02  1.250000000E+02  0.00000E+00  9.000E+00
      21     1     1     2   511   502  7.537234975E+01  3.612980695E+01  3.776660812E+02  3.868048900E+02  0.000000000E+00  0.00000E+00  9.000E+00
#rwgt            1           1  -1.8488379400499064E-002           4      147974           0
</event>
<event>
      5   9999  3.79277E-02  9.92302E+00 -1.00000E+00  1.96146E-01
      21    -1     0     0   512   501  0.000000000E+00  0.000000000E+00  1.644643679E+03  1.644643679E+03  0.000000000E+00  0.00000E+00  9.000E+00
      21    -1     0     0   501   502  0.000000000E+00  0.000000000E+00 -2.052315057E+01  2.052315057E+01  0.000000000E+00  0.00000E+00  9.000E+00
      25     1     1     2     0     0 -1.051099226E+02 -2.458714866E+01  4.981501589E+02  5.248154004E+02  1.250000000E+02  0.00000E+00  9.000E+00
      25     1     1     2     0     0  1.041665697E+02  1.470907123E+01  9.381886700E+02  9.523077294E+02  1.250000000E+02  0.00000E+00  9.000E+00
      21     1     1     2   512   502  9.433528753E-01  9.878077435E+00  1.877816991E+02  1.880436993E+02  0.000000000E+00  0.00000E+00  9.000E+00
#rwgt            1           1   5.4292903616055072E-002           4      148049           0
</event>
<event>
      5   9999  3.79277E-02  1.87128E+01 -1.00000E+00  1.68789E-01
      21    -1     0     0   502   501  0.000000000E+00  0.000000000E+00  1.899508975E+02  1.899508975E+02  0.000000000E+00  0.00000E+00  9.000E+00
       2    -1     0     0   501     0  0.000000000E+00  0.000000000E+00 -1.797276211E+03  1.797276211E+03  0.000000000E+00  0.00000E+00  9.000E+00
      25     1     1     2     0     0  1.036084208E+02 -7.611548891E+01  6.229818561E+01  1.898271225E+02  1.250000000E+02  0.00000E+00  9.000E+00
      25     1     1     2     0     0 -9.524282644E+01  9.285422896E+01 -6.665441223E+01  1.943216779E+02  1.250000000E+02  0.00000E+00  9.000E+00
       2     1     1     2   502     0 -8.365594309E+00 -1.673874005E+01 -1.602969087E+03  1.603078308E+03  3.051757812E-05  0.00000E+00  9.000E+00
#rwgt            1           1   3.2669047819675619E-002           4      148308           0
</event>
<event>
      5   9999  3.79277E-02  5.51421E+01 -1.00000E+00  1.36693E-01
      21    -1     0     0   502   501  0.000000000E+00  0.000000000E+00  8.529838529E+02  8.529838529E+02  0.000000000E+00  0.00000E+00  9.000E+00
      21    -1     0     0   501   511  0.000000000E+00  0.000000000E+00 -7.819868938E+01  7.819868938E+01  0.000000000E+00  0.00000E+00  9.000E+00
      25     1     1     2     0     0  1.722742170E+02 -6.077393871E+01  5.048471545E+02  5.512418044E+02  1.250000000E+02  0.00000E+00  9.000E+00
      25     1     1     2     0     0 -1.172678341E+02  5.690708208E+01  2.699610532E+02  3.247986009E+02  1.250000000E+02  0.00000E+00  9.000E+00
      21     1     1     2   502   511 -5.500638293E+01  3.866856632E+00 -2.304416561E-02  5.514213701E+01  1.977975457E-07  0.00000E+00  9.000E+00
#rwgt            1           1   4.8450743241616787E-002           4      148481           0
</event>
<event>
      5   9999  3.79277E-02  1.38123E+01 -1.00000E+00  1.80826E-01
      21    -1     0     0   512   501  0.000000000E+00  0.000000000E+00  8.955257364E+01  8.955257364E+01  0.000000000E+00  0.00000E+00  9.000E+00
      21    -1     0     0   501   502  0.000000000E+00  0.000000000E+00 -4.434791840E+02  4.434791840E+02  0.000000000E+00  0.00000E+00  9.000E+00
      25     1     1     2     0     0 -1.858352001E+01  7.810790672E+01 -3.413381881E+02  3.722673112E+02  1.250000000E+02  0.00000E+00  9.000E+00
      25     1     1     2     0     0  1.029728618E+01 -6.705717069E+01 -2.218717332E+01  1.439443257E+02  1.250000000E+02  0.00000E+00  9.000E+00
      21     1     1     2   512   502  8.286233826E+00 -1.105073603E+01  9.598751113E+00  1.682012071E+01  1.192092896E-07  0.00000E+00  9.000E+00
#rwgt            1           1   2.5037278277634602E-002           4      148562           0
</event>
<event>
      5   9999  3.79277E-02  4.81674E+01 -1.00000E+00  1.40007E-01
      21    -1     0     0   502   501  0.000000000E+00  0.000000000E+00  4.829155818E+02  4.829155818E+02  0.000000000E+00  0.00000E+00  9.000E+00
      21    -1     0     0   511   502  0.000000000E+00  0.000000000E+00 -2.033366931E+02  2.033366931E+02  0.000000000E+00  0.00000E+00  9.000E+00
      25     1     1     2     0     0 -6.280624558E+01  1.399039243E+02  3.828265454E+02  4.309279481E+02  1.250000000E+02  0.00000E+00  9.000E+00
      25     1     1     2     0     0  8.359746205E+01 -9.645481814E+01 -1.048157805E+02  2.071313966E+02  1.250000000E+02  0.00000E+00  9.000E+00
      21     1     1     2   511   501 -2.079121647E+01 -4.344910618E+01  1.568123796E+00  4.819293021E+01  1.076396186E-06  0.00000E+00  9.000E+00
#rwgt            1           1   5.1457560578836374E-002           4      148768           0
</event>
<event>
      5   9999  3.79277E-02  2.46955E+01 -1.00000E+00  1.59151E-01
      21    -1     0     0   502   501  0.000000000E+00  0.000000000E+00  1.135742424E+02  1.135742424E+02  0.000000000E+00  0.00000E+00  9.000E+00
      21    -1     0     0   501   512  0.000000000E+00  0.000000000E+00 -1.130571931E+03  1.130571931E+03  0.000000000E+00  0.00000E+00  9.000E+00
      25     1     1     2     0     0  1.005249329E+01 -6.874385901E+01 -1.698159452E+02  2.220117700E+02  1.250000000E+02  0.00000E+00  9.000E+00
      25     1     1     2     0     0 -4.370182178E+00  4.471101334E+01  3.678157918E+01  1.378261868E+02  1.250000000E+02  0.00000E+00  9.000E+00
      21     1     1     2   502   512 -5.682311109E+00  2.403284567E+01 -8.839633225E+02  8.843082165E+02  0.000000000E+00  0.00000E+00  9.000E+00
#rwgt            1           1   3.4873613723891229E-002           4      148895           0
</event>
<event>
      5   9999  3.79277E-02  1.21761E+01 -1.00000E+00  1.86365E-01
      21    -1     0     0   502   511  0.000000000E+00  0.000000000E+00  1.472018201E+02  1.472018201E+02  0.000000000E+00  0.00000E+00  9.000E+00
      21    -1     0     0   501   502  0.000000000E+00  0.000000000E+00 -7.581833670E+02  7.581833670E+02  0.000000000E+00  0.00000E+00  9.000E+00
      25     1     1     2     0     0 -2.350130482E+02 -1.198855353E+01 -2.837434698E+02  3.892431308E+02  1.250000000E+02  0.00000E+00  9.000E+00
      25     1     1     2     0     0  2.230868268E+02  1.444258824E+01 -3.820686255E+02  4.599758203E+02  1.250000000E+02  0.00000E+00  9.000E+00
      21     1     1     2   501   511  1.192622137E+01 -2.454034710E+00  5.483054834E+01  5.616623607E+01  0.000000000E+00  0.00000E+00  9.000E+00
#rwgt            1           1   3.7904774701720857E-002           4      149034           0
</event>
<event>
      5   9999  3.79277E-02  4.98036E+01 -1.00000E+00  1.39173E-01
      21    -1     0     0   512   501  0.000000000E+00  0.000000000E+00  7.040676720E+02  7.040676720E+02  0.000000000E+00  0.00000E+00  9.000E+00
      21    -1     0     0   501   502  0.000000000E+00  0.000000000E+00 -1.537957000E+02  1.537957000E+02  0.000000000E+00  0.00000E+00  9.000E+00
      25     1     1     2     0     0 -6.746147966E+00  2.394430950E+01 -1.115542133E+02  1.693758630E+02  1.250000000E+02  0.00000E+00  9.000E+00
      25     1     1     2     0     0 -2.323937659E+01  1.582082728E+01  3.500901094E+02  3.727981383E+02  1.250000000E+02  0.00000E+00  9.000E+00
      21     1     1     2   512   502  2.998552455E+01 -3.976513678E+01  3.117360758E+02  3.156893707E+02  3.814697266E-06  0.00000E+00  9.000E+00
#rwgt            1           1   3.4507015361891796E-002           4      149247           0
</event>
<event>
      5   9999  3.79277E-02  9.61536E+01 -1.00000E+00  1.24599E-01
      21    -1     0     0   502   511  0.000000000E+00  0.000000000E+00  9.824507662E+01  9.824507662E+01  0.000000000E+00  0.00000E+00  9.000E+00
      21    -1     0     0   501   502  0.000000000E+00  0.000000000E+00 -1.231597970E+03  1.231597970E+03  0.000000000E+00  0.00000E+00  9.000E+00
      25     1     1     2     0     0 -1.815219580E+02  9.771250825E+01 -1.879330132E+02  3.056824708E+02  1.250000000E+02  0.00000E+00  9.000E+00
      25     1     1     2     0     0  1.752668809E+02 -1.762563005E+00 -8.845239987E+02  9.103456983E+02  1.250000000E+02  0.00000E+00  9.000E+00
      21     1     1     2   501   511  6.255077039E+00 -9.594994524E+01 -6.089588166E+01  1.138148777E+02  1.651812370E-06  0.00000E+00  9.000E+00
#rwgt            1           1   4.9004549647180172E-002           4      149452           0
</event>
<event>
      5   9999  3.79277E-02  6.92070E+01 -1.00000E+00  1.31472E-01
      21    -1     0     0   502   501  0.000000000E+00  0.000000000E+00  3.178225870E+02  3.178225870E+02  0.000000000E+00  0.00000E+00  9.000E+00
       2    -1     0     0   501     0  0.000000000E+00  0.000000000E+00 -4.890930577E+02  4.890930577E+02  0.000000000E+00  0.00000E+00  9.000E+00
      25     1     1     2     0     0 -1.115635569E+02  8.014413566E+01  1.524153992E+02  2.402601998E+02  1.250000000E+02  0.00000E+00  9.000E+00
      25     1     1     2     0     0  1.769305619E+02 -1.028764949E+02 -4.299778084E+00  2.398572180E+02  1.250000000E+02  0.00000E+00  9.000E+00
       2     1     1     2   502     0 -6.536700501E+01  2.273235923E+01 -3.193860918E+02  3.267982270E+02  3.814697266E-06  0.00000E+00  9.000E+00
#rwgt            1           1   3.2273001074282305E-002           4      149763           0
</event>
<event>
      5   9999  3.79277E-02  7.43454E+01 -1.00000E+00  1.29910E-01
      21    -1     0     0   511   501  0.000000000E+00  0.000000000E+00  1.064196844E+02  1.064196844E+02  0.000000000E+00  0.00000E+00  9.000E+00
      21    -1     0     0   501   502  0.000000000E+00  0.000000000E+00 -8.829878785E+02  8.829878785E+02  0.000000000E+00  0.00000E+00  9.000E+00
      25     1     1     2     0     0 -1.197833153E+02  1.385527404E+02 -2.697165484E+02  3.491660364E+02  1.250000000E+02  0.00000E+00  9.000E+00
      25     1     1     2     0     0  4.543808520E+01 -1.386981732E+02 -5.288741372E+02  5.627029908E+02  1.250000000E+02  0.00000E+00  9.000E+00
      21     1     1     2   511   502  7.434523007E+01  1.454328014E-01  2.202249152E+01  7.753853569E+01  2.396077066E-06  0.00000E+00  9.000E+00
#rwgt            1           1   4.8469524409956367E-002           4      149850           0
</event>
<event>
      5   9999  3.79277E-02  6.09032E+01 -1.00000E+00  1.34358E-01
      21    -1     0     0   502   512  0.000000000E+00  0.000000000E+00  4.858082236E+02  4.858082236E+02  0.000000000E+00  0.00000E+00  9.000E+00
      21    -1     0     0   501   502  0.000000000E+00  0.000000000E+00 -1.727059148E+02  1.727059148E+02  0.000000000E+00  0.00000E+00  9.000E+00
      25     1     1     2     0     0  3.111400640E+01  1.268101531E+02 -6.970599393E+01  1.937338946E+02  1.250000000E+02  0.00000E+00  9.000E+00
      25     1     1     2     0     0 -9.193986273E+01 -1.298781868E+02  3.038360469E+02  3.650515377E+02  1.250000000E+02  0.00000E+00  9.000E+00
      21     1     1     2   501   512  6.082585632E+01  3.068033730E+00  7.897225578E+01  9.972870606E+01  0.000000000E+00  0.00000E+00  9.000E+00
#rwgt            1           1   4.0299238964642367E-002           4      149910           0
</event>
<event>
      5   9999  3.79277E-02  3.43948E+01 -1.00000E+00  1.49027E-01
      21    -1     0     0   502   511  0.000000000E+00  0.000000000E+00  3.344066300E+02  3.344066300E+02  0.000000000E+00  0.00000E+00  9.000E+00
      21    -1     0     0   501   502  0.000000000E+00  0.000000000E+00 -3.383931913E+02  3.383931913E+02  0.000000000E+00  0.00000E+00  9.000E+00
      25     1     1     2     0     0 -2.056749910E+02  8.772322185E+01 -1.020886917E+02  2.757619744E+02  1.250000000E+02  0.00000E+00  9.000E+00
      25     1     1     2     0     0  1.771208266E+02 -1.068977713E+02 -4.843743016E+01  2.465159333E+02  1.250000000E+02  0.00000E+00  9.000E+00
      21     1     1     2   501   511  2.855416443E+01  1.917454949E+01  1.465395606E+02  1.505219136E+02  0.000000000E+00  0.00000E+00  9.000E+00
#rwgt            1           1   7.4448570438229805E-002           4      150316           0
</event>
<event>
      5   9999  3.79277E-02  3.76673E+01 -1.00000E+00  1.46477E-01
      21    -1     0     0   502   512  0.000000000E+00  0.000000000E+00  4.366077609E+02  4.366077609E+02  0.000000000E+00  0.00000E+00  9.000E+00
      21    -1     0     0   501   502  0.000000000E+00  0.000000000E+00 -3.686113527E+02  3.686113527E+02  0.000000000E+00  0.00000E+00  9.000E+00
      25     1     1     2     0     0 -4.265919297E+00 -4.979185514E+01  3.811797608E+02  4.042529368E+02  1.250000000E+02  0.00000E+00  9.000E+00
      25     1     1     2     0     0  4.125288921E+01  4.266500192E+01 -3.313977313E+02  3.591261054E+02  1.250000000E+02  0.00000E+00  9.000E+00
      21     1     1     2   501   512 -3.698696991E+01  7.126853222E+00  1.821437874E+01  4.184007138E+01  8.596304120E-07  0.00000E+00  9.000E+00
#rwgt            1           1   3.3061853614076361E-002           4      150451           0
</event>
<event>
      5   9999  3.79277E-02  1.30596E+01 -1.00000E+00  1.83245E-01
      21    -1     0     0   502   511  0.000000000E+00  0.000000000E+00  2.216374298E+02  2.216374298E+02  0.000000000E+00  0.00000E+00  9.000E+00
      21    -1     0     0   501   502  0.000000000E+00  0.000000000E+00 -4.095663874E+02  4.095663874E+02  0.000000000E+00  0.00000E+00  9.000E+00
      25     1     1     2     0     0  1.393692259E+02  1.592195331E+02 -8.927099296E+01  2.614745705E+02  1.250000000E+02  0.00000E+00  9.000E+00
      25     1     1     2     0     0 -1.349551045E+02 -1.469285320E+02 -1.743258695E+02  2.929426267E+02  1.250000000E+02  0.00000E+00  9.000E+00
      21     1     1     2   501   511 -4.414121427E+00 -1.229100102E+01  7.566790489E+01  7.678661996E+01  0.000000000E+00  0.00000E+00  9.000E+00
#rwgt            1           1   2.9066144842916319E-002           4      150648           0
</event>
<event>
      5   9999  3.79277E-02  1.00512E+02 -1.00000E+00  1.23728E-01
      21    -1     0     0   512   501  0.000000000E+00  0.000000000E+00  1.502763147E+03  1.502763147E+03  0.000000000E+00  0.00000E+00  9.000E+00
      21    -1     0     0   501   502  0.000000000E+00  0.000000000E+00 -4.853121287E+01  4.853121287E+01  0.000000000E+00  0.00000E+00  9.000E+00
      25     1     1     2     0     0  1.021872626E+02 -1.356428159E+02  8.538959169E+02  8.795478651E+02  1.250000000E+02  0.00000E+00  9.000E+00
      25     1     1     2     0     0 -1.722882034E+00  1.387426253E+02  2.846497700E+02  3.404452614E+02  1.250000000E+02  0.00000E+00  9.000E+00
      21     1     1     2   512   502 -1.004643806E+02 -3.099809412E+00  3.156862472E+02  3.313012334E+02  0.000000000E+00  0.00000E+00  9.000E+00
#rwgt            2          11   2.2765183517745721E-003           4      150874           0
</event>
<event>
      5   9999  3.79277E-02  1.07913E+02 -1.00000E+00  1.22358E-01
      21    -1     0     0   502   501  0.000000000E+00  0.000000000E+00  6.415248741E+02  6.415248741E+02  0.000000000E+00  0.00000E+00  9.000E+00
      -4    -1     0     0     0   502  0.000000000E+00  0.000000000E+00 -9.136255344E+01  9.136255344E+01  0.000000000E+00  0.00000E+00  9.000E+00
      25     1     1     2     0     0  5.172981481E+01  3.923729546E+01  1.489969896E+02  2.050381477E+02  1.250000000E+02  0.00000E+00  9.000E+00
      25     1     1     2     0     0 -6.309918979E+01 -1.465500461E+02  3.584517128E+02  4.117900608E+02  1.250000000E+02  0.00000E+00  9.000E+00
      -4     1     1     2     0   501  1.136937499E+01  1.073127506E+02  4.271361818E+01  1.160592190E+02  2.939421655E-06  0.00000E+00  9.000E+00
#rwgt            1           1   3.7355692637654932E-002           4      150924           0
</event>
<event>
      5   9999  3.79277E-02  2.13316E+01 -1.00000E+00  1.64092E-01
      21    -1     0     0   502   511  0.000000000E+00  0.000000000E+00  1.118542602E+02  1.118542602E+02  0.000000000E+00  0.00000E+00  9.000E+00
      21    -1     0     0   501   502  0.000000000E+00  0.000000000E+00 -7.092854355E+02  7.092854355E+02  0.000000000E+00  0.00000E+00  9.000E+00
      25     1     1     2     0     0  8.981101033E+01  1.677850582E+02 -3.564657282E+02  4.229783194E+02  1.250000000E+02  0.00000E+00  9.000E+00
      25     1     1     2     0     0 -8.922690561E+01 -1.464614915E+02 -2.813950229E+02  3.524493837E+02  1.250000000E+02  0.00000E+00  9.000E+00
      21     1     1     2   501   511 -5.841047251E-01 -2.132356664E+01  4.042957577E+01  4.571199263E+01  4.768371582E-07  0.00000E+00  9.000E+00
#rwgt            1           1   3.7365051145176076E-002           4      150972           0
</event>
<event>
      5   9999  3.79277E-02  2.19192E+02 -1.00000E+00  1.10218E-01
      21    -1     0     0   502   501  0.000000000E+00  0.000000000E+00  2.212646077E+03  2.212646077E+03  0.000000000E+00  0.00000E+00  9.000E+00
      21    -1     0     0   512   502  0.000000000E+00  0.000000000E+00 -7.672244674E+01  7.672244674E+01  0.000000000E+00  0.00000E+00  9.000E+00
      25     1     1     2     0     0 -1.122637435E+02  1.442559255E+02  3.367328712E+02  4.030222658E+02  1.250000000E+02  0.00000E+00  9.000E+00
      25     1     1     2     0     0 -8.914159248E+01 -5.776397730E+01  1.531974613E+03  1.540731682E+03  1.250000000E+02  0.00000E+00  9.000E+00
      21     1     1     2   512   501  2.014053360E+02 -8.649194816E+01  2.672161456E+02  3.456145757E+02  3.814697266E-06  0.00000E+00  9.000E+00
#rwgt            1           1   4.4050232457575680E-002           4      151160           0
</event>
<event>
      5   9999  3.79277E-02  4.45923E+01 -1.00000E+00  1.41972E-01
      21    -1     0     0   502   501  0.000000000E+00  0.000000000E+00  1.477725423E+02  1.477725423E+02  0.000000000E+00  0.00000E+00  9.000E+00
      21    -1     0     0   511   502  0.000000000E+00  0.000000000E+00 -6.755142341E+02  6.755142341E+02  0.000000000E+00  0.00000E+00  9.000E+00
      25     1     1     2     0     0  7.229591218E+01 -9.750415669E+01 -2.322734814E+02  2.903613777E+02  1.250000000E+02  0.00000E+00  9.000E+00
      25     1     1     2     0     0 -1.020543839E+02  1.307141663E+02  2.518148522E+01  2.091898606E+02  1.250000000E+02  0.00000E+00  9.000E+00
      21     1     1     2   511   501  2.975847175E+01 -3.321000964E+01 -3.206496957E+02  3.237355382E+02  5.394796609E-06  0.00000E+00  9.000E+00
#rwgt            1           1   3.6217701707220280E-002           4      151231           0
</event>
<event>
      5   9999  3.79277E-02  3.64092E+01 -1.00000E+00  1.47420E-01
      21    -1     0     0   502   501  0.000000000E+00  0.000000000E+00  1.130486591E+02  1.130486591E+02  0.000000000E+00  0.00000E+00  9.000E+00
      21    -1     0     0   512   502  0.000000000E+00  0.000000000E+00 -3.405528284E+02  3.405528284E+02  0.000000000E+00  0.00000E+00  9.000E+00
      25     1     1     2     0     0 -1.021685043E+02 -3.748209340E+01 -1.026712578E+01  1.660533784E+02  1.250000000E+02  0.00000E+00  9.000E+00
      25     1     1     2     0     0  6.662532771E+01  4.537614051E+01 -1.936000440E+02  2.441391109E+02  1.250000000E+02  0.00000E+00  9.000E+00
      21     1     1     2   512   501  3.554317657E+01 -7.894047109E+00 -2.363699960E+01  4.340899827E+01  4.768371582E-07  0.00000E+00  9.000E+00
#rwgt            1           1   2.2818164359218303E-002           4      151412           0
</event>
<event>
      5   9999  3.79277E-02  5.34618E+01 -1.00000E+00  1.37437E-01
      21    -1     0     0   502   501  0.000000000E+00  0.000000000E+00  5.084268002E+02  5.084268002E+02  0.000000000E+00  0.00000E+00  9.000E+00
      21    -1     0     0   511   502  0.000000000E+00  0.000000000E+00 -1.561791534E+02  1.561791534E+02  0.000000000E+00  0.00000E+00  9.000E+00
      25     1     1     2     0     0  1.022912254E+02  7.581415411E+01  4.120655365E+02  4.490370665E+02  1.250000000E+02  0.00000E+00  9.000E+00
      25     1     1     2     0     0 -5.845795795E+01 -4.520687317E+01 -6.991038730E+01  1.611628260E+02  1.250000000E+02  0.00000E+00  9.000E+00
      21     1     1     2   511   501 -4.383326745E+01 -3.060728094E+01  1.009249762E+01  5.440606115E+01  1.192092896E-07  0.00000E+00  9.000E+00
#rwgt            2          11   2.8243943940372937E-003           4      151563           0
</event>
<event>
      5   9999  3.79277E-02  4.03452E+01 -1.00000E+00  1.44609E-01
      21    -1     0     0   502   501  0.000000000E+00  0.000000000E+00  6.630812258E+02  6.630812258E+02  0.000000000E+00  0.00000E+00  9.000E+00
       5    -1     0     0   501     0  0.000000000E+00  0.000000000E+00 -1.826839348E+02  1.826839348E+02  0.000000000E+00  0.00000E+00  9.000E+00
      25     1     1     2     0     0  1.944672350E+01  1.210639825E+02  1.841098498E+02  2.540789242E+02  1.250000000E+02  0.00000E+00  9.000E+00
      25     1     1     2     0     0 -4.188537988E+01 -8.753432402E+01  4.267407700E+02  4.551366034E+02  1.250000000E+02  0.00000E+00  9.000E+00
       5     1     1     2   502     0  2.243865638E+01 -3.352965848E+01 -1.304533289E+02  1.365496331E+02  2.697398305E-06  0.00000E+00  9.000E+00
#rwgt            1           1   5.0260960856581098E-002           4      151613           0
</event>
<event>
      5   9999  3.79277E-02  4.58779E+01 -1.00000E+00  1.41242E-01
      21    -1     0     0   511   501  0.000000000E+00  0.000000000E+00  4.033409498E+01  4.033409498E+01  0.000000000E+00  0.00000E+00  9.000E+00
      21    -1     0     0   501   502  0.000000000E+00  0.000000000E+00 -1.543986174E+03  1.543986174E+03  0.000000000E+00  0.00000E+00  9.000E+00
      25     1     1     2     0     0 -1.006947408E+02 -1.577300579E+00 -1.128980187E+03  1.140334679E+03  1.250000000E+02  0.00000E+00  9.000E+00
      25     1     1     2     0     0  1.458662185E+02 -6.442725419E+00 -2.966645718E+02  3.534873839E+02  1.250000000E+02  0.00000E+00  9.000E+00
      21     1     1     2   511   502 -4.517147766E+01  8.020025997E+00 -7.800732060E+01  9.049820594E+01  1.907348633E-06  0.00000E+00  9.000E+00
#rwgt            1           1   3.6304889582528935E-002           4      151793           0
</event>
<event>
      5   9999  3.79277E-02  5.81667E+01 -1.00000E+00  1.35428E-01
       2    -1     0     0   502     0  0.000000000E+00  0.000000000E+00  1.057761155E+03  1.057761155E+03  0.000000000E+00  0.00000E+00  9.000E+00
      21    -1     0     0   501   502  0.000000000E+00  0.000000000E+00 -3.850224219E+02  3.850224219E+02  0.000000000E+00  0.00000E+00  9.000E+00
      25     1     1     2     0     0  1.946532803E+02 -1.300735772E+01 -7.091702377E+01  2.423083060E+02  1.250000000E+02  0.00000E+00  9.000E+00
      25     1     1     2     0     0 -1.948431373E+02  7.117376668E+01 -1.630159649E+02  2.919396479E+02  1.250000000E+02  0.00000E+00  9.000E+00
       2     1     1     2   501     0  1.898569220E-01 -5.816640897E+01  9.066717218E+02  9.085356230E+02  1.525878906E-05  0.00000E+00  9.000E+00
#rwgt            1           1   3.8428087894672558E-002           4      152048           0
</event>
<event>
      5   9999  3.79277E-02  8.09456E+01 -1.00000E+00  1.28103E-01
      21    -1     0     0   502   511  0.000000000E+00  0.000000000E+00  2.898106083E+02  2.898106083E+02  0.000000000E+00  0.00000E+00  9.000E+00
      21    -1     0     0   501   502  0.000000000E+00  0.000000000E+00 -2.259682038E+02  2.259682038E+02  0.000000000E+00  0.00000E+00  9.000E+00
      25     1     1     2     0     0 -1.350369760E+01 -1.223609804E+02 -4.101952691E+01  1.801725866E+02  1.250000000E+02  0.00000E+00  9.000E+00
      25     1     1     2     0     0 -7.325155969E+00  2.005808586E+02  6.417182993E+01  2.450089029E+02  1.250000000E+02  0.00000E+00  9.000E+00
      21     1     1     2   501   511  2.082885357E+01 -7.821987827E+01  4.069010158E+01  9.059732261E+01  1.430511475E-06  0.00000E+00  9.000E+00
#rwgt            1           1   3.4800975957682473E-002           4      152262           0
</event>
<event>
      5   9999  3.79277E-02  1.92716E+01 -1.00000E+00  1.67709E-01
      21    -1     0     0   502   501  0.000000000E+00  0.000000000E+00  1.788358383E+02  1.788358383E+02  0.000000000E+00  0.00000E+00  9.000E+00
      21    -1     0     0   501   512  0.000000000E+00  0.000000000E+00 -2.719605876E+02  2.719605876E+02  0.000000000E+00  0.00000E+00  9.000E+00
      25     1     1     2     0     0  8.407875338E+01  7.891940850E+01  5.281286291E+01  1.780778153E+02  1.250000000E+02  0.00000E+00  9.000E+00
      25     1     1     2     0     0 -8.900672670E+01 -6.028849372E+01 -4.631796966E+01  1.712520195E+02  1.250000000E+02  0.00000E+00  9.000E+00
      21     1     1     2   502   512  4.927973328E+00 -1.863091478E+01 -9.961964264E+01  1.014665911E+02  1.348699152E-06  0.00000E+00  9.000E+00
#rwgt            1           1   4.5549641383579038E-002           4      152489           0
</event>
<event>
      5   9999  3.79277E-02  4.69598E+01 -1.00000E+00  1.40648E-01
      21    -1     0     0   502   501  0.000000000E+00  0.000000000E+00  7.957211191E+01  7.957211191E+01  0.000000000E+00  0.00000E+00  9.000E+00
       2    -1     0     0   501     0  0.000000000E+00  0.000000000E+00 -2.125266821E+03  2.125266821E+03  0.000000000E+00  0.00000E+00  9.000E+00
      25     1     1     2     0     0  1.127200462E+02 -1.131858836E+02 -2.800681664E+02  3.458034570E+02  1.250000000E+02  0.00000E+00  9.000E+00
      25     1     1     2     0     0 -6.818341166E+01  9.829594816E+01 -1.150254578E+02  2.077665204E+02  1.250000000E+02  0.00000E+00  9.000E+00
       2     1     1     2   502     0 -4.453663451E+01  1.488993547E+01 -1.650601084E+03  1.651268955E+03  2.157918644E-05  0.00000E+00  9.000E+00
#rwgt            1           1   4.0486219141499469E-002           4      152722           0
</event>
<event>
      5   9999  3.79277E-02  3.83004E+01 -1.00000E+00  1.46019E-01
      21    -1     0     0   511   501  0.000000000E+00  0.000000000E+00  5.104287478E+02  5.104287478E+02  0.000000000E+00  0.00000E+00  9.000E+00
      21    -1     0     0   501   502  0.000000000E+00  0.000000000E+00 -1.376823424E+02  1.376823424E+02  0.000000000E+00  0.00000E+00  9.000E+00
      25     1     1     2     0     0  5.887389137E+01  1.438240292E+02  8.697800850E+00  1.996300032E+02  1.250000000E+02  0.00000E+00  9.000E+00
      25     1     1     2     0     0 -9.506560926E+01 -1.312908772E+02  2.246652630E+02  3.039313161E+02  1.250000000E+02  0.00000E+00  9.000E+00
      21     1     1     2   511   502  3.619171789E+01 -1.253315200E+01  1.393833416E+02  1.445497709E+02  1.907348633E-06  0.00000E+00  9.000E+00
#rwgt            1           1  0.16175460564894437                4      152841           0
</event>
<event>
      5   9999  3.79277E-02  8.88357E+01 -1.00000E+00  1.26185E-01
      21    -1     0     0   502   501  0.000000000E+00  0.000000000E+00  1.836916168E+03  1.836916168E+03  0.000000000E+00  0.00000E+00  9.000E+00
       2    -1     0     0   501     0  0.000000000E+00  0.000000000E+00 -7.181987737E+02  7.181987737E+02  0.000000000E+00  0.00000E+00  9.000E+00
      25     1     1     2     0     0  3.437050050E+02 -4.443122994E+01  3.277967015E+02  4.931358253E+02  1.250000000E+02  0.00000E+00  9.000E+00
      25     1     1     2     0     0 -3.110442459E+02 -3.818272257E+01  1.403249585E+03  1.443239703E+03  1.250000000E+02  0.00000E+00  9.000E+00
       2     1     1     2   502     0 -3.266075911E+01  8.261395250E+01 -6.123288918E+02  6.187394137E+02  7.629394531E-06  0.00000E+00  9.000E+00
#rwgt            1           1   3.4523515190179856E-002           4      152947           0
</event>
<event>
      5   9999  3.79277E-02  1.45234E+02 -1.00000E+00  1.16952E-01
      21    -1     0     0   502   501  0.000000000E+00  0.000000000E+00  1.847893469E+02  1.847893469E+02  0.000000000E+00  0.00000E+00  9.000E+00
      21    -1     0     0   511   502  0.000000000E+00  0.000000000E+00 -7.297217650E+02  7.297217650E+02  0.000000000E+00  0.00000E+00  9.000E+00
      25     1     1     2     0     0 -1.480141179E+02 -1.451386506E+02  1.104016508E+01  2.423227027E+02  1.250000000E+02  0.00000E+00  9.000E+00
      25     1     1     2     0     0  1.753802676E+02  2.506247318E+00 -4.257173619E+02  4.771004001E+02  1.250000000E+02  0.00000E+00  9.000E+00
      21     1     1     2   511   501 -2.736614967E+01  1.426324033E+02 -1.302552213E+02  1.950880091E+02  1.907348633E-06  0.00000E+00  9.000E+00
#rwgt            1           1   1.8706652412749981E-002           4      153071           0
</event>
<event>
      5   9999  3.79277E-02  9.17463E+01 -1.00000E+00  1.25534E-01
      21    -1     0     0   502   512  0.000000000E+00  0.000000000E+00  7.928619919E+02  7.928619919E+02  0.000000000E+00  0.00000E+00  9.000E+00
      21    -1     0     0   501   502  0.000000000E+00  0.000000000E+00 -1.670654264E+02  1.670654264E+02  0.000000000E+00  0.00000E+00  9.000E+00
      25     1     1     2     0     0  1.361688210E+02  1.047101994E+02 -6.157452252E+01  2.211845282E+02  1.250000000E+02  0.00000E+00  9.000E+00
      25     1     1     2     0     0 -5.377176682E+01 -6.436036073E+01  2.497288202E+02  2.915872812E+02  1.250000000E+02  0.00000E+00  9.000E+00
      21     1     1     2   501   512 -8.239705419E+01 -4.034983869E+01  4.376422678E+02  4.471556089E+02  9.344061824E-06  0.00000E+00  9.000E+00
#rwgt            1           1   3.0567271127921285E-002           4      153180           0
</event>
<event>
      5   9999  3.79277E-02  6.24178E+01 -1.00000E+00  1.33793E-01
      21    -1     0     0   502   501  0.000000000E+00  0.000000000E+00  1.132252998E+03  1.132252998E+03  0.000000000E+00  0.00000E+00  9.000E+00
      21    -1     0     0   511   502  0.000000000E+00  0.000000000E+00 -8.061438040E+01  8.061438040E+01  0.000000000E+00  0.00000E+00  9.000E+00
      25     1     1     2     0     0 -7.745492023E+01  2.226619203E+00  8.024039547E+02  8.157703899E+02  1.250000000E+02  0.00000E+00  9.000E+00
      25     1     1     2     0     0  1.277045470E+02  3.479974688E+01  2.748091638E+02  3.296430648E+02  1.250000000E+02  0.00000E+00  9.000E+00
      21     1     1     2   511   501 -5.024962676E+01 -3.702636609E+01 -2.557450059E+01  6.745392395E+01  1.846782373E-06  0.00000E+00  9.000E+00
#rwgt            1           1   3.5548844954023148E-002           4      153230           0
</event>
<event>
      5   9999  3.79277E-02  6.54062E+01 -1.00000E+00  1.32731E-01
      21    -1     0     0   502   501  0.000000000E+00  0.000000000E+00  2.185539756E+02  2.185539756E+02  0.000000000E+00  0.00000E+00  9.000E+00
      21    -1     0     0   512   502  0.000000000E+00  0.000000000E+00 -2.820116390E+02  2.820116390E+02  0.000000000E+00  0.00000E+00  9.000E+00
      25     1     1     2     0     0 -1.355254680E+02 -1.086395406E+02 -1.121684814E+02  2.416122316E+02  1.250000000E+02  0.00000E+00  9.000E+00
      25     1     1     2     0     0  1.217084125E+02  4.470938968E+01  6.513118124E+01  1.915174612E+02  1.250000000E+02  0.00000E+00  9.000E+00
      21     1     1     2   512   501  1.381705553E+01  6.393015087E+01 -1.642036319E+01  6.743592175E+01  2.384185791E-07  0.00000E+00  9.000E+00
#rwgt            1           1   3.9228545723825427E-002           4      153325           0
</event>
<event>
      5   9999  3.79277E-02  5.11049E+01 -1.00000E+00  1.38536E-01
      21    -1     0     0   502   511  0.000000000E+00  0.000000000E+00  2.595262251E+01  2.595262251E+01  0.000000000E+00  0.00000E+00  9.000E+00
      21    -1     0     0   501   502  0.000000000E+00  0.000000000E+00 -2.096096897E+03  2.096096897E+03  0.000000000E+00  0.00000E+00  9.000E+00
      25     1     1     2     0     0  9.553896933E+01  4.286749575E+01 -4.483970554E+02  4.771270650E+02  1.250000000E+02  0.00000E+00  9.000E+00
      25     1     1     2     0     0 -9.191304408E+01  8.108636957E+00 -1.544535009E+03  1.552329589E+03  1.250000000E+02  0.00000E+00  9.000E+00
      21     1     1     2   501   511 -3.625925247E+00 -5.097613271E+01 -7.721221047E+01  9.259286628E+01  2.336015456E-06  0.00000E+00  9.000E+00
#rwgt            1           1  0.13527031086478614                4      153504           0
</event>
<event>
      5   9999  3.79277E-02  1.20328E+01 -1.00000E+00  1.86903E-01
      21    -1     0     0   502   501  0.000000000E+00  0.000000000E+00  2.570255832E+02  2.570255832E+02  0.000000000E+00  0.00000E+00  9.000E+00
      21    -1     0     0   501   512  0.000000000E+00  0.000000000E+00 -3.134476441E+02  3.134476441E+02  0.000000000E+00  0.00000E+00  9.000E+00
      25     1     1     2     0     0  9.626163890E+01 -2.156114830E+02 -4.024190075E+01  2.701833180E+02  1.250000000E+02  0.00000E+00  9.000E+00
      25     1     1     2     0     0 -8.520258740E+01  2.108695179E+02  2.181502429E+01  2.604348858E+02  1.250000000E+02  0.00000E+00  9.000E+00
      21     1     1     2   502   512 -1.105905150E+01  4.741965133E+00 -3.799518449E+01  3.985502350E+01  6.743495762E-07  0.00000E+00  9.000E+00
#rwgt            1           1   4.0465952278606894E-002           4      153654           0
</event>
<event>
      5   9999  3.79277E-02  1.73598E+01 -1.00000E+00  1.71607E-01
      21    -1     0     0   502   511  0.000000000E+00  0.000000000E+00  5.619859748E+01  5.619859748E+01  0.000000000E+00  0.00000E+00  9.000E+00
      21    -1     0     0   501   502  0.000000000E+00  0.000000000E+00 -9.386113370E+02  9.386113370E+02  0.000000000E+00  0.00000E+00  9.000E+00
      25     1     1     2     0     0 -8.090228140E+01 -4.218498243E+01 -6.514200490E+02  6.695504702E+02  1.250000000E+02  0.00000E+00  9.000E+00
      25     1     1     2     0     0  6.501100129E+01  4.917293161E+01 -2.551056928E+02  2.955474953E+02  1.250000000E+02  0.00000E+00  9.000E+00
      21     1     1     2   501   511  1.589128011E+01 -6.987949174E+00  2.411300232E+01  2.971196894E+01  1.066240300E-06  0.00000E+00  9.000E+00
#rwgt            1           1   3.6786472004363031E-002           4      153928           0
</event>
<event>
      5   9999  3.79277E-02  4.81929E+01 -1.00000E+00  1.39994E-01
      21    -1     0     0   502   501  0.000000000E+00  0.000000000E+00  8.871360881E+02  8.871360881E+02  0.000000000E+00  0.00000E+00  9.000E+00
      21    -1     0     0   501   512  0.000000000E+00  0.000000000E+00 -8.138013887E+01  8.138013887E+01  0.000000000E+00  0.00000E+00  9.000E+00
      25     1     1     2     0     0  1.057571637E+02 -1.539311942E+02  3.047577307E+02  3.786577144E+02  1.250000000E+02  0.00000E+00  9.000E+00
      25     1     1     2     0     0 -9.973432897E+01  1.061161665E+02  5.062243597E+02  5.413831171E+02  1.250000000E+02  0.00000E+00  9.000E+00
      21     1     1     2   502   512 -6.022834684E+00  4.781502773E+01 -5.226141201E+00  4.847539547E+01  1.356578669E-06  0.00000E+00  9.000E+00
#rwgt            1           1   6.0767500074928815E-002           4      154081           0
</event>
<event>
      5   9999  3.79277E-02  2.92249E+01 -1.00000E+00  1.53834E-01
      21    -1     0     0   502   511  0.000000000E+00  0.000000000E+00  3.130759690E+01  3.130759690E+01  0.000000000E+00  0.00000E+00  9.000E+00
      21    -1     0     0   501   502  0.000000000E+00  0.000000000E+00 -2.272623272E+03  2.272623272E+03  0.000000000E+00  0.00000E+00  9.000E+00
      25     1     1     2     0     0  2.078823146E+02  6.575630953E+01 -1.011655161E+03  1.042405925E+03  1.250000000E+02  0.00000E+00  9.000E+00
      25     1     1     2     0     0 -1.789664097E+02 -6.999509680E+01 -1.192057831E+03  1.213900803E+03  1.250000000E+02  0.00000E+00  9.000E+00
      21     1     1     2   501   511 -2.891590495E+01  4.238787265E+00 -3.760268347E+01  4.762413968E+01  1.846782373E-06  0.00000E+00  9.000E+00
#rwgt            1           1   9.5627673039078639E-002           4      154215           0
</event>
<event>
      5   9999  3.79277E-02  2.33480E+01 -1.00000E+00  1.61007E-01
      21    -1     0     0   502   501  0.000000000E+00  0.000000000E+00  7.453930412E+02  7.453930412E+02  0.000000000E+00  0.00000E+00  9.000E+00
      21    -1     0     0   501   512  0.000000000E+00  0.000000000E+00 -5.586223458E+01  5.586223458E+01  0.000000000E+00  0.00000E+00  9.000E+00
      25     1     1     2     0     0  1.711003756E+01  9.185888762E+01  5.164361295E+02  5.395017002E+02  1.250000000E+02  0.00000E+00  9.000E+00
      25     1     1     2     0     0  5.976590475E+00 -8.837492530E+01  1.809732186E+02  2.371121104E+02  1.250000000E+02  0.00000E+00  9.000E+00
      21     1     1     2   502   512 -2.308662803E+01 -3.483962326E+00 -7.878541553E+00  2.464146514E+01  4.616955931E-07  0.00000E+00  9.000E+00
#rwgt            1           1   2.1962086220524254E-002           4      154384           0
</event>
<event>
      5   9999  3.79277E-02  2.24798E+01 -1.00000E+00  1.62287E-01
      21    -1     0     0   502   511  0.000000000E+00  0.000000000E+00  3.845728062E+01  3.845728062E+01  0.000000000E+00  0.00000E+00  9.000E+00
      21    -1     0     0   501   502  0.000000000E+00  0.000000000E+00 -1.188124382E+03  1.188124382E+03  0.000000000E+00  0.00000E+00  9.000E+00
      25     1     1     2     0     0  3.032823766E+01 -4.564764309E+01 -9.893708914E+02  9.987408423E+02  1.250000000E+02  0.00000E+00  9.000E+00
      25     1     1     2     0     0 -4.167597946E+01  2.624222964E+01 -1.133128497E+02  1.757564900E+02  1.250000000E+02  0.00000E+00  9.000E+00
      21     1     1     2   501   511  1.134774180E+01  1.940541345E+01 -4.698335983E+01  5.208432985E+01  6.743495762E-07  0.00000E+00  9.000E+00
#rwgt            1           1   4.3460917891043581E-002           4      154488           0
</event>
<event>
      5   9999  3.79277E-02  9.87157E+00 -1.00000E+00  1.96408E-01
      21    -1     0     0   502   501  0.000000000E+00  0.000000000E+00  4.521736620E+02  4.521736620E+02  0.000000000E+00  0.00000E+00  9.000E+00
      21    -1     0     0   512   502  0.000000000E+00  0.000000000E+00 -5.301244709E+01  5.301244709E+01  0.000000000E+00  0.00000E+00  9.000E+00
      25     1     1     2     0     0  1.886924040E+01  7.741443444E+01  1.628902947E+02  2.202437082E+02  1.250000000E+02  0.00000E+00  9.000E+00
      25     1     1     2     0     0 -2.433451920E+01 -6.919381775E+01  2.332664878E+02  2.746237564E+02  1.250000000E+02  0.00000E+00  9.000E+00
      21     1     1     2   512   501  5.465278799E+00 -8.220616686E+00  3.004432459E+00  1.031864456E+01  1.788139343E-07  0.00000E+00  9.000E+00
#rwgt            1           1   8.3493985428815212E-002           4      154634           0
</event>
<event>
      5   9999  3.79277E-02  9.44134E+01 -1.00000E+00  1.24961E-01
      21    -1     0     0   502   511  0.000000000E+00  0.000000000E+00  1.906462212E+02  1.906462212E+02  0.000000000E+00  0.00000E+00  9.000E+00
      21    -1     0     0   501   502  0.000000000E+00  0.000000000E+00 -1.198380014E+03  1.198380014E+03  0.000000000E+00  0.00000E+00  9.000E+00
      25     1     1     2     0     0  3.195255885E+01  2.416522489E+02 -4.219796808E+02  5.030990225E+02  1.250000000E+02  0.00000E+00  9.000E+00
      25     1     1     2     0     0 -9.309053421E+01 -3.135968978E+02 -6.721791046E+02  7.579304787E+02  1.250000000E+02  0.00000E+00  9.000E+00
      21     1     1     2   501   511  6.113797536E+01  7.194464887E+01  8.642499270E+01  1.279967339E+02  2.336015456E-06  0.00000E+00  9.000E+00
#rwgt            1           1   4.2093468182788210E-002           4      154883           0
</event>
<event>
      5   9999  3.79277E-02  2.06875E+02 -1.00000E+00  1.11116E-01
      21    -1     0     0   502   501  0.000000000E+00  0.000000000E+00  1.267860663E+03  1.267860663E+03  0.000000000E+00  0.00000E+00  9.000E+00
      21    -1     0     0   512   502  0.000000000E+00  0.000000000E+00 -1.634320412E+02  1.634320412E+02  0.000000000E+00  0.00000E+00  9.000E+00
      25     1     1     2     0     0 -1.326935319E+01 -1.429390689E+02  3.057743026E+02  3.601813117E+02  1.250000000E+02  0.00000E+00  9.000E+00
      25     1     1     2     0     0 -1.037558577E+02 -2.765464451E+01  8.434881577E+02  8.594343079E+02  1.250000000E+02  0.00000E+00  9.000E+00
      21     1     1     2   512   501  1.170252109E+02  1.705937134E+02 -4.483383862E+01  2.116770846E+02  6.050385256E-06  0.00000E+00  9.000E+00
#rwgt            1           1   4.4927990699803438E-002           4      155039           0
</event>
<event>
      5   9999  3.79277E-02  2.97773E+02 -1.00000E+00  1.05697E-01
      21    -1     0     0   502   501  0.000000000E+00  0.000000000E+00  1.393336911E+02  1.393336911E+02  0.000000000E+00  0.00000E+00  9.000E+00
      21    -1     0     0   501   511  0.000000000E+00  0.000000000E+00 -9.324912663E+02  9.324912663E+02  0.000000000E+00  0.00000E+00  9.000E+00
      25     1     1     2     0     0  2.060597684E+02  3.036005343E+01 -2.553168497E+02  3.524117687E+02  1.250000000E+02  0.00000E+00  9.000E+00
      25     1     1     2     0     0  8.808800389E+01  1.596402621E+01 -8.016469555E+01  1.733947086E+02  1.250000000E+02  0.00000E+00  9.000E+00
      21     1     1     2   502   511 -2.941477723E+02 -4.632407964E+01 -4.576760298E+02  5.460184801E+02  9.344061824E-06  0.00000E+00  9.000E+00
#rwgt            1           1   2.5317670811233553E-002           4      155086           0
</event>
<event>
      5   9999 -3.79277E-02  2.82223E+01 -1.00000E+00  1.54906E-01
      21    -1     0     0   502   501  0.000000000E+00  0.000000000E+00  5.222416293E+02  5.222416293E+02  0.000000000E+00  0.00000E+00  9.000E+00
      21    -1     0     0   512   502  0.000000000E+00  0.000000000E+00 -1.463566421E+02  1.463566421E+02  0.000000000E+00  0.00000E+00  9.000E+00
      25     1     1     2     0     0  1.420601795E+02 -2.139205512E+01  2.619840159E+02  3.238816747E+02  1.250000000E+02  0.00000E+00  9.000E+00
      25     1     1     2     0     0 -1.663767187E+02  3.571697816E+01  1.770477516E+02  2.755500343E+02  1.250000000E+02  0.00000E+00  9.000E+00
      21     1     1     2   512   501  2.431653920E+01 -1.432492304E+01 -6.314678026E+01  6.916656241E+01  6.743495762E-07  0.00000E+00  9.000E+00
#rwgt            1           1  -2.5277907706625760E-002           4      155156           0
</event>
<event>
      5   9999  3.79277E-02  4.44380E+01 -1.00000E+00  1.42062E-01
      21    -1     0     0   511   501  0.000000000E+00  0.000000000E+00  5.664189421E+02  5.664189421E+02  0.000000000E+00  0.00000E+00  9.000E+00
      21    -1     0     0   501   502  0.000000000E+00  0.000000000E+00 -8.984315549E+01  8.984315549E+01  0.000000000E+00  0.00000E+00  9.000E+00
      25     1     1     2     0     0 -1.154755564E+02 -6.115599720E+01  2.237370720E+02  2.876767935E+02  1.250000000E+02  0.00000E+00  9.000E+00
      25     1     1     2     0     0  1.565932289E+02  7.801039477E+01  1.681980542E+02  2.729883633E+02  1.250000000E+02  0.00000E+00  9.000E+00
      21     1     1     2   511   502 -4.111767249E+01 -1.685439757E+01  8.464066042E+01  9.559694088E+01  9.536743164E-07  0.00000E+00  9.000E+00
#rwgt            1           1   4.3595525125908037E-002           4      155273           0
</event>
<event>
      5   9999  3.79277E-02  2.85114E+01 -1.00000E+00  1.54591E-01
      21    -1     0     0   502   512  0.000000000E+00  0.000000000E+00  7.599890969E+01  7.599890969E+01  0.000000000E+00  0.00000E+00  9.000E+00
      21    -1     0     0   501   502  0.000000000E+00  0.000000000E+00 -8.049572668E+02  8.049572668E+02  0.000000000E+00  0.00000E+00  9.000E+00
      25     1     1     2     0     0  1.348128955E+02  9.062723780E+01 -3.508988414E+02  4.063776690E+02  1.250000000E+02  0.00000E+00  9.000E+00
      25     1     1     2     0     0 -1.189343545E+02 -6.694657759E+01 -3.985787118E+02  4.394510376E+02  1.250000000E+02  0.00000E+00  9.000E+00
      21     1     1     2   501   512 -1.587854097E+01 -2.368066021E+01  2.051919608E+01  3.512746986E+01  1.118282261E-06  0.00000E+00  9.000E+00
#rwgt            2          11   8.2782815235905014E-004           4      155436           0
</event>
<event>
      5   9999  3.79277E-02  1.47153E+01 -1.00000E+00  1.78171E-01
      21    -1     0     0   502   501  0.000000000E+00  0.000000000E+00  1.194323646E+02  1.194323646E+02  0.000000000E+00  0.00000E+00  9.000E+00
      -2    -1     0     0     0   502  0.000000000E+00  0.000000000E+00 -9.363410411E+02  9.363410411E+02  0.000000000E+00  0.00000E+00  9.000E+00
      25     1     1     2     0     0  3.805169864E+01 -5.340633246E+01  4.842343555E+01  1.492313547E+02  1.250000000E+02  0.00000E+00  9.000E+00
      25     1     1     2     0     0 -2.350946496E+01  5.565628884E+01 -2.142929821E+02  2.553366398E+02  1.250000000E+02  0.00000E+00  9.000E+00
      -2     1     1     2     0   501 -1.454223368E+01 -2.249956376E+00 -6.510391299E+02  6.512054112E+02  1.078959322E-05  0.00000E+00  9.000E+00
#rwgt            1           1   4.2165300711861649E-002           4      155456           0
</event>
<event>
      5   9999 -3.79277E-02  2.39401E+01 -1.00000E+00  1.60173E-01
      21    -1     0     0   511   501  0.000000000E+00  0.000000000E+00  8.677305956E+01  8.677305956E+01  0.000000000E+00  0.00000E+00  9.000E+00
      21    -1     0     0   501   502  0.000000000E+00  0.000000000E+00 -6.575109964E+02  6.575109964E+02  0.000000000E+00  0.00000E+00  9.000E+00
      25     1     1     2     0     0  9.250325226E+01  8.117261667E+01 -5.120273428E+02  5.412419470E+02  1.250000000E+02  0.00000E+00  9.000E+00
      25     1     1     2     0     0 -6.977850015E+01 -8.870355476E+01 -4.118894119E+01  1.733749941E+02  1.250000000E+02  0.00000E+00  9.000E+00
      21     1     1     2   511   502 -2.272475211E+01  7.530938082E+00 -1.752165288E+01  2.966711489E+01  2.384185791E-07  0.00000E+00  9.000E+00
#rwgt            1           1  -3.3589072756667511E-002           4      155710           0
</event>
<event>
      5   9999  3.79277E-02  2.44931E+01 -1.00000E+00  1.59420E-01
      21    -1     0     0   502   512  0.000000000E+00  0.000000000E+00  6.537311107E+02  6.537311107E+02  0.000000000E+00  0.00000E+00  9.000E+00
      21    -1     0     0   501   502  0.000000000E+00  0.000000000E+00 -6.745839546E+01  6.745839546E+01  0.000000000E+00  0.00000E+00  9.000E+00
      25     1     1     2     0     0 -1.322945905E+02  7.445167694E+01  1.816853235E+02  2.677302143E+02  1.250000000E+02  0.00000E+00  9.000E+00
      25     1     1     2     0     0  1.082637369E+02 -6.971575171E+01  3.414777133E+02  3.857633360E+02  1.250000000E+02  0.00000E+00  9.000E+00
      21     1     1     2   501   512  2.403085367E+01 -4.735925231E+00  6.310967851E+01  6.769595584E+01  9.536743164E-07  0.00000E+00  9.000E+00
#rwgt            1           1   4.3973211098188462E-002           4      155996           0
</event>
<event>
      5   9999  3.79277E-02  1.61810E+01 -1.00000E+00  1.74338E-01
      21    -1     0     0   502   511  0.000000000E+00  0.000000000E+00  5.030944077E+02  5.030944077E+02  0.000000000E+00  0.00000E+00  9.000E+00
      21    -1     0     0   501   502  0.000000000E+00  0.000000000E+00 -1.693952478E+02  1.693952478E+02  0.000000000E+00  0.00000E+00  9.000E+00
      25     1     1     2     0     0  2.157124687E+02 -3.358859271E+01  1.573103760E+02  2.967012253E+02  1.250000000E+02  0.00000E+00  9.000E+00
      25     1     1     2     0     0 -2.189129259E+02  1.772724895E+01  6.192439436E+01  2.601860010E+02  1.250000000E+02  0.00000E+00  9.000E+00
      21     1     1     2   501   511  3.200457201E+00  1.586134376E+01  1.144643896E+02  1.156024292E+02  0.000000000E+00  0.00000E+00  9.000E+00
#rwgt            1           1   3.1609315150804361E-002           4      156130           0
</event>
<event>
      5   9999  3.79277E-02  1.81365E+01 -1.00000E+00  1.69952E-01
      21    -1     0     0   502   512  0.000000000E+00  0.000000000E+00  8.786137116E+02  8.786137116E+02  0.000000000E+00  0.00000E+00  9.000E+00
      21    -1     0     0   501   502  0.000000000E+00  0.000000000E+00 -1.165526941E+02  1.165526941E+02  0.000000000E+00  0.00000E+00  9.000E+00
      25     1     1     2     0     0  2.476283862E+02  1.122253884E+01  5.918526632E+02  6.537280306E+02  1.250000000E+02  0.00000E+00  9.000E+00
      25     1     1     2     0     0 -2.420625415E+02 -2.848391867E+01  1.437080151E+02  3.093260436E+02  1.250000000E+02  0.00000E+00  9.000E+00
      21     1     1     2   501   512 -5.565844687E+00  1.726137983E+01  2.650033919E+01  3.211233155E+01  4.768371582E-07  0.00000E+00  9.000E+00
#rwgt            1           1   4.1041638402592388E-002           4      156328           0
</event>
<event>
      5   9999  3.79277E-02  2.25635E+02 -1.00000E+00  1.09774E-01
      21    -1     0     0   502   501  0.000000000E+00  0.000000000E+00  1.444416238E+03  1.444416238E+03  0.000000000E+00  0.00000E+00  9.000E+00
      -3    -1     0     0     0   502  0.000000000E+00  0.000000000E+00 -3.358044617E+02  3.358044617E+02  0.000000000E+00  0.00000E+00  9.000E+00
      25     1     1     2     0     0  3.098302627E+02 -1.141152155E+02  2.817731842E+02  4.517058793E+02  1.250000000E+02  0.00000E+00  9.000E+00
      25     1     1     2     0     0 -1.421399266E+02  2.650820167E+02  9.950971231E+02  1.047050867E+03  1.250000000E+02  0.00000E+00  9.000E+00
      -3     1     1     2     0   501 -1.676903361E+02 -1.509668012E+02 -1.682585307E+02  2.814639534E+02  2.697398305E-06  0.00000E+00  9.000E+00
#rwgt            1           1   3.8955154089091573E-002           4      156514           0
</event>
<event>
      5   9999  3.79277E-02  1.07419E+02 -1.00000E+00  1.22446E-01
      21    -1     0     0   502   501  0.000000000E+00  0.000000000E+00  4.155580990E+02  4.155580990E+02  0.000000000E+00  0.00000E+00  9.000E+00
      21    -1     0     0   511   502  0.000000000E+00  0.000000000E+00 -2.266550625E+02  2.266550625E+02  0.000000000E+00  0.00000E+00  9.000E+00
      25     1     1     2     0     0  2.946992680E+01 -5.531526010E+01 -1.199951503E+02  1.842609310E+02  1.250000000E+02  0.00000E+00  9.000E+00
      25     1     1     2     0     0 -9.016644529E+01 -3.331216640E+01  3.129767536E+02  3.504556129E+02  1.250000000E+02  0.00000E+00  9.000E+00
      21     1     1     2   511   501  6.069651849E+01  8.862742649E+01 -4.078566823E+00  1.074966176E+02  2.293811012E-06  0.00000E+00  9.000E+00
#rwgt            1           1   3.4331311846459739E-002           4      156600           0
</event>
<event>
      5   9999  3.79277E-02  7.03127E+00 -1.00000E+00  2.15280E-01
      21    -1     0     0   502   512  0.000000000E+00  0.000000000E+00  8.686048367E+02  8.686048367E+02  0.000000000E+00  0.00000E+00  9.000E+00
      21    -1     0     0   501   502  0.000000000E+00  0.000000000E+00 -4.135944699E+01  4.135944699E+01  0.000000000E+00  0.00000E+00  9.000E+00
      25     1     1     2     0     0 -9.353002063E+00 -1.046349098E+02  5.699218883E+02  5.928506573E+02  1.250000000E+02  0.00000E+00  9.000E+00
      25     1     1     2     0     0  1.564506835E+01  1.077731775E+02  2.018914255E+02  2.612373894E+02  1.250000000E+02  0.00000E+00  9.000E+00
      21     1     1     2   501   512 -6.292066287E+00 -3.138267734E+00  5.543207594E+01  5.587623703E+01  6.743495762E-07  0.00000E+00  9.000E+00
#rwgt            1           1   3.1683064771086351E-002           4      156768           0
</event>
<event>
      5   9999  3.79277E-02  5.88330E+01 -1.00000E+00  1.35161E-01
      21    -1     0     0   502   501  0.000000000E+00  0.000000000E+00  8.810333992E+01  8.810333992E+01  0.000000000E+00  0.00000E+00  9.000E+00
      21    -1     0     0   511   502  0.000000000E+00  0.000000000E+00 -1.361354106E+03  1.361354106E+03  0.000000000E+00  0.00000E+00  9.000E+00
      25     1     1     2     0     0  4.471742995E+01  6.124939352E+01 -6.978844870E+02  7.130349878E+02  1.250000000E+02  0.00000E+00  9.000E+00
      25     1     1     2     0     0 -7.884564914E+01 -1.091720799E+02 -2.794925202E+01  1.858530067E+02  1.250000000E+02  0.00000E+00  9.000E+00
      21     1     1     2   511   501  3.412821918E+01  4.792268639E+01 -5.474170270E+02  5.505694513E+02  7.629394531E-06  0.00000E+00  9.000E+00
#rwgt            1           1   3.8953025321986218E-002           4      157036           0
</event>
<event>
      5   9999  3.79277E-02  3.76222E+01 -1.00000E+00  1.46510E-01
      21    -1     0     0   502   512  0.000000000E+00  0.000000000E+00  2.015437157E+02  2.015437157E+02  0.000000000E+00  0.00000E+00  9.000E+00
      21    -1     0     0   501   502  0.000000000E+00  0.000000000E+00 -7.664778737E+02  7.664778737E+02  0.000000000E+00  0.00000E+00  9.000E+00
      25     1     1     2     0     0 -1.739260818E+02  7.606647893E+01 -6.532612787E+02  6.916731088E+02  1.250000000E+02  0.00000E+00  9.000E+00
      25     1     1     2     0     0  1.522921804E+02 -1.068464219E+02  7.291588922E+01  2.356921572E+02  1.250000000E+02  0.00000E+00  9.000E+00
      21     1     1     2   501   512  2.163390139E+01  3.077994292E+01  1.541123145E+01  4.065632338E+01  5.057621821E-07  0.00000E+00  9.000E+00
#rwgt            1           1   3.1740888694640909E-002           4      157166           0
</event>
<event>
      5   9999  3.79277E-02  1.03279E+02 -1.00000E+00  1.23201E-01
      21    -1     0     0   511   501  0.000000000E+00  0.000000000E+00  3.993856251E+02  3.993856251E+02  0.000000000E+00  0.00000E+00  9.000E+00
      21    -1     0     0   501   502  0.000000000E+00  0.000000000E+00 -2.491957760E+02  2.491957760E+02  0.000000000E+00  0.00000E+00  9.000E+00
      25     1     1     2     0     0 -2.506515694E+01 -1.134382810E+02 -1.494901872E+02  2.268674101E+02  1.250000000E+02  0.00000E+00  9.000E+00
      25     1     1     2     0     0  1.152052240E+02  6.302624625E+01  2.451985037E+02  3.049456634E+02  1.250000000E+02  0.00000E+00  9.000E+00
      21     1     1     2   511   502 -9.014006710E+01  5.041203474E+01  5.448153259E+01  1.167683276E+02  1.507891493E-06  0.00000E+00  9.000E+00
#rwgt            1           1   3.5418224643892271E-002           4      157308           0
</event>
<event>
      5   9999  3.79277E-02  2.09475E+01 -1.00000E+00  1.64727E-01
      21    -1     0     0   502   512  0.000000000E+00  0.000000000E+00  1.754517010E+02  1.754517010E+02  0.000000000E+00  0.00000E+00  9.000E+00
      21    -1     0     0   501   502  0.000000000E+00  0.000000000E+00 -2.439053831E+02  2.439053831E+02  0.000000000E+00  0.00000E+00  9.000E+00
      25     1     1     2     0     0  1.065989729E+02  9.206361048E+01 -1.639013186E+01  1.890309124E+02  1.250000000E+02  0.00000E+00  9.000E+00
      25     1     1     2     0     0 -1.016863146E+02 -1.124269095E+02 -6.346486913E+01  2.064768902E+02  1.250000000E+02  0.00000E+00  9.000E+00
      21     1     1     2   501   512 -4.912658344E+00  2.036329905E+01  1.140131882E+01  2.384928157E+01  2.384185791E-07  0.00000E+00  9.000E+00
#rwgt            1           1   3.2071273492009646E-002           4      157362           0
</event>
<event>
      5   9999  3.79277E-02  6.83994E+01 -1.00000E+00  1.31731E-01
      21    -1     0     0   511   501  0.000000000E+00  0.000000000E+00  1.078467878E+02  1.078467878E+02  0.000000000E+00  0.00000E+00  9.000E+00
      21    -1     0     0   501   502  0.000000000E+00  0.000000000E+00 -3.802293400E+02  3.802293400E+02  0.000000000E+00  0.00000E+00  9.000E+00
      25     1     1     2     0     0 -1.755126239E+01  1.354828550E+02 -1.233729689E+02  2.225073938E+02  1.250000000E+02  0.00000E+00  9.000E+00
      25     1     1     2     0     0 -8.998675756E+00 -7.244652575E+01 -1.300364916E+02  1.945866501E+02  1.250000000E+02  0.00000E+00  9.000E+00
      21     1     1     2   511   502  2.654993815E+01 -6.303632928E+01 -1.897309170E+01  7.098208389E+01  1.390207266E-06  0.00000E+00  9.000E+00
#rwgt            1           1   3.2661908782511878E-002           4      157475           0
</event>
<event>
      5   9999  3.79277E-02  8.01677E+01 -1.00000E+00  1.28305E-01
      -3    -1     0     0     0   501  0.000000000E+00  0.000000000E+00  4.568267030E+02  4.568267030E+02  0.000000000E+00  0.00000E+00  9.000E+00
      21    -1     0     0   501   502  0.000000000E+00  0.000000000E+00 -2.252884150E+02  2.252884150E+02  0.000000000E+00  0.00000E+00  9.000E+00
      25     1     1     2     0     0  4.615336463E+01 -4.036209963E+01  1.433514519E+02  1.998346089E+02  1.250000000E+02  0.00000E+00  9.000E+00
      25     1     1     2     0     0  1.700945619E+01  8.973138344E+01 -1.593008676E+02  2.221324136E+02  1.250000000E+02  0.00000E+00  9.000E+00
      -3     1     1     2     0   502 -6.316282082E+01 -4.936928380E+01  2.474877037E+02  2.601480955E+02  3.814697266E-06  0.00000E+00  9.000E+00
#rwgt            1           1   2.5212509919918424E-002           4      157654           0
</event>
<event>
      5   9999  3.79277E-02  2.46257E+01 -1.00000E+00  1.59243E-01
      21    -1     0     0   502   501  0.000000000E+00  0.000000000E+00  2.494452664E+02  2.494452664E+02  0.000000000E+00  0.00000E+00  9.000E+00
      21    -1     0     0   511   502  0.000000000E+00  0.000000000E+00 -1.126862992E+03  1.126862992E+03  0.000000000E+00  0.00000E+00  9.000E+00
      25     1     1     2     0     0  1.473127785E+02 -7.816440698E+01 -9.092503155E+01  2.273831361E+02  1.250000000E+02  0.00000E+00  9.000E+00
      25     1     1     2     0     0 -1.415250886E+02  5.422846849E+01  1.277571448E+02  2.343436911E+02  1.250000000E+02  0.00000E+00  9.000E+00
      21     1     1     2   511   501 -5.787689898E+00  2.393593849E+01 -9.142498385E+02  9.145814308E+02  1.078959322E-05  0.00000E+00  9.000E+00
#rwgt            1           1   4.3955611333700358E-002           4      157713           0
</event>
<event>
      5   9999  3.79277E-02  1.79830E+02 -1.00000E+00  1.13355E-01
       2    -1     0     0   502     0  0.000000000E+00  0.000000000E+00  1.603925489E+03  1.603925489E+03  0.000000000E+00  0.00000E+00  9.000E+00
      21    -1     0     0   501   502  0.000000000E+00  0.000000000E+00 -8.215521582E+01  8.215521582E+01  0.000000000E+00  0.00000E+00  9.000E+00
      25     1     1     2     0     0 -7.929564144E+00 -3.644858873E+01  1.698871750E+01  1.315484478E+02  1.250000000E+02  0.00000E+00  9.000E+00
      25     1     1     2     0     0  1.233465505E+02 -1.014566465E+02  6.445563430E+02  6.757112564E+02  1.250000000E+02  0.00000E+00  9.000E+00
       2     1     1     2   501     0 -1.154169863E+02  1.379052352E+02  8.602252128E+02  8.788210007E+02  1.078959322E-05  0.00000E+00  9.000E+00
#rwgt            1           1   3.5860749344965772E-003           4      157850           0
</event>
<event>
      5   9999  3.79277E-02  2.00884E+02 -1.00000E+00  1.11578E-01
      21    -1     0     0   502   501  0.000000000E+00  0.000000000E+00  1.125717980E+03  1.125717980E+03  0.000000000E+00  0.00000E+00  9.000E+00
      21    -1     0     0   511   502  0.000000000E+00  0.000000000E+00 -2.010293407E+02  2.010293407E+02  0.000000000E+00  0.00000E+00  9.000E+00
      25     1     1     2     0     0 -1.275943292E+02  2.707377432E+02  3.257071516E+02  4.596622532E+02  1.250000000E+02  0.00000E+00  9.000E+00
      25     1     1     2     0     0  3.064832557E+02 -1.793414418E+02  5.389744540E+02  6.574296927E+02  1.250000000E+02  0.00000E+00  9.000E+00
      21     1     1     2   511   501 -1.788889265E+02 -9.139630141E+01  6.000703326E+01  2.096553743E+02  3.814697266E-06  0.00000E+00  9.000E+00
#rwgt            1           1  0.38706642753571013                4      157915           0
</event>
<event>
      5   9999  3.79277E-02  1.52404E+02 -1.00000E+00  1.16121E-01
      21    -1     0     0   502   501  0.000000000E+00  0.000000000E+00  3.009957643E+02  3.009957643E+02  0.000000000E+00  0.00000E+00  9.000E+00
      21    -1     0     0   501   512  0.000000000E+00  0.000000000E+00 -4.977583454E+02  4.977583454E+02  0.000000000E+00  0.00000E+00  9.000E+00
      25     1     1     2     0     0 -7.777307032E+01  1.437114466E+02 -1.968249398E+01  2.066737306E+02  1.250000000E+02  0.00000E+00  9.000E+00
      25     1     1     2     0     0 -6.107787690E+01 -2.065404407E+02  1.059477003E+02  2.706277442E+02  1.250000000E+02  0.00000E+00  9.000E+00
      21     1     1     2   502   512  1.388509472E+02  6.282899413E+01 -2.830277874E+02  3.214526349E+02  0.000000000E+00  0.00000E+00  9.000E+00
#rwgt            1           1   4.4423151141629286E-002           4      157987           0
</event>
<event>
      5   9999  3.79277E-02  4.76224E+01 -1.00000E+00  1.40294E-01
       3    -1     0     0   502     0  0.000000000E+00  0.000000000E+00  1.908766527E+03  1.908766527E+03  0.000000000E+00  0.00000E+00  9.000E+00
      21    -1     0     0   501   502  0.000000000E+00  0.000000000E+00 -8.081114210E+01  8.081114210E+01  0.000000000E+00  0.00000E+00  9.000E+00
      25     1     1     2     0     0 -2.115965310E+02 -3.188621393E+00  5.898376129E+02  6.389966110E+02  1.250000000E+02  0.00000E+00  9.000E+00
      25     1     1     2     0     0  2.371632546E+02 -3.698895816E+01  2.734083333E+02  3.846969055E+02  1.250000000E+02  0.00000E+00  9.000E+00
       3     1     1     2   501     0 -2.556672358E+01  4.017757955E+01  9.647094387E+02  9.658841526E+02  1.078959322E-05  0.00000E+00  9.000E+00
#rwgt            1           1   4.2254644750860861E-002           4      158122           0
</event>
<event>
      5   9999  3.79277E-02  3.86650E+01 -1.00000E+00  1.45760E-01
      21    -1     0     0   502   501  0.000000000E+00  0.000000000E+00  1.310622402E+02  1.310622402E+02  0.000000000E+00  0.00000E+00  9.000E+00
       2    -1     0     0   501     0  0.000000000E+00  0.000000000E+00 -1.212405508E+03  1.212405508E+03  0.000000000E+00  0.00000E+00  9.000E+00
      25     1     1     2     0     0 -3.721003345E+01  1.573420909E+02 -2.605819151E+02  3.311631843E+02  1.250000000E+02  0.00000E+00  9.000E+00
      25     1     1     2     0     0  7.127584723E+01 -1.756316072E+02 -3.995169970E+01  2.305381664E+02  1.250000000E+02  0.00000E+00  9.000E+00
       2     1     1     2   502     0 -3.406581379E+01  1.828951631E+01 -7.808096534E+02  7.817663979E+02  1.078959322E-05  0.00000E+00  9.000E+00
#rwgt            1           1   3.9877626596203912E-002           4      158232           0
</event>
<event>
      5   9999  3.79277E-02  8.46546E+01 -1.00000E+00  1.27172E-01
      21    -1     0     0   502   501  0.000000000E+00  0.000000000E+00  1.442176539E+03  1.442176539E+03  0.000000000E+00  0.00000E+00  9.000E+00
      21    -1     0     0   501   511  0.000000000E+00  0.000000000E+00 -1.292523804E+02  1.292523804E+02  0.000000000E+00  0.00000E+00  9.000E+00
      25     1     1     2     0     0  5.298123247E+01 -1.440142022E+02  5.402971060E+02  5.754068684E+02  1.250000000E+02  0.00000E+00  9.000E+00
      25     1     1     2     0     0  3.052955434E+01  1.578829254E+02  8.543886682E+02  8.783302728E+02  1.250000000E+02  0.00000E+00  9.000E+00
      21     1     1     2   502   511 -8.351078680E+01 -1.386872321E+01 -8.176161531E+01  1.176917785E+02  2.336015456E-06  0.00000E+00  9.000E+00
#rwgt            1           1   5.1554102476544281E-002           4      158355           0
</event>
<event>
      5   9999  3.79277E-02  1.30102E+01 -1.00000E+00  1.83411E-01
      21    -1     0     0   502   512  0.000000000E+00  0.000000000E+00  6.935568015E+02  6.935568015E+02  0.000000000E+00  0.00000E+00  9.000E+00
      21    -1     0     0   501   502  0.000000000E+00  0.000000000E+00 -8.708966474E+01  8.708966474E+01  0.000000000E+00  0.00000E+00  9.000E+00
      25     1     1     2     0     0  7.917727294E+01  1.831061098E+02  2.458159772E+02  3.403636036E+02  1.250000000E+02  0.00000E+00  9.000E+00
      25     1     1     2     0     0 -8.092012062E+01 -1.702131360E+02  2.865243914E+02  3.650230191E+02  1.250000000E+02  0.00000E+00  9.000E+00
      21     1     1     2   501   512  1.742847678E+00 -1.289297379E+01  7.412676827E+01  7.525984364E+01  0.000000000E+00  0.00000E+00  9.000E+00
#rwgt            1           1   3.3954687767869890E-002           4      158408           0
</event>
<event>
      5   9999  3.79277E-02  1.13712E+02 -1.00000E+00  1.21369E-01
      21    -1     0     0   502   501  0.000000000E+00  0.000000000E+00  2.390200606E+02  2.390200606E+02  0.000000000E+00  0.00000E+00  9.000E+00
      21    -1     0     0   511   502  0.000000000E+00  0.000000000E+00 -5.903315754E+02  5.903315754E+02  0.000000000E+00  0.00000E+00  9.000E+00
      25     1     1     2     0     0  1.637177010E+02  3.597713742E+01  8.974269914E+01  2.275447035E+02  1.250000000E+02  0.00000E+00  9.000E+00
      25     1     1     2     0     0 -2.648103506E+02  1.608772417E+01 -2.870708976E+02  4.103876667E+02  1.250000000E+02  0.00000E+00  9.000E+00
      21     1     1     2   511   501  1.010926497E+02 -5.206486159E+01 -1.539833164E+02  1.914192659E+02  1.907348633E-06  0.00000E+00  9.000E+00
#rwgt            1           1   2.7418735315234453E-002           4      158663           0
</event>
<event>
      5   9999  3.79277E-02  3.45072E+01 -1.00000E+00  1.48934E-01
      -1    -1     0     0     0   501  0.000000000E+00  0.000000000E+00  1.680275289E+03  1.680275289E+03  0.000000000E+00  0.00000E+00  9.000E+00
      21    -1     0     0   501   502  0.000000000E+00  0.000000000E+00 -1.483869705E+02  1.483869705E+02  0.000000000E+00  0.00000E+00  9.000E+00
      25     1     1     2     0     0  3.494981416E+01 -4.433233159E+01 -7.652640199E+01  1.570609287E+02  1.250000000E+02  0.00000E+00  9.000E+00
      25     1     1     2     0     0 -6.809041689E+01  3.471721578E+01  1.395725015E+02  2.023538315E+02  1.250000000E+02  0.00000E+00  9.000E+00
      -1     1     1     2     0   502  3.314060273E+01  9.615115812E+00  1.468842219E+03  1.469247499E+03  3.737624730E-05  0.00000E+00  9.000E+00
#rwgt            1           1   4.6165171959301296E-002           4      158728           0
</event>
<event>
      5   9999  3.79277E-02  3.38478E+01 -1.00000E+00  1.49487E-01
      21    -1     0     0   502   501  0.000000000E+00  0.000000000E+00  5.486501164E+02  5.486501164E+02  0.000000000E+00  0.00000E+00  9.000E+00
      21    -1     0     0   511   502  0.000000000E+00  0.000000000E+00 -7.937395410E+01  7.937395410E+01  0.000000000E+00  0.00000E+00  9.000E+00
      25     1     1     2     0     0 -9.295838258E+01 -7.326788922E+01  2.771108166E+02  3.262282164E+02  1.250000000E+02  0.00000E+00  9.000E+00
      25     1     1     2     0     0  1.244475173E+02  6.085378247E+01  1.923034704E+02  2.679477414E+02  1.250000000E+02  0.00000E+00  9.000E+00
      21     1     1     2   511   501 -3.148913473E+01  1.241410675E+01 -1.381247398E-01  3.384811267E+01  3.689354182E-07  0.00000E+00  9.000E+00
#rwgt            1           1   3.4333836844388767E-002           4      158862           0
</event>
<event>
      5   9999  3.79277E-02  1.43797E+01 -1.00000E+00  1.79129E-01
      21    -1     0     0   512   501  0.000000000E+00  0.000000000E+00  4.515219088E+02  4.515219088E+02  0.000000000E+00  0.00000E+00  9.000E+00
      21    -1     0     0   501   502  0.000000000E+00  0.000000000E+00 -1.844569738E+02  1.844569738E+02  0.000000000E+00  0.00000E+00  9.000E+00
      25     1     1     2     0     0 -3.382953954E+01 -2.269125207E+02  9.704749699E+00  2.614438983E+02  1.250000000E+02  0.00000E+00  9.000E+00
      25     1     1     2     0     0  1.984421824E+01  2.235677998E+02  2.496132242E+02  3.582012225E+02  1.250000000E+02  0.00000E+00  9.000E+00
      21     1     1     2   512   502  1.398532130E+01  3.344720929E+00  7.746961092E+00  1.633376185E+01  3.039252468E-07  0.00000E+00  9.000E+00
#rwgt            1           1   3.2751235677338446E-002           4      158958           0
</event>
<event>
      5   9999  3.79277E-02  3.55537E+01 -1.00000E+00  1.48087E-01
      21    -1     0     0   511   501  0.000000000E+00  0.000000000E+00  9.122126526E+01  9.122126526E+01  0.000000000E+00  0.00000E+00  9.000E+00
      21    -1     0     0   501   502  0.000000000E+00  0.000000000E+00 -1.244238875E+03  1.244238875E+03  0.000000000E+00  0.00000E+00  9.000E+00
      25     1     1     2     0     0 -9.706953810E+01  2.013307113E+02 -2.378868701E+02  3.495307047E+02  1.250000000E+02  0.00000E+00  9.000E+00
      25     1     1     2     0     0  7.096595263E+01 -1.771922389E+02 -9.219194002E+02  9.497334555E+02  1.250000000E+02  0.00000E+00  9.000E+00
      21     1     1     2   511   502  2.610358547E+01 -2.413847241E+01  6.788661012E+00  3.619597965E+01  7.396741894E-07  0.00000E+00  9.000E+00
#rwgt            1           1   4.0181142400315763E-002           4      159243           0
</event>
<event>
      5   9999  3.79277E-02  3.86987E+01 -1.00000E+00  1.45737E-01
      21    -1     0     0   502   501  0.000000000E+00  0.000000000E+00  1.751281541E+03  1.751281541E+03  0.000000000E+00  0.00000E+00  9.000E+00
       1    -1     0     0   501     0  0.000000000E+00  0.000000000E+00 -6.472625508E+02  6.472625508E+02  0.000000000E+00  0.00000E+00  9.000E+00
      25     1     1     2     0     0 -8.601782144E+01 -1.399637214E+02  1.439049512E+03  1.453780385E+03  1.250000000E+02  0.00000E+00  9.000E+00
      25     1     1     2     0     0  5.214913499E+01  1.212421406E+02  2.771039074E+02  3.314072486E+02  1.250000000E+02  0.00000E+00  9.000E+00
       1     1     1     2   502     0  3.386868645E+01  1.872158087E+01 -6.121344293E+02  6.133564584E+02  7.629394531E-06  0.00000E+00  9.000E+00
#rwgt            1           1   4.2739707840215149E-002           4      159374           0
</event>
<event>
      5   9999  3.79277E-02  2.13494E+01 -1.00000E+00  1.64063E-01
      21    -1     0     0   502   501  0.000000000E+00  0.000000000E+00  2.469771655E+03  2.469771655E+03  0.000000000E+00  0.00000E+00  9.000E+00
      21    -1     0     0   501   511  0.000000000E+00  0.000000000E+00 -3.065976481E+01  3.065976481E+01  0.000000000E+00  0.00000E+00  9.000E+00
      25     1     1     2     0     0  1.043742601E+02 -2.080023637E+02  1.092981133E+03  1.124451745E+03  1.250000000E+02  0.00000E+00  9.000E+00
      25     1     1     2     0     0 -1.219779171E+02  1.959230935E+02  1.273999403E+03  1.300755146E+03  1.250000000E+02  0.00000E+00  9.000E+00
      21     1     1     2   502   511  1.760365697E+01  1.207927021E+01  7.213135499E+01  7.522452978E+01  9.536743164E-07  0.00000E+00  9.000E+00
#rwgt            1           1  0.10072098057749249                4      159572           0
</event>
<event>
      5   9999  3.79277E-02  3.61500E+01 -1.00000E+00  1.47620E-01
      21    -1     0     0   502   501  0.000000000E+00  0.000000000E+00  2.586419330E+03  2.586419330E+03  0.000000000E+00  0.00000E+00  9.000E+00
      21    -1     0     0   512   502  0.000000000E+00  0.000000000E+00 -2.273464962E+01  2.273464962E+01  0.000000000E+00  0.00000E+00  9.000E+00
      25     1     1     2     0     0  3.146865923E+01  4.722309753E+01  2.151878108E+03  2.156252464E+03  1.250000000E+02  0.00000E+00  9.000E+00
      25     1     1     2     0     0 -1.873488080E+01 -8.105606647E+01  3.564694052E+02  3.868029453E+02  1.250000000E+02  0.00000E+00  9.000E+00
      21     1     1     2   512   501 -1.273377843E+01  3.383296893E+01  5.533716706E+01  6.609857002E+01  1.784161275E-06  0.00000E+00  9.000E+00
#rwgt            1           1   4.9259956812093331E-002           4      159746           0
</event>
<event>
      5   9999  3.79277E-02  5.26738E+01 -1.00000E+00  1.37797E-01
      21    -1     0     0   502   501  0.000000000E+00  0.000000000E+00  1.272024790E+03  1.272024790E+03  0.000000000E+00  0.00000E+00  9.000E+00
      21    -1     0     0   511   502  0.000000000E+00  0.000000000E+00 -5.884449692E+01  5.884449692E+01  0.000000000E+00  0.00000E+00  9.000E+00
      25     1     1     2     0     0  1.074404553E+02  4.538759216E+01  3.231366697E+02  3.655759733E+02  1.250000000E+02  0.00000E+00  9.000E+00
      25     1     1     2     0     0 -8.615029064E+01 -9.356700361E+01  8.948074709E+02  9.124045522E+02  1.250000000E+02  0.00000E+00  9.000E+00
      21     1     1     2   511   501 -2.129016470E+01  4.817941145E+01 -4.763847930E+00  5.288876107E+01  7.152557373E-07  0.00000E+00  9.000E+00
#rwgt            1           1   4.3886829878907824E-002           4      159929           0
</event>
<event>
      5   9999  3.79277E-02  3.92891E+01 -1.00000E+00  1.45325E-01
      21    -1     0     0   502   512  0.000000000E+00  0.000000000E+00  4.224734212E+02  4.224734212E+02  0.000000000E+00  0.00000E+00  9.000E+00
      21    -1     0     0   501   502  0.000000000E+00  0.000000000E+00 -1.912716764E+02  1.912716764E+02  0.000000000E+00  0.00000E+00  9.000E+00
      25     1     1     2     0     0  4.728312694E+01  2.061026177E+02  9.740270948E+01  2.642466101E+02  1.250000000E+02  0.00000E+00  9.000E+00
      25     1     1     2     0     0 -5.825728375E+01 -2.438279457E+02  9.928011946E+01  2.971994622E+02  1.250000000E+02  0.00000E+00  9.000E+00
      21     1     1     2   501   512  1.097415681E+01  3.772532800E+01  3.451891593E+01  5.229902530E+01  4.768371582E-07  0.00000E+00  9.000E+00
#rwgt            1           1   3.6737440854557553E-002           4      160044           0
</event>
<event>
      5   9999  3.79277E-02  9.62917E+00 -1.00000E+00  1.97674E-01
      21    -1     0     0   502   501  0.000000000E+00  0.000000000E+00  1.223177672E+03  1.223177672E+03  0.000000000E+00  0.00000E+00  9.000E+00
      21    -1     0     0   511   502  0.000000000E+00  0.000000000E+00 -5.566288764E+01  5.566288764E+01  0.000000000E+00  0.00000E+00  9.000E+00
      25     1     1     2     0     0  9.685206968E+01 -1.805222033E+02  4.324178740E+02  4.945490947E+02  1.250000000E+02  0.00000E+00  9.000E+00
      25     1     1     2     0     0 -9.803359208E+01  1.709657930E+02  7.381703708E+02  7.741836887E+02  1.250000000E+02  0.00000E+00  9.000E+00
      21     1     1     2   511   501  1.181522399E+00  9.556410230E+00 -3.073460826E+00  1.010777587E+01  4.298152060E-07  0.00000E+00  9.000E+00
#rwgt            1           1   1.8653183936189557E-002           4      160219           0
</event>
<event>
      5   9999  3.79277E-02  4.19416E+01 -1.00000E+00  1.43575E-01
      21    -1     0     0   512   501  0.000000000E+00  0.000000000E+00  1.779514091E+02  1.779514091E+02  0.000000000E+00  0.00000E+00  9.000E+00
      21    -1     0     0   501   502  0.000000000E+00  0.000000000E+00 -2.686649328E+02  2.686649328E+02  0.000000000E+00  0.00000E+00  9.000E+00
      25     1     1     2     0     0  4.339844798E+01  8.847557474E+01 -1.528796949E+02  2.207001444E+02  1.250000000E+02  0.00000E+00  9.000E+00
      25     1     1     2     0     0 -1.189090615E+01 -1.161590772E+02  6.697859381E+01  1.836993655E+02  1.250000000E+02  0.00000E+00  9.000E+00
      21     1     1     2   512   502 -3.150754183E+01  2.768350245E+01 -4.812422631E+00  4.221683209E+01  8.960542904E-07  0.00000E+00  9.000E+00
#rwgt            1           1   1.8039832164679626E-002           4      160539           0
</event>
<event>
      5   9999  3.79277E-02  7.54902E+01 -1.00000E+00  1.29581E-01
      21    -1     0     0   502   501  0.000000000E+00  0.000000000E+00  5.602374661E+02  5.602374661E+02  0.000000000E+00  0.00000E+00  9.000E+00
      21    -1     0     0   501   511  0.000000000E+00  0.000000000E+00 -1.152872814E+02  1.152872814E+02  0.000000000E+00  0.00000E+00  9.000E+00
      25     1     1     2     0     0  1.523079417E+02  1.411774633E+02  2.685063741E+02  3.617311960E+02  1.250000000E+02  0.00000E+00  9.000E+00
      25     1     1     2     0     0 -1.089710592E+02 -7.936574362E+01  1.201327049E+02  2.196143888E+02  1.250000000E+02  0.00000E+00  9.000E+00
      21     1     1     2   502   511 -4.333688250E+01 -6.181171964E+01  5.631110574E+01  9.417916276E+01  2.023048729E-06  0.00000E+00  9.000E+00
#rwgt            1           1   3.1713391422893492E-002           4      160833           0
</event>
<event>
      5   9999  3.79277E-02  2.34565E+02 -1.00000E+00  1.09184E-01
      21    -1     0     0   502   512  0.000000000E+00  0.000000000E+00  9.177222704E+02  9.177222704E+02  0.000000000E+00  0.00000E+00  9.000E+00
      21    -1     0     0   501   502  0.000000000E+00  0.000000000E+00 -2.835134246E+02  2.835134246E+02  0.000000000E+00  0.00000E+00  9.000E+00
      25     1     1     2     0     0 -4.657912531E+01 -2.918550446E+01 -1.556513521E+02  2.070597788E+02  1.250000000E+02  0.00000E+00  9.000E+00
      25     1     1     2     0     0 -6.595975065E+01  2.349906472E+02  1.497558054E+02  3.124469462E+02  1.250000000E+02  0.00000E+00  9.000E+00
      21     1     1     2   501   512  1.125388760E+02 -2.058051427E+02  6.401043924E+02  6.817289700E+02  1.321449896E-05  0.00000E+00  9.000E+00
#rwgt            1           1   3.8576051298841715E-002           4      160917           0
</event>
<event>
      5   9999  3.79277E-02  4.44693E+01 -1.00000E+00  1.42044E-01
      21    -1     0     0   502   501  0.000000000E+00  0.000000000E+00  2.974135095E+02  2.974135095E+02  0.000000000E+00  0.00000E+00  9.000E+00
      21    -1     0     0   511   502  0.000000000E+00  0.000000000E+00 -2.768279478E+02  2.768279478E+02  0.000000000E+00  0.00000E+00  9.000E+00
      25     1     1     2     0     0 -1.666614852E+02 -1.366827601E+02  1.000968004E+02  2.685192675E+02  1.250000000E+02  0.00000E+00  9.000E+00
      25     1     1     2     0     0  1.359518498E+02  1.688454772E+02 -7.379012965E+01  2.608863428E+02  1.250000000E+02  0.00000E+00  9.000E+00
      21     1     1     2   511   501  3.070963544E+01 -3.216271713E+01 -5.721109073E+00  4.483584694E+01  8.128989754E-07  0.00000E+00  9.000E+00
#rwgt            1           1   3.7828774961353361E-002           4      160951           0
</event>
<event>
      5   9999  3.79277E-02  3.88860E+01 -1.00000E+00  1.45605E-01
       2    -1     0     0   502     0  0.000000000E+00  0.000000000E+00  3.600123843E+02  3.600123843E+02  0.000000000E+00  0.00000E+00  9.000E+00
      21    -1     0     0   501   502  0.000000000E+00  0.000000000E+00 -3.402705760E+02  3.402705760E+02  0.000000000E+00  0.00000E+00  9.000E+00
      25     1     1     2     0     0  3.170797271E+01 -1.907912420E+02 -1.769983870E+02  2.904481409E+02  1.250000000E+02  0.00000E+00  9.000E+00
      25     1     1     2     0     0 -4.727795561E+01  1.551584655E+02 -4.543651039E+00  2.048291954E+02  1.250000000E+02  0.00000E+00  9.000E+00
       2     1     1     2   501     0  1.556998290E+01  3.563277653E+01  2.012838463E+02  2.050056241E+02  3.814697266E-06  0.00000E+00  9.000E+00
#rwgt            1           1   3.3182787059130657E-002           4      161077           0
</event>
<event>
      5   9999  3.79277E-02  6.40540E+01 -1.00000E+00  1.33203E-01
      21    -1     0     0   502   501  0.000000000E+00  0.000000000E+00  5.915535114E+02  5.915535114E+02  0.000000000E+00  0.00000E+00  9.000E+00
      -1    -1     0     0     0   502  0.000000000E+00  0.000000000E+00 -3.812331685E+02  3.812331685E+02  0.000000000E+00  0.00000E+00  9.000E+00
      25     1     1     2     0     0 -2.256752257E+02  2.811258790E+01 -8.375263361E+01  2.726887030E+02  1.250000000E+02  0.00000E+00  9.000E+00
      25     1     1     2     0     0  1.616212979E+02 -2.802800975E+01  4.697933537E+02  5.130670604E+02  1.250000000E+02  0.00000E+00  9.000E+00
      -1     1     1     2     0   501  6.405392778E+01 -8.457814799E-02 -1.757203771E+02  1.870309166E+02  1.907348633E-06  0.00000E+00  9.000E+00
#rwgt            1           1   5.0242618541374628E-002           4      161270           0
</event>
<event>
      5   9999  3.79277E-02  9.08313E+01 -1.00000E+00  1.25736E-01
      21    -1     0     0   502   501  0.000000000E+00  0.000000000E+00  4.346004466E+01  4.346004466E+01  0.000000000E+00  0.00000E+00  9.000E+00
       2    -1     0     0   501     0  0.000000000E+00  0.000000000E+00 -2.922644739E+03  2.922644739E+03  0.000000000E+00  0.00000E+00  9.000E+00
      25     1     1     2     0     0  3.710184755E+01 -2.109770207E+02 -5.132623111E+02  5.700447792E+02  1.250000000E+02  0.00000E+00  9.000E+00
      25     1     1     2     0     0 -1.105637266E+02  1.575572593E+02 -2.144286441E+03  2.156533785E+03  1.250000000E+02  0.00000E+00  9.000E+00
       2     1     1     2   502     0  7.346187905E+01  5.341976145E+01 -2.216359427E+02  2.395262192E+02  3.814697266E-06  0.00000E+00  9.000E+00
#rwgt            1           1  0.31236764607506434                4      161470           0
</event>
<event>
      5   9999  3.79277E-02  4.57416E+01 -1.00000E+00  1.41318E-01
      21    -1     0     0   511   501  0.000000000E+00  0.000000000E+00  2.924317476E+02  2.924317476E+02  0.000000000E+00  0.00000E+00  9.000E+00
      21    -1     0     0   501   502  0.000000000E+00  0.000000000E+00 -2.189752737E+02  2.189752737E+02  0.000000000E+00  0.00000E+00  9.000E+00
      25     1     1     2     0     0  1.677806474E+02  2.451591248E+01  2.658176542E+01  2.123274967E+02  1.250000000E+02  0.00000E+00  9.000E+00
      25     1     1     2     0     0 -1.752271943E+02  2.061552118E+01 -2.098382328E+01  2.172438495E+02  1.250000000E+02  0.00000E+00  9.000E+00
      21     1     1     2   511   502  7.446546852E+00 -4.513143366E+01  6.785853177E+01  8.183567497E+01  9.536743164E-07  0.00000E+00  9.000E+00
#rwgt            1           1   3.7094817051774545E-002           4      161576           0
</event>
<event>
      5   9999 -3.79277E-02  3.92783E+01 -1.00000E+00  1.45332E-01
      21    -1     0     0   502   501  0.000000000E+00  0.000000000E+00  3.009976847E+02  3.009976847E+02  0.000000000E+00  0.00000E+00  9.000E+00
      21    -1     0     0   501   512  0.000000000E+00  0.000000000E+00 -6.178671139E+02  6.178671139E+02  0.000000000E+00  0.00000E+00  9.000E+00
      25     1     1     2     0     0  2.666557412E+02  1.383037929E+02 -1.909747305E+02  3.772659157E+02  1.250000000E+02  0.00000E+00  9.000E+00
      25     1     1     2     0     0 -2.383324620E+02 -1.655172626E+02  8.491571551E+01  3.271605194E+02  1.250000000E+02  0.00000E+00  9.000E+00
      21     1     1     2   502   512 -2.832327916E+01  2.721346971E+01 -2.108104141E+02  2.144383636E+02  4.672030912E-06  0.00000E+00  9.000E+00
#rwgt            1           1  -3.2661845012341921E-002           4      161705           0
</event>
<event>
      5   9999  3.79277E-02  2.75856E+01 -1.00000E+00  1.55615E-01
      21    -1     0     0   502   501  0.000000000E+00  0.000000000E+00  2.639779305E+02  2.639779305E+02  0.000000000E+00  0.00000E+00  9.000E+00
      21    -1     0     0   511   502  0.000000000E+00  0.000000000E+00 -4.858295271E+02  4.858295271E+02  0.000000000E+00  0.00000E+00  9.000E+00
      25     1     1     2     0     0 -1.779078944E+02  8.955452754E+01 -1.484780573E+02  2.781042354E+02  1.250000000E+02  0.00000E+00  9.000E+00
      25     1     1     2     0     0  1.965109552E+02 -1.099234502E+02  1.144807755E+02  2.818342924E+02  1.250000000E+02  0.00000E+00  9.000E+00
      21     1     1     2   511   501 -1.860306082E+01  2.036892268E+01 -1.878543148E+02  1.898689298E+02  0.000000000E+00  0.00000E+00  9.000E+00
#rwgt            1           1   4.8016877283459596E-002           4      161803           0
</event>
<event>
      5   9999  3.79277E-02  7.78056E+01 -1.00000E+00  1.28937E-01
      21    -1     0     0   502   512  0.000000000E+00  0.000000000E+00  3.342904805E+02  3.342904805E+02  0.000000000E+00  0.00000E+00  9.000E+00
      21    -1     0     0   501   502  0.000000000E+00  0.000000000E+00 -1.934968455E+02  1.934968455E+02  0.000000000E+00  0.00000E+00  9.000E+00
      25     1     1     2     0     0  6.854234101E+01  2.323886896E+01 -1.239949516E+02  1.903624059E+02  1.250000000E+02  0.00000E+00  9.000E+00
      25     1     1     2     0     0 -1.707316006E+01  3.511035030E+01  1.560596595E+02  2.037249293E+02  1.250000000E+02  0.00000E+00  9.000E+00
      21     1     1     2   501   512 -5.146918096E+01 -5.834921925E+01  1.087289271E+02  1.336999909E+02  2.697398305E-06  0.00000E+00  9.000E+00
#rwgt            1           1   2.9389735020957746E-002           4      161959           0
</event>
<event>
      5   9999  3.79277E-02  4.18162E+01 -1.00000E+00  1.43654E-01
      21    -1     0     0   502   511  0.000000000E+00  0.000000000E+00  2.252225904E+03  2.252225904E+03  0.000000000E+00  0.00000E+00  9.000E+00
      21    -1     0     0   501   502  0.000000000E+00  0.000000000E+00 -3.114888530E+01  3.114888530E+01  0.000000000E+00  0.00000E+00  9.000E+00
      25     1     1     2     0     0 -1.590434411E+02 -1.196080674E+02  1.152818948E+03  1.176527702E+03  1.250000000E+02  0.00000E+00  9.000E+00
      25     1     1     2     0     0  1.887332920E+02  9.016136370E+01  8.332366969E+02  8.681346210E+02  1.250000000E+02  0.00000E+00  9.000E+00
      21     1     1     2   501   511 -2.968985088E+01  2.944670372E+01  2.350213737E+02  2.387124665E+02  2.697398305E-06  0.00000E+00  9.000E+00
#rwgt            1           1  0.13724755717801007                4      162027           0
</event>
<event>
      5   9999  3.79277E-02  4.42218E+01 -1.00000E+00  1.42188E-01
       2    -1     0     0   502     0  0.000000000E+00  0.000000000E+00  4.408014764E+02  4.408014764E+02  0.000000000E+00  0.00000E+00  9.000E+00
      21    -1     0     0   501   502  0.000000000E+00  0.000000000E+00 -3.620546837E+02  3.620546837E+02  0.000000000E+00  0.00000E+00  9.000E+00
      25     1     1     2     0     0  1.183316887E+02  3.766600812E+01 -2.706876533E+02  3.229828515E+02  1.250000000E+02  0.00000E+00  9.000E+00
      25     1     1     2     0     0 -1.593147685E+02 -2.105400876E+01  1.005076385E+02  2.270490083E+02  1.250000000E+02  0.00000E+00  9.000E+00
       2     1     1     2   501     0  4.098307978E+01 -1.661199936E+01  2.489268075E+02  2.528243003E+02  2.697398305E-06  0.00000E+00  9.000E+00
#rwgt            1           1   4.3481250854934067E-002           4      162146           0
</event>
<event>
      5   9999  3.79277E-02  3.74710E+01 -1.00000E+00  1.46622E-01
      21    -1     0     0   502   501  0.000000000E+00  0.000000000E+00  7.388736039E+02  7.388736039E+02  0.000000000E+00  0.00000E+00  9.000E+00
      21    -1     0     0   501   511  0.000000000E+00  0.000000000E+00 -1.304993011E+02  1.304993011E+02  0.000000000E+00  0.00000E+00  9.000E+00
      25     1     1     2     0     0 -5.876217916E+01  2.721636036E+01 -1.707144911E+01  1.418102900E+02  1.250000000E+02  0.00000E+00  9.000E+00
      25     1     1     2     0     0  9.270441630E+01 -4.309086014E+01  6.582459600E+02  6.777637309E+02  1.250000000E+02  0.00000E+00  9.000E+00
      21     1     1     2   502   511 -3.394223714E+01  1.587449978E+01 -3.280020818E+01  4.979888415E+01  4.768371582E-07  0.00000E+00  9.000E+00
#rwgt            1           1   4.1176995595739459E-002           4      162316           0
</event>
<event>
      5   9999  3.79277E-02  8.13512E+01 -1.00000E+00  1.27998E-01
      -1    -1     0     0     0   501  0.000000000E+00  0.000000000E+00  7.449940185E+02  7.449940185E+02  0.000000000E+00  0.00000E+00  9.000E+00
      21    -1     0     0   501   502  0.000000000E+00  0.000000000E+00 -3.890395954E+02  3.890395954E+02  0.000000000E+00  0.00000E+00  9.000E+00
      25     1     1     2     0     0 -2.697149847E+01 -1.581185645E+02 -2.495395769E+02  3.219067297E+02  1.250000000E+02  0.00000E+00  9.000E+00
      25     1     1     2     0     0  3.512569921E+01  7.717709343E+01 -4.418317568E+01  1.573762101E+02  1.250000000E+02  0.00000E+00  9.000E+00
      -1     1     1     2     0   502 -8.154200739E+00  8.094147107E+01  6.496771756E+02  6.547506741E+02  7.629394531E-06  0.00000E+00  9.000E+00
#rwgt            1           1   4.6107925315296942E-002           4      162480           0
</event>
<event>
      5   9999  3.79277E-02  1.16627E+02 -1.00000E+00  1.20896E-01
      21    -1     0     0   502   501  0.000000000E+00  0.000000000E+00  1.437464790E+02  1.437464790E+02  0.000000000E+00  0.00000E+00  9.000E+00
      21    -1     0     0   501   511  0.000000000E+00  0.000000000E+00 -7.474834854E+02  7.474834854E+02  0.000000000E+00  0.00000E+00  9.000E+00
      25     1     1     2     0     0 -2.273402489E+02 -1.129018480E+02 -2.954259432E+02  4.090622251E+02  1.250000000E+02  0.00000E+00  9.000E+00
      25     1     1     2     0     0  2.096669722E+02 -2.378765479E+00 -1.535785335E+02  2.884046874E+02  1.250000000E+02  0.00000E+00  9.000E+00
      21     1     1     2   502   511  1.767327668E+01  1.152806135E+02 -1.547325297E+02  1.937630519E+02  0.000000000E+00  0.00000E+00  9.000E+00
#rwgt            1           1   3.8154929773569539E-002           4      162631           0
</event>
<event>
      5   9999  3.79277E-02  4.85200E+01 -1.00000E+00  1.39824E-01
      21    -1     0     0   512   501  0.000000000E+00  0.000000000E+00  2.305856079E+02  2.305856079E+02  0.000000000E+00  0.00000E+00  9.000E+00
      21    -1     0     0   501   502  0.000000000E+00  0.000000000E+00 -2.027012052E+02  2.027012052E+02  0.000000000E+00  0.00000E+00  9.000E+00
      25     1     1     2     0     0  7.449348630E+00  9.185739077E+01 -5.238097320E+01  1.638964288E+02  1.250000000E+02  0.00000E+00  9.000E+00
      25     1     1     2     0     0 -4.195442128E+01 -1.259687793E+02  8.232807620E+00  1.825406419E+02  1.250000000E+02  0.00000E+00  9.000E+00
      21     1     1     2   512   502  3.450507265E+01  3.411138851E+01  7.203256822E+01  8.684974237E+01  0.000000000E+00  0.00000E+00  9.000E+00
#rwgt            1           1   4.2418574755964666E-002           4      162695           0
</event>
<event>
      5   9999  3.79277E-02  6.24460E+01 -1.00000E+00  1.33783E-01
      21    -1     0     0   502   501  0.000000000E+00  0.000000000E+00  6.278878809E+02  6.278878809E+02  0.000000000E+00  0.00000E+00  9.000E+00
      21    -1     0     0   511   502  0.000000000E+00  0.000000000E+00 -1.421791247E+02  1.421791247E+02  0.000000000E+00  0.00000E+00  9.000E+00
      25     1     1     2     0     0  1.375152999E+02 -1.793653830E+01 -5.356028989E+00  1.867775794E+02  1.250000000E+02  0.00000E+00  9.000E+00
      25     1     1     2     0     0 -1.537075552E+02 -4.237357141E+01  4.784560703E+02  5.195832400E+02  1.250000000E+02  0.00000E+00  9.000E+00
      21     1     1     2   511   501  1.619225532E+01  6.031010971E+01  1.260871491E+01  6.370618618E+01  1.203954809E-06  0.00000E+00  9.000E+00
#rwgt            1           1   3.6552819733971433E-002           4      162757           0
</event>
<event>
      5   9999  3.79277E-02  3.30727E+01 -1.00000E+00  1.50155E-01
      21    -1     0     0   502   501  0.000000000E+00  0.000000000E+00  8.718270494E+01  8.718270494E+01  0.000000000E+00  0.00000E+00  9.000E+00
      21    -1     0     0   501   512  0.000000000E+00  0.000000000E+00 -9.261350891E+02  9.261350891E+02  0.000000000E+00  0.00000E+00  9.000E+00
      25     1     1     2     0     0 -3.688390391E+01 -2.003115699E+02 -6.247772670E+02  6.689221036E+02  1.250000000E+02  0.00000E+00  9.000E+00
      25     1     1     2     0     0  9.505815236E+00  1.817576969E+02 -1.355176033E+02  2.590680253E+02  1.250000000E+02  0.00000E+00  9.000E+00
      21     1     1     2   502   512  2.737808868E+01  1.855387300E+01 -7.865751396E+01  8.532766518E+01  1.348699152E-06  0.00000E+00  9.000E+00
#rwgt            1           1   3.8057216959445882E-002           4      162878           0
</event>
<event>
      5   9999  3.79277E-02  6.34758E+01 -1.00000E+00  1.33409E-01
      21    -1     0     0   511   501  0.000000000E+00  0.000000000E+00  4.935703956E+01  4.935703956E+01  0.000000000E+00  0.00000E+00  9.000E+00
      21    -1     0     0   501   502  0.000000000E+00  0.000000000E+00 -8.577688337E+02  8.577688337E+02  0.000000000E+00  0.00000E+00  9.000E+00
      25     1     1     2     0     0  6.565783012E+01 -4.756295784E+01 -3.346960403E+02  3.663599665E+02  1.250000000E+02  0.00000E+00  9.000E+00
      25     1     1     2     0     0 -7.865093641E+01  1.096947457E+02 -4.164572114E+02  4.552807002E+02  1.250000000E+02  0.00000E+00  9.000E+00
      21     1     1     2   511   502  1.299310629E+01 -6.213178784E+01 -5.725854236E+01  8.548520658E+01  1.348699152E-06  0.00000E+00  9.000E+00
#rwgt            1           1   3.8752434430458539E-002           4      163090           0
</event>
<event>
      5   9999  3.79277E-02  2.67131E+01 -1.00000E+00  1.56625E-01
       1    -1     0     0   502     0  0.000000000E+00  0.000000000E+00  2.198200124E+03  2.198200124E+03  0.000000000E+00  0.00000E+00  9.000E+00
      21    -1     0     0   501   502  0.000000000E+00  0.000000000E+00 -2.249517400E+02  2.249517400E+02  0.000000000E+00  0.00000E+00  9.000E+00
      25     1     1     2     0     0 -9.011854947E+01 -1.404900568E+02 -1.133287346E+02  2.373335440E+02  1.250000000E+02  0.00000E+00  9.000E+00
      25     1     1     2     0     0  9.551842338E+01  1.143284052E+02  1.413685331E+02  2.404263205E+02  1.250000000E+02  0.00000E+00  9.000E+00
       1     1     1     2   501     0 -5.399873918E+00  2.616165162E+01  1.945208586E+03  1.945392000E+03  2.157918644E-05  0.00000E+00  9.000E+00
#rwgt            1           1   3.7226419913874459E-002           4      163220           0
</event>
<event>
      5   9999  3.79277E-02  2.04018E+01 -1.00000E+00  1.65659E-01
       2    -1     0     0   502     0  0.000000000E+00  0.000000000E+00  2.005576772E+03  2.005576772E+03  0.000000000E+00  0.00000E+00  9.000E+00
      21    -1     0     0   501   502  0.000000000E+00  0.000000000E+00 -4.544586952E+01  4.544586952E+01  0.000000000E+00  0.00000E+00  9.000E+00
      25     1     1     2     0     0  1.024886976E+02 -5.952553669E+01  1.132807359E+03  1.145829279E+03  1.250000000E+02  0.00000E+00  9.000E+00
      25     1     1     2     0     0 -1.214587315E+02  5.201734008E+01  1.745227272E+02  2.520738175E+02  1.250000000E+02  0.00000E+00  9.000E+00
       2     1     1     2   501     0  1.897003395E+01  7.508196609E+00  6.528008156E+02  6.531195450E+02  7.629394531E-06  0.00000E+00  9.000E+00
#rwgt            1           1   4.2168189159460134E-002           4      163495           0
</event>
<event>
      5   9999  3.79277E-02  2.30180E+01 -1.00000E+00  1.61486E-01
      21    -1     0     0   502   501  0.000000000E+00  0.000000000E+00  9.740619828E+01  9.740619828E+01  0.000000000E+00  0.00000E+00  9.000E+00
       2    -1     0     0   501     0  0.000000000E+00  0.000000000E+00 -5.867784435E+02  5.867784435E+02  0.000000000E+00  0.00000E+00  9.000E+00
      25     1     1     2     0     0  9.356375198E+01 -1.263962186E+02 -1.815110558E+02  2.707423925E+02  1.250000000E+02  0.00000E+00  9.000E+00
      25     1     1     2     0     0 -8.377766680E+01  1.472303174E+02 -1.616397846E+02  2.654202023E+02  1.250000000E+02  0.00000E+00  9.000E+00
       2     1     1     2   502     0 -9.786085183E+00 -2.083409887E+01 -1.462214049E+02  1.480220470E+02  1.907348633E-06  0.00000E+00  9.000E+00
#rwgt            1           1   8.0047429103199154E-003           4      163666           0
</event>
<event>
      5   9999  6.15114E-02  6.35996E+01 -1.00000E+00  1.33365E-01
      21    -1     0     0   502   511  0.000000000E+00  0.000000000E+00  6.391968312E+01  6.391968312E+01  0.000000000E+00  0.00000E+00  9.000E+00
      21    -1     0     0   501   502  0.000000000E+00  0.000000000E+00 -1.601921115E+03  1.601921115E+03  0.000000000E+00  0.00000E+00  9.000E+00
      25     1     1     2     0     0  6.241626771E+01  2.201763499E+02 -4.682224162E+02  5.359390325E+02  1.250000000E+02  0.00000E+00  9.000E+00
      25     1     1     2     0     0 -1.259866746E+02 -2.221026439E+02 -9.761974873E+02  1.016754032E+03  1.250000000E+02  0.00000E+00  9.000E+00
      21     1     1     2   501   511  6.357040688E+01  1.926293967E+00 -9.358152807E+01  1.131477337E+02  1.348699152E-06  0.00000E+00  9.000E+00
#rwgt            1           1  0.41464819343546300                4      164012           0
</event>
<event>
      5   9999  3.79277E-02  1.19654E+02 -1.00000E+00  1.20422E-01
      21    -1     0     0   502   501  0.000000000E+00  0.000000000E+00  1.450178181E+02  1.450178181E+02  0.000000000E+00  0.00000E+00  9.000E+00
      21    -1     0     0   512   502  0.000000000E+00  0.000000000E+00 -1.219183730E+03  1.219183730E+03  0.000000000E+00  0.00000E+00  9.000E+00
      25     1     1     2     0     0 -2.546035962E+02  2.576014653E+02 -4.132782442E+02  5.635649148E+02  1.250000000E+02  0.00000E+00  9.000E+00
      25     1     1     2     0     0  1.362541759E+02 -2.752215878E+02 -4.652653927E+02  5.713221582E+02  1.250000000E+02  0.00000E+00  9.000E+00
      21     1     1     2   512   501  1.183494203E+02  1.762012251E+01 -1.956222755E+02  2.293144755E+02  2.697398305E-06  0.00000E+00  9.000E+00
#rwgt            1           1  0.19444266183094794                4      164127           0
</event>
<event>
      5   9999  3.79277E-02  1.13508E+02 -1.00000E+00  1.21403E-01
       2    -1     0     0   502     0  0.000000000E+00  0.000000000E+00  1.035865996E+03  1.035865996E+03  0.000000000E+00  0.00000E+00  9.000E+00
      21    -1     0     0   501   502  0.000000000E+00  0.000000000E+00 -7.546461266E+02  7.546461266E+02  0.000000000E+00  0.00000E+00  9.000E+00
      25     1     1     2     0     0 -6.191112751E+01 -1.155749584E+02 -3.955446403E+02  4.350530096E+02  1.250000000E+02  0.00000E+00  9.000E+00
      25     1     1     2     0     0  1.696714371E+02  1.512371618E+02 -2.859509900E+02  3.860751796E+02  1.250000000E+02  0.00000E+00  9.000E+00
       2     1     1     2   501     0 -1.077603096E+02 -3.566220335E+01  9.627154998E+02  9.693839336E+02  1.078959322E-05  0.00000E+00  9.000E+00
#rwgt            1           1   3.3062494397245762E-002           4      164273           0
</event>
<event>
      5   9999  3.79277E-02  1.21489E+02 -1.00000E+00  1.20141E-01
      21    -1     0     0   502   501  0.000000000E+00  0.000000000E+00  4.792387229E+02  4.792387229E+02  0.000000000E+00  0.00000E+00  9.000E+00
       4    -1     0     0   501     0  0.000000000E+00  0.000000000E+00 -5.224465892E+02  5.224465892E+02  0.000000000E+00  0.00000E+00  9.000E+00
      25     1     1     2     0     0 -8.996073293E+01  1.238491135E+02  1.234502306E+02  2.330160849E+02  1.250000000E+02  0.00000E+00  9.000E+00
      25     1     1     2     0     0  2.071783793E+02 -9.191812413E+01  2.346547086E+02  3.493703689E+02  1.250000000E+02  0.00000E+00  9.000E+00
       4     1     1     2   502     0 -1.172176464E+02 -3.193098932E+01 -4.013128055E+02  4.192988583E+02  0.000000000E+00  0.00000E+00  9.000E+00
#rwgt            1           1   3.3818115403067214E-002           4      164335           0
</event>
<event>
      5   9999  3.79277E-02  2.36542E+01 -1.00000E+00  1.60572E-01
      21    -1     0     0   511   501  0.000000000E+00  0.000000000E+00  4.026350561E+01  4.026350561E+01  0.000000000E+00  0.00000E+00  9.000E+00
      21    -1     0     0   501   502  0.000000000E+00  0.000000000E+00 -8.431326078E+02  8.431326078E+02  0.000000000E+00  0.00000E+00  9.000E+00
      25     1     1     2     0     0  6.105386812E+01  7.921826851E+01 -3.263662281E+02  3.635148192E+02  1.250000000E+02  0.00000E+00  9.000E+00
      25     1     1     2     0     0 -5.413308357E+01 -1.018373476E+02 -4.615707091E+02  4.919082796E+02  1.250000000E+02  0.00000E+00  9.000E+00
      21     1     1     2   511   502 -6.920784544E+00  2.261907905E+01 -1.493216498E+01  2.797301462E+01  4.768371582E-07  0.00000E+00  9.000E+00
#rwgt            1           1   4.3945544043956196E-002           4      164495           0
</event>
<event>
      5   9999  3.79277E-02  8.10299E+01 -1.00000E+00  1.28081E-01
      21    -1     0     0   502   512  0.000000000E+00  0.000000000E+00  1.615929509E+03  1.615929509E+03  0.000000000E+00  0.00000E+00  9.000E+00
      21    -1     0     0   501   502  0.000000000E+00  0.000000000E+00 -4.686063104E+01  4.686063104E+01  0.000000000E+00  0.00000E+00  9.000E+00
      25     1     1     2     0     0 -4.570131234E+01  2.015389805E+02  5.929290027E+02  6.402314995E+02  1.250000000E+02  0.00000E+00  9.000E+00
      25     1     1     2     0     0 -2.757757238E+01 -1.669551008E+02  5.516531268E+02  5.904072327E+02  1.250000000E+02  0.00000E+00  9.000E+00
      21     1     1     2   501   512  7.327888472E+01 -3.458387974E+01  4.244867481E+02  4.321514075E+02  5.394796609E-06  0.00000E+00  9.000E+00
#rwgt            1           1   2.1412045619016069E-002           4      164730           0
</event>
<event>
      5   9999  3.79277E-02  6.01514E+01 -1.00000E+00  1.34645E-01
      21    -1     0     0   502   511  0.000000000E+00  0.000000000E+00  4.520218149E+02  4.520218149E+02  0.000000000E+00  0.00000E+00  9.000E+00
      21    -1     0     0   501   502  0.000000000E+00  0.000000000E+00 -1.556172283E+03  1.556172283E+03  0.000000000E+00  0.00000E+00  9.000E+00
      25     1     1     2     0     0  9.959462904E+00 -2.071240442E+02 -1.343356395E+03  1.365002185E+03  1.250000000E+02  0.00000E+00  9.000E+00
      25     1     1     2     0     0 -1.536499778E+00  2.666827989E+02 -9.044119877E+01  3.081017470E+02  1.250000000E+02  0.00000E+00  9.000E+00
      21     1     1     2   501   511 -8.422963126E+00 -5.955875474E+01  3.296471259E+02  3.350901658E+02  0.000000000E+00  0.00000E+00  9.000E+00
#rwgt            1           1   2.8810230544616195E-002           4      164785           0
</event>
<event>
      5   9999  3.79277E-02  1.02713E+02 -1.00000E+00  1.23307E-01
      21    -1     0     0   512   501  0.000000000E+00  0.000000000E+00  7.013883316E+02  7.013883316E+02  0.000000000E+00  0.00000E+00  9.000E+00
      21    -1     0     0   501   502  0.000000000E+00  0.000000000E+00 -1.894691889E+02  1.894691889E+02  0.000000000E+00  0.00000E+00  9.000E+00
      25     1     1     2     0     0 -1.291893680E+02  5.161531701E+01 -1.128782699E+02  2.184503092E+02  1.250000000E+02  0.00000E+00  9.000E+00
      25     1     1     2     0     0  4.805805913E+01  1.137471579E+01  4.502412562E+02  4.698735468E+02  1.250000000E+02  0.00000E+00  9.000E+00
      21     1     1     2   512   502  8.113130891E+01 -6.299003280E+01  1.745561564E+02  2.025336645E+02  2.697398305E-06  0.00000E+00  9.000E+00
#rwgt            1           1   4.4174111455097358E-002           4      164977           0
</event>
<event>
      5   9999  3.79277E-02  3.89066E+01 -1.00000E+00  1.45591E-01
      21    -1     0     0   502   501  0.000000000E+00  0.000000000E+00  1.350770847E+03  1.350770847E+03  0.000000000E+00  0.00000E+00  9.000E+00
      -2    -1     0     0     0   502  0.000000000E+00  0.000000000E+00 -1.572371247E+02  1.572371247E+02  0.000000000E+00  0.00000E+00  9.000E+00
      25     1     1     2     0     0  1.442487397E+02 -1.101553145E+01  2.717629521E+02  3.322787128E+02  1.250000000E+02  0.00000E+00  9.000E+00
      25     1     1     2     0     0 -1.313914716E+02  4.773628078E+01  1.037149627E+03  1.053967182E+03  1.250000000E+02  0.00000E+00  9.000E+00
      -2     1     1     2     0   501 -1.285726816E+01 -3.672074933E+01 -1.153788569E+02  1.217620770E+02  4.046097457E-06  0.00000E+00  9.000E+00
#rwgt            1           1   4.9829531071547507E-002           4      165048           0
</event>
<event>
      5   9999  3.79277E-02  1.05061E+02 -1.00000E+00  1.22871E-01
      21    -1     0     0   502   501  0.000000000E+00  0.000000000E+00  2.312426777E+02  2.312426777E+02  0.000000000E+00  0.00000E+00  9.000E+00
      21    -1     0     0   501   511  0.000000000E+00  0.000000000E+00 -2.683737434E+02  2.683737434E+02  0.000000000E+00  0.00000E+00  9.000E+00
      25     1     1     2     0     0  9.872372692E+01 -6.359114808E-01 -1.853854825E+01  1.603603954E+02  1.250000000E+02  0.00000E+00  9.000E+00
      25     1     1     2     0     0 -1.869963674E+02  5.760820087E+01  1.993695722E+00  2.321967292E+02  1.250000000E+02  0.00000E+00  9.000E+00
      21     1     1     2   502   511  8.827264043E+01 -5.697228939E+01 -2.058621320E+01  1.070592966E+02  2.654916936E-06  0.00000E+00  9.000E+00
#rwgt            1           1   2.9177297130577727E-002           4      165286           0
</event>
<event>
      5   9999  3.79277E-02  1.84825E+02 -1.00000E+00  1.12910E-01
      21    -1     0     0   502   501  0.000000000E+00  0.000000000E+00  2.146858434E+02  2.146858434E+02  0.000000000E+00  0.00000E+00  9.000E+00
      21    -1     0     0   501   512  0.000000000E+00  0.000000000E+00 -1.001491104E+03  1.001491104E+03  0.000000000E+00  0.00000E+00  9.000E+00
      25     1     1     2     0     0 -1.285878022E+02  3.566055134E+01 -2.724846198E+02  3.281453425E+02  1.250000000E+02  0.00000E+00  9.000E+00
      25     1     1     2     0     0 -2.271199493E+00 -1.661828858E+02  1.111679610E+02  2.358076026E+02  1.250000000E+02  0.00000E+00  9.000E+00
      21     1     1     2   502   512  1.308590017E+02  1.305223345E+02 -6.254886019E+02  6.522240023E+02  1.525878906E-05  0.00000E+00  9.000E+00
#rwgt            2          11   1.6666260440616825E-003           4      165459           0
</event>
<event>
      5   9999  3.79277E-02  3.08017E+01 -1.00000E+00  1.52249E-01
      21    -1     0     0   502   511  0.000000000E+00  0.000000000E+00  3.708738824E+02  3.708738824E+02  0.000000000E+00  0.00000E+00  9.000E+00
      21    -1     0     0   501   502  0.000000000E+00  0.000000000E+00 -1.632635936E+02  1.632635936E+02  0.000000000E+00  0.00000E+00  9.000E+00
      25     1     1     2     0     0 -3.989168931E+01  8.337324954E+01  1.056261866E+02  1.879476973E+02  1.250000000E+02  0.00000E+00  9.000E+00
      25     1     1     2     0     0  6.055246535E+01 -1.062179369E+02 -5.726268528E+01  1.839914843E+02  1.250000000E+02  0.00000E+00  9.000E+00
      21     1     1     2   501   511 -2.066077604E+01  2.284468736E+01  1.592467875E+02  1.621982944E+02  1.907348633E-06  0.00000E+00  9.000E+00
#rwgt            1           1   3.0217330162975842E-002           4      165539           0
</event>
<event>
      5   9999  3.79277E-02  6.87229E+01 -1.00000E+00  1.31627E-01
      21    -1     0     0   502   501  0.000000000E+00  0.000000000E+00  7.813729156E+02  7.813729156E+02  0.000000000E+00  0.00000E+00  9.000E+00
       1    -1     0     0   501     0  0.000000000E+00  0.000000000E+00 -2.170868079E+02  2.170868079E+02  0.000000000E+00  0.00000E+00  9.000E+00
      25     1     1     2     0     0 -2.228517559E+02 -3.368842747E+01  5.314259708E+02  5.906237192E+02  1.250000000E+02  0.00000E+00  9.000E+00
      25     1     1     2     0     0  1.892353429E+02  9.362816498E+01  1.385443482E+02  2.817725762E+02  1.250000000E+02  0.00000E+00  9.000E+00
       1     1     1     2   502     0  3.361641298E+01 -5.993973752E+01 -1.056842114E+02  1.260634280E+02  1.907348633E-06  0.00000E+00  9.000E+00
#rwgt            1           1   3.1854685885098807E-002           4      165700           0
</event>
<event>
      5   9999  3.79277E-02  9.52471E+01 -1.00000E+00  1.24787E-01
      21    -1     0     0   511   501  0.000000000E+00  0.000000000E+00  9.222557995E+01  9.222557995E+01  0.000000000E+00  0.00000E+00  9.000E+00
      21    -1     0     0   501   502  0.000000000E+00  0.000000000E+00 -1.105455157E+03  1.105455157E+03  0.000000000E+00  0.00000E+00  9.000E+00
      25     1     1     2     0     0 -9.386894917E+01 -1.309760709E+02 -6.301284698E+02  6.623088398E+02  1.250000000E+02  0.00000E+00  9.000E+00
      25     1     1     2     0     0  9.533171655E+00  1.752421398E+02 -3.837734588E+02  4.401224337E+02  1.250000000E+02  0.00000E+00  9.000E+00
      21     1     1     2   511   502  8.433577751E+01 -4.426606889E+01  6.723516693E-01  9.524946341E+01  2.792417573E-06  0.00000E+00  9.000E+00
#rwgt            1           1   2.4856616336124657E-002           4      165833           0
</event>
<event>
      5   9999  3.79277E-02  1.77745E+02 -1.00000E+00  1.13546E-01
       2    -1     0     0   502     0  0.000000000E+00  0.000000000E+00  2.255395090E+03  2.255395090E+03  0.000000000E+00  0.00000E+00  9.000E+00
      21    -1     0     0   501   502  0.000000000E+00  0.000000000E+00 -9.447974914E+01  9.447974914E+01  0.000000000E+00  0.00000E+00  9.000E+00
      25     1     1     2     0     0 -1.534802936E+02  1.802681761E+02  1.565282576E+02  3.101272501E+02  1.250000000E+02  0.00000E+00  9.000E+00
      25     1     1     2     0     0  2.413907305E+01 -5.835029812E+01  3.681880010E+02  3.939223987E+02  1.250000000E+02  0.00000E+00  9.000E+00
       2     1     1     2   501     0  1.293412206E+02 -1.219178780E+02  1.636199082E+03  1.645825190E+03  3.737624730E-05  0.00000E+00  9.000E+00
#rwgt            2          18   7.0124314556353545E-004           4      166233           0
</event>
<event>
      5   9999  3.79277E-02  1.27279E+02 -1.00000E+00  1.19293E-01
      21    -1     0     0   502   501  0.000000000E+00  0.000000000E+00  2.316185942E+02  2.316185942E+02  0.000000000E+00  0.00000E+00  9.000E+00
      21    -1     0     0   501   511  0.000000000E+00  0.000000000E+00 -2.773994849E+02  2.773994849E+02  0.000000000E+00  0.00000E+00  9.000E+00
      25     1     1     2     0     0 -1.604217177E+02 -4.655766440E+01 -2.512352763E+01  2.101402752E+02  1.250000000E+02  0.00000E+00  9.000E+00
      25     1     1     2     0     0  4.450288000E+01  9.911985347E+01  1.608895129E+01  1.664004388E+02  1.250000000E+02  0.00000E+00  9.000E+00
      21     1     1     2   502   511  1.159188377E+02 -5.256218907E+01 -3.674631435E+01  1.324773651E+02  2.611744678E-06  0.00000E+00  9.000E+00
#rwgt            2          11   2.5775131522762433E-003           4      166672           0
</event>
<event>
      5   9999  3.79277E-02  2.01322E+01 -1.00000E+00  1.66133E-01
      21    -1     0     0   502   501  0.000000000E+00  0.000000000E+00  8.988647868E+01  8.988647868E+01  0.000000000E+00  0.00000E+00  9.000E+00
      21    -1     0     0   512   502  0.000000000E+00  0.000000000E+00 -6.932969564E+02  6.932969564E+02  0.000000000E+00  0.00000E+00  9.000E+00
      25     1     1     2     0     0  1.398174272E+02 -5.138123439E+01 -4.074058900E+02  4.514349381E+02  1.250000000E+02  0.00000E+00  9.000E+00
      25     1     1     2     0     0 -1.589167185E+02  5.774682441E+01 -9.852158840E+01  2.322083602E+02  1.250000000E+02  0.00000E+00  9.000E+00
      21     1     1     2   512   501  1.909929132E+01 -6.365590019E+00 -9.748299934E+01  9.954013676E+01  1.348699152E-06  0.00000E+00  9.000E+00
#rwgt            1           1   3.6637676461649088E-002           4      166707           0
</event>
<event>
      5   9999  3.79277E-02  4.96360E+01 -1.00000E+00  1.39257E-01
      21    -1     0     0   502   501  0.000000000E+00  0.000000000E+00  3.823830820E+01  3.823830820E+01  0.000000000E+00  0.00000E+00  9.000E+00
       2    -1     0     0   501     0  0.000000000E+00  0.000000000E+00 -1.683307577E+03  1.683307577E+03  0.000000000E+00  0.00000E+00  9.000E+00
      25     1     1     2     0     0  1.034620964E+02 -9.850947551E+01 -2.967839793E+02  3.522985276E+02  1.250000000E+02  0.00000E+00  9.000E+00
      25     1     1     2     0     0 -1.242570892E+02  5.343956416E+01 -9.328524904E+02  9.508598109E+02  1.250000000E+02  0.00000E+00  9.000E+00
       2     1     1     2   502     0  2.079499278E+01  4.506991135E+01 -4.154327992E+02  4.183875467E+02  9.344061824E-06  0.00000E+00  9.000E+00
#rwgt            1           1   4.3092349241829045E-002           4      166924           0
</event>
<event>
      5   9999  3.79277E-02  1.24445E+01 -1.00000E+00  1.85382E-01
      21    -1     0     0   502   501  0.000000000E+00  0.000000000E+00  1.832629402E+02  1.832629402E+02  0.000000000E+00  0.00000E+00  9.000E+00
      21    -1     0     0   511   502  0.000000000E+00  0.000000000E+00 -3.577417641E+02  3.577417641E+02  0.000000000E+00  0.00000E+00  9.000E+00
      25     1     1     2     0     0 -6.620601232E+01  1.126688659E+02  1.020786154E+02  2.076597051E+02  1.250000000E+02  0.00000E+00  9.000E+00
      25     1     1     2     0     0  6.444754166E+01 -1.003492262E+02 -2.651106301E+02  3.164365639E+02  1.250000000E+02  0.00000E+00  9.000E+00
      21     1     1     2   511   501  1.758470662E+00 -1.231963969E+01 -1.144680926E+01  1.690843527E+01  2.384185791E-07  0.00000E+00  9.000E+00
#rwgt            1           1   3.5997281396464742E-002           4      167219           0
</event>
<event>
      5   9999  3.79277E-02  7.70515E+01 -1.00000E+00  1.29144E-01
      21    -1     0     0   502   512  0.000000000E+00  0.000000000E+00  1.733656610E+02  1.733656610E+02  0.000000000E+00  0.00000E+00  9.000E+00
      21    -1     0     0   501   502  0.000000000E+00  0.000000000E+00 -5.168468733E+02  5.168468733E+02  0.000000000E+00  0.00000E+00  9.000E+00
      25     1     1     2     0     0 -9.839466434E+00  1.296030028E+02 -1.254358967E+02  2.196654675E+02  1.250000000E+02  0.00000E+00  9.000E+00
      25     1     1     2     0     0 -4.043379920E+01 -1.879942226E+02 -2.868361718E+02  3.672556457E+02  1.250000000E+02  0.00000E+00  9.000E+00
      21     1     1     2   501   512  5.027326563E+01  5.839121983E+01  6.879085610E+01  1.032914211E+02  1.348699152E-06  0.00000E+00  9.000E+00
#rwgt            1           1   3.4294499495706794E-002           4      167451           0
</event>
<event>
      5   9999  3.79277E-02  1.15127E+02 -1.00000E+00  1.21137E-01
      21    -1     0     0   502   501  0.000000000E+00  0.000000000E+00  6.928305278E+02  6.928305278E+02  0.000000000E+00  0.00000E+00  9.000E+00
      21    -1     0     0   511   502  0.000000000E+00  0.000000000E+00 -8.529937331E+01  8.529937331E+01  0.000000000E+00  0.00000E+00  9.000E+00
      25     1     1     2     0     0  4.637158517E+01 -3.958758250E+01  1.503130969E+02  2.047841002E+02  1.250000000E+02  0.00000E+00  9.000E+00
      25     1     1     2     0     0 -4.516067922E+01  1.547085306E+02  3.897882962E+02  4.399251439E+02  1.250000000E+02  0.00000E+00  9.000E+00
      21     1     1     2   511   501 -1.210905953E+00 -1.151209481E+02  6.742976130E+01  1.334206569E+02  2.861022949E-06  0.00000E+00  9.000E+00
#rwgt            1           1   4.7420569133961581E-002           4      167615           0
</event>
<event>
      5   9999 -3.79277E-02  1.16862E+02 -1.00000E+00  1.20859E-01
      21    -1     0     0   512   501  0.000000000E+00  0.000000000E+00  1.158261649E+02  1.158261649E+02  0.000000000E+00  0.00000E+00  9.000E+00
      21    -1     0     0   501   502  0.000000000E+00  0.000000000E+00 -1.478449295E+03  1.478449295E+03  0.000000000E+00  0.00000E+00  9.000E+00
      25     1     1     2     0     0 -3.199281857E+02 -7.613255976E+01 -5.365718826E+02  6.416265237E+02  1.250000000E+02  0.00000E+00  9.000E+00
      25     1     1     2     0     0  2.709668670E+02  1.822438613E+02 -6.881692394E+02  7.719052857E+02  1.250000000E+02  0.00000E+00  9.000E+00
      21     1     1     2   512   502  4.896131872E+01 -1.061113016E+02 -1.378820079E+02  1.807436504E+02  0.000000000E+00  0.00000E+00  9.000E+00
#rwgt            1           1 -0.11536279330150995                4      167688           0
</event>
<event>
      5   9999  3.79277E-02  5.79202E+00 -1.00000E+00  2.27878E-01
      21    -1     0     0   502   501  0.000000000E+00  0.000000000E+00  1.053000075E+02  1.053000075E+02  0.000000000E+00  0.00000E+00  9.000E+00
      21    -1     0     0   511   502  0.000000000E+00  0.000000000E+00 -1.704769273E+03  1.704769273E+03  0.000000000E+00  0.00000E+00  9.000E+00
      25     1     1     2     0     0 -1.347180672E+02  1.800738122E+02 -3.717104857E+02  4.520721410E+02  1.250000000E+02  0.00000E+00  9.000E+00
      25     1     1     2     0     0  1.400431334E+02 -1.777953934E+02 -1.915590340E+02  3.217812061E+02  1.250000000E+02  0.00000E+00  9.000E+00
      21     1     1     2   511   501 -5.325066154E+00 -2.278418849E+00 -1.036199745E+03  1.036215933E+03  1.525878906E-05  0.00000E+00  9.000E+00
#rwgt            1           1   2.7973858275865290E-002           4      167774           0
</event>
<event>
      5   9999  3.79277E-02  2.54487E+01 -1.00000E+00  1.58174E-01
      21    -1     0     0   502   501  0.000000000E+00  0.000000000E+00  4.448033280E+02  4.448033280E+02  0.000000000E+00  0.00000E+00  9.000E+00
      21    -1     0     0   512   502  0.000000000E+00  0.000000000E+00 -1.838339429E+02  1.838339429E+02  0.000000000E+00  0.00000E+00  9.000E+00
      25     1     1     2     0     0 -1.625460822E+02 -1.253845975E+02  1.824532285E+02  3.017560384E+02  1.250000000E+02  0.00000E+00  9.000E+00
      25     1     1     2     0     0  1.863083276E+02  1.344944790E+02  1.122303415E+02  2.846404879E+02  1.250000000E+02  0.00000E+00  9.000E+00
      21     1     1     2   512   501 -2.376224540E+01 -9.109881458E+00 -3.371418490E+01  4.224074467E+01  0.000000000E+00  0.00000E+00  9.000E+00
#rwgt            1           1   3.5768558539134167E-002           4      168042           0
</event>
<event>
      5   9999 -3.79277E-02  7.64613E+01 -1.00000E+00  1.29308E-01
      21    -1     0     0   502   511  0.000000000E+00  0.000000000E+00  6.719037938E+01  6.719037938E+01  0.000000000E+00  0.00000E+00  9.000E+00
      21    -1     0     0   501   502  0.000000000E+00  0.000000000E+00 -1.275083073E+03  1.275083073E+03  0.000000000E+00  0.00000E+00  9.000E+00
      25     1     1     2     0     0  8.096931290E+01  8.716047900E+00 -9.706688276E+02  9.820666840E+02  1.250000000E+02  0.00000E+00  9.000E+00
      25     1     1     2     0     0 -1.234780257E+02 -7.227189520E+01 -1.974849741E+02  2.740353347E+02  1.250000000E+02  0.00000E+00  9.000E+00
      21     1     1     2   501   511  4.250871284E+01  6.355584730E+01 -3.973889149E+01  8.617143315E+01  1.066240300E-06  0.00000E+00  9.000E+00
#rwgt            1           1 -0.14212047454745921                4      168215           0
</event>
<event>
      5   9999  3.79277E-02  4.13112E+01 -1.00000E+00  1.43977E-01
      21    -1     0     0   512   501  0.000000000E+00  0.000000000E+00  9.952370839E+02  9.952370839E+02  0.000000000E+00  0.00000E+00  9.000E+00
      21    -1     0     0   501   502  0.000000000E+00  0.000000000E+00 -1.129589654E+02  1.129589654E+02  0.000000000E+00  0.00000E+00  9.000E+00
      25     1     1     2     0     0 -1.521223466E+02 -1.236198739E+02  3.988908713E+02  4.616947138E+02  1.250000000E+02  0.00000E+00  9.000E+00
      25     1     1     2     0     0  1.196166224E+02  1.491148814E+02  8.151916942E+01  2.425154824E+02  1.250000000E+02  0.00000E+00  9.000E+00
      21     1     1     2   512   502  3.250572417E+01 -2.549500750E+01  4.018680778E+02  4.039858531E+02  5.394796609E-06  0.00000E+00  9.000E+00
#rwgt            1           1   3.6799010305194411E-002           4      168261           0
</event>
<event>
      5   9999  3.79277E-02  1.41929E+02 -1.00000E+00  1.17354E-01
      21    -1     0     0   502   501  0.000000000E+00  0.000000000E+00  2.378405713E+02  2.378405713E+02  0.000000000E+00  0.00000E+00  9.000E+00
      21    -1     0     0   501   511  0.000000000E+00  0.000000000E+00 -5.928641174E+02  5.928641174E+02  0.000000000E+00  0.00000E+00  9.000E+00
      25     1     1     2     0     0 -2.372270752E+02  9.379350181E-01 -1.257002460E+02  2.961471201E+02  1.250000000E+02  0.00000E+00  9.000E+00
      25     1     1     2     0     0  2.147856688E+02 -1.410811759E+02 -2.647777689E+01  2.869892931E+02  1.250000000E+02  0.00000E+00  9.000E+00
      21     1     1     2   502   511  2.244140640E+01  1.401432409E+02 -2.028455232E+02  2.475682754E+02  0.000000000E+00  0.00000E+00  9.000E+00
#rwgt            1           1   3.3280271872407154E-002           4      168433           0
</event>
<event>
      5   9999  3.79277E-02  4.39133E+01 -1.00000E+00  1.42370E-01
      21    -1     0     0   502   501  0.000000000E+00  0.000000000E+00  7.085230276E+01  7.085230276E+01  0.000000000E+00  0.00000E+00  9.000E+00
      21    -1     0     0   512   502  0.000000000E+00  0.000000000E+00 -1.213078718E+03  1.213078718E+03  0.000000000E+00  0.00000E+00  9.000E+00
      25     1     1     2     0     0 -2.313673987E+02  8.425963226E+00 -3.229609019E+02  4.165700591E+02  1.250000000E+02  0.00000E+00  9.000E+00
      25     1     1     2     0     0  1.994025029E+02  2.168416455E+01 -6.249680545E+02  6.681628771E+02  1.250000000E+02  0.00000E+00  9.000E+00
      21     1     1     2   512   501  3.196489579E+01 -3.011012778E+01 -1.942974585E+02  1.991980841E+02  3.814697266E-06  0.00000E+00  9.000E+00
#rwgt            1           1   3.1745947934806049E-002           4      168811           0
</event>
<event>
      5   9999  3.79277E-02  7.61800E+00 -1.00000E+00  2.10488E-01
      21    -1     0     0   502   501  0.000000000E+00  0.000000000E+00  1.256223220E+02  1.256223220E+02  0.000000000E+00  0.00000E+00  9.000E+00
       2    -1     0     0   501     0  0.000000000E+00  0.000000000E+00 -1.329903730E+03  1.329903730E+03  0.000000000E+00  0.00000E+00  9.000E+00
      25     1     1     2     0     0 -1.160063707E+02  4.477753680E+01 -1.352534264E+02  2.222183503E+02  1.250000000E+02  0.00000E+00  9.000E+00
      25     1     1     2     0     0  1.129203837E+02 -5.174249024E+01 -1.240315940E+01  1.766554180E+02  1.250000000E+02  0.00000E+00  9.000E+00
       2     1     1     2   502     0  3.085987032E+00  6.964953446E+00 -1.056624822E+03  1.056652284E+03  1.525878906E-05  0.00000E+00  9.000E+00
#rwgt            1           1   4.2798310635725749E-002           4      168990           0
</event>
<event>
      5   9999  3.79277E-02  1.86085E+01 -1.00000E+00  1.68995E-01
      21    -1     0     0   511   501  0.000000000E+00  0.000000000E+00  7.934118428E+01  7.934118428E+01  0.000000000E+00  0.00000E+00  9.000E+00
      21    -1     0     0   501   502  0.000000000E+00  0.000000000E+00 -5.244264353E+02  5.244264353E+02  0.000000000E+00  0.00000E+00  9.000E+00
      25     1     1     2     0     0  3.924807510E+01 -1.252892603E+02 -2.946934052E+02  3.459870130E+02  1.250000000E+02  0.00000E+00  9.000E+00
      25     1     1     2     0     0 -5.667234754E+01  1.318215765E+02 -1.415933288E+02  2.371968671E+02  1.250000000E+02  0.00000E+00  9.000E+00
      21     1     1     2   511   502  1.742427244E+01 -6.532316241E+00 -8.798516950E+00  2.058373936E+01  2.665600750E-07  0.00000E+00  9.000E+00
#rwgt            1           1   4.1488848952336753E-002           4      169266           0
</event>
<event>
      5   9999  3.79277E-02  1.47954E+01 -1.00000E+00  1.77947E-01
      21    -1     0     0   502   501  0.000000000E+00  0.000000000E+00  7.168257884E+02  7.168257884E+02  0.000000000E+00  0.00000E+00  9.000E+00
      21    -1     0     0   501   512  0.000000000E+00  0.000000000E+00 -1.088932749E+02  1.088932749E+02  0.000000000E+00  0.00000E+00  9.000E+00
      25     1     1     2     0     0  8.499527534E+01  7.102248803E+01  6.247085153E+01  1.783143234E+02  1.250000000E+02  0.00000E+00  9.000E+00
      25     1     1     2     0     0 -9.266662249E+01 -8.367373343E+01  5.818724365E+02  6.081027289E+02  1.250000000E+02  0.00000E+00  9.000E+00
      21     1     1     2   502   512  7.671347147E+00  1.265124540E+01 -3.641077445E+01  3.930201106E+01  6.743495762E-07  0.00000E+00  9.000E+00
#rwgt            1           1   4.0158580818636824E-002           4      169527           0
</event>
<event>
      5   9999  3.79277E-02  2.02002E+01 -1.00000E+00  1.66013E-01
      21    -1     0     0   502   501  0.000000000E+00  0.000000000E+00  1.574655211E+02  1.574655211E+02  0.000000000E+00  0.00000E+00  9.000E+00
      21    -1     0     0   501   511  0.000000000E+00  0.000000000E+00 -3.215883878E+02  3.215883878E+02  0.000000000E+00  0.00000E+00  9.000E+00
      25     1     1     2     0     0  1.528232116E+02  1.363741005E+01 -1.634095486E+02  2.566487747E+02  1.250000000E+02  0.00000E+00  9.000E+00
      25     1     1     2     0     0 -1.366699263E+02 -1.508192899E+00  2.797419191E+01  1.873192431E+02  1.250000000E+02  0.00000E+00  9.000E+00
      21     1     1     2   502   511 -1.615328524E+01 -1.212921715E+01 -2.868750993E+01  3.508589116E+01  0.000000000E+00  0.00000E+00  9.000E+00
#rwgt            1           1   4.4238542569513727E-002           4      169747           0
</event>
<event>
      5   9999  3.79277E-02  4.38096E+01 -1.00000E+00  1.42432E-01
      21    -1     0     0   502   512  0.000000000E+00  0.000000000E+00  6.969864954E+01  6.969864954E+01  0.000000000E+00  0.00000E+00  9.000E+00
      21    -1     0     0   501   502  0.000000000E+00  0.000000000E+00 -9.082596697E+02  9.082596697E+02  0.000000000E+00  0.00000E+00  9.000E+00
      25     1     1     2     0     0  1.797742271E+01  5.774183379E+01 -1.971457113E+02  2.411404955E+02  1.250000000E+02  0.00000E+00  9.000E+00
      25     1     1     2     0     0 -5.781549519E+01 -7.596845027E+01 -6.675336671E+02  6.858134102E+02  1.250000000E+02  0.00000E+00  9.000E+00
      21     1     1     2   501   512  3.983807248E+01  1.822661648E+01  2.611835819E+01  5.100441355E+01  3.371747881E-07  0.00000E+00  9.000E+00
#rwgt            1           1   5.2736962717277312E-002           4      170091           0
</event>
<event>
      5   9999  3.79277E-02  8.12329E+01 -1.00000E+00  1.28029E-01
      21    -1     0     0   511   501  0.000000000E+00  0.000000000E+00  2.036970603E+02  2.036970603E+02  0.000000000E+00  0.00000E+00  9.000E+00
      21    -1     0     0   501   502  0.000000000E+00  0.000000000E+00 -1.129986096E+03  1.129986096E+03  0.000000000E+00  0.00000E+00  9.000E+00
      25     1     1     2     0     0  3.082273410E+01  7.937936264E+00 -1.028718468E+03  1.036773716E+03  1.250000000E+02  0.00000E+00  9.000E+00
      25     1     1     2     0     0 -2.257362156E+01  7.287504491E+01 -2.222849800E+01  1.481197039E+02  1.250000000E+02  0.00000E+00  9.000E+00
      21     1     1     2   511   502 -8.249112538E+00 -8.081298117E+01  1.246579308E+02  1.487897358E+02  1.348699152E-06  0.00000E+00  9.000E+00
#rwgt            1           1   4.1841236277505474E-002           4      170336           0
</event>
<event>
      5   9999  3.79277E-02  7.81399E+01 -1.00000E+00  1.28846E-01
      21    -1     0     0   512   501  0.000000000E+00  0.000000000E+00  4.203108628E+02  4.203108628E+02  0.000000000E+00  0.00000E+00  9.000E+00
      21    -1     0     0   501   502  0.000000000E+00  0.000000000E+00 -1.955584444E+02  1.955584444E+02  0.000000000E+00  0.00000E+00  9.000E+00
      25     1     1     2     0     0  1.272800566E+02  1.334448552E+02  2.542366428E+02  3.380369991E+02  1.250000000E+02  0.00000E+00  9.000E+00
      25     1     1     2     0     0 -8.776027291E+01 -6.603537357E+01 -8.016114814E+01  1.846979852E+02  1.250000000E+02  0.00000E+00  9.000E+00
      21     1     1     2   512   502 -3.951978373E+01 -6.740948161E+01  5.067692379E+01  9.313432300E+01  1.348699152E-06  0.00000E+00  9.000E+00
#rwgt            1           1   3.4968124121983572E-002           4      170479           0
</event>
<event>
      5   9999  3.79277E-02  5.15348E+01 -1.00000E+00  1.38330E-01
      21    -1     0     0   502   501  0.000000000E+00  0.000000000E+00  1.886398980E+02  1.886398980E+02  0.000000000E+00  0.00000E+00  9.000E+00
       1    -1     0     0   501     0  0.000000000E+00  0.000000000E+00 -1.112714124E+03  1.112714124E+03  0.000000000E+00  0.00000E+00  9.000E+00
      25     1     1     2     0     0  1.226228757E+02 -8.139703765E+01 -2.288324511E+01  1.944491972E+02  1.250000000E+02  0.00000E+00  9.000E+00
      25     1     1     2     0     0 -1.049361081E+02  3.299234576E+01  3.429234228E+01  1.700030776E+02  1.250000000E+02  0.00000E+00  9.000E+00
       1     1     1     2   502     0 -1.768676755E+01  4.840469189E+01 -9.354833235E+02  9.369017475E+02  1.525878906E-05  0.00000E+00  9.000E+00
#rwgt            1           1   4.0365888675011619E-002           4      170511           0
</event>
<event>
      5   9999  3.79277E-02  1.35141E+02 -1.00000E+00  1.18218E-01
      21    -1     0     0   511   501  0.000000000E+00  0.000000000E+00  1.262640664E+02  1.262640664E+02  0.000000000E+00  0.00000E+00  9.000E+00
      21    -1     0     0   501   502  0.000000000E+00  0.000000000E+00 -1.433248928E+03  1.433248928E+03  0.000000000E+00  0.00000E+00  9.000E+00
      25     1     1     2     0     0  8.390738395E+01  2.543896612E+02 -5.013691640E+02  5.820228410E+02  1.250000000E+02  0.00000E+00  9.000E+00
      25     1     1     2     0     0 -1.187743610E+02 -1.238242211E+02 -8.148364144E+02  8.420351352E+02  1.250000000E+02  0.00000E+00  9.000E+00
      21     1     1     2   511   502  3.486697706E+01 -1.305654401E+02  9.220717295E+00  1.354550178E+02  3.810970155E-06  0.00000E+00  9.000E+00
#rwgt            1           1   3.8744413425407874E-002           4      170560           0
</event>
<event>
      5   9999  3.79277E-02  4.31636E+01 -1.00000E+00  1.42819E-01
      21    -1     0     0   502   501  0.000000000E+00  0.000000000E+00  2.058103963E+02  2.058103963E+02  0.000000000E+00  0.00000E+00  9.000E+00
      21    -1     0     0   501   512  0.000000000E+00  0.000000000E+00 -2.678921946E+02  2.678921946E+02  0.000000000E+00  0.00000E+00  9.000E+00
      25     1     1     2     0     0 -1.470472564E+02  5.089872120E+01  6.114964472E+00  1.996896798E+02  1.250000000E+02  0.00000E+00  9.000E+00
      25     1     1     2     0     0  1.657027181E+02 -1.197483098E+01 -1.931781055E+01  2.088036522E+02  1.250000000E+02  0.00000E+00  9.000E+00
      21     1     1     2   502   512 -1.865546169E+01 -3.892389022E+01 -4.887895222E+01  6.520925893E+01  0.000000000E+00  0.00000E+00  9.000E+00
#rwgt            1           1   3.3439798225156782E-002           4      170639           0
</event>
<event>
      5   9999  3.79277E-02  4.60578E+01 -1.00000E+00  1.41142E-01
      21    -1     0     0   502   501  0.000000000E+00  0.000000000E+00  8.822388610E+02  8.822388610E+02  0.000000000E+00  0.00000E+00  9.000E+00
      21    -1     0     0   501   511  0.000000000E+00  0.000000000E+00 -8.655152406E+01  8.655152406E+01  0.000000000E+00  0.00000E+00  9.000E+00
      25     1     1     2     0     0  4.720287994E+01  1.432103711E+02  3.694984323E+02  4.182002077E+02  1.250000000E+02  0.00000E+00  9.000E+00
      25     1     1     2     0     0 -6.081314423E+01 -9.920948762E+01  4.618027831E+02  4.923693445E+02  1.250000000E+02  0.00000E+00  9.000E+00
      21     1     1     2   502   511  1.361026429E+01 -4.400088345E+01 -3.561387845E+01  5.822083284E+01  1.348699152E-06  0.00000E+00  9.000E+00
#rwgt            1           1   4.5231945309371364E-002           4      170745           0
</event>
<event>
      5   9999  3.79277E-02  5.13239E+01 -1.00000E+00  1.38431E-01
      21    -1     0     0   512   501  0.000000000E+00  0.000000000E+00  5.683554726E+01  5.683554726E+01  0.000000000E+00  0.00000E+00  9.000E+00
      21    -1     0     0   501   502  0.000000000E+00  0.000000000E+00 -1.353296155E+03  1.353296155E+03  0.000000000E+00  0.00000E+00  9.000E+00
      25     1     1     2     0     0  1.361464130E+01  1.259364579E+02 -1.385972270E+02  2.255649379E+02  1.250000000E+02  0.00000E+00  9.000E+00
      25     1     1     2     0     0 -5.914566777E+01 -1.022495808E+02 -1.061936392E+03  1.075772786E+03  1.250000000E+02  0.00000E+00  9.000E+00
      21     1     1     2   512   502  4.553102647E+01 -2.368687705E+01 -9.592698836E+01  1.087939778E+02  0.000000000E+00  0.00000E+00  9.000E+00
#rwgt            1           1   4.4468930083352391E-002           4      170965           0
</event>
<event>
      5   9999  3.79277E-02  1.48310E+01 -1.00000E+00  1.77848E-01
      21    -1     0     0   502   501  0.000000000E+00  0.000000000E+00  6.116188486E+01  6.116188486E+01  0.000000000E+00  0.00000E+00  9.000E+00
      21    -1     0     0   501   511  0.000000000E+00  0.000000000E+00 -1.143174001E+03  1.143174001E+03  0.000000000E+00  0.00000E+00  9.000E+00
      25     1     1     2     0     0  8.706628328E+01 -1.793549640E+02 -2.899117362E+02  3.733932988E+02  1.250000000E+02  0.00000E+00  9.000E+00
      25     1     1     2     0     0 -1.000738904E+02  1.722303246E+02 -7.235898730E+02  7.608451699E+02  1.250000000E+02  0.00000E+00  9.000E+00
      21     1     1     2   502   511  1.300760715E+01  7.124639399E+00 -6.851050676E+01  7.009741698E+01  0.000000000E+00  0.00000E+00  9.000E+00
#rwgt            1           1   3.9632216706300044E-002           4      171209           0
</event>
<event>
      5   9999  3.79277E-02  1.53900E+01 -1.00000E+00  1.76340E-01
      21    -1     0     0   502   501  0.000000000E+00  0.000000000E+00  1.904793326E+02  1.904793326E+02  0.000000000E+00  0.00000E+00  9.000E+00
      21    -1     0     0   512   502  0.000000000E+00  0.000000000E+00 -2.594541261E+02  2.594541261E+02  0.000000000E+00  0.00000E+00  9.000E+00
      25     1     1     2     0     0  3.811635383E+01 -1.257566133E+02 -1.077514773E+02  2.109572542E+02  1.250000000E+02  0.00000E+00  9.000E+00
      25     1     1     2     0     0 -3.397173109E+01  1.405780146E+02  7.047843877E+01  2.037362684E+02  1.250000000E+02  0.00000E+00  9.000E+00
      21     1     1     2   512   501 -4.144622735E+00 -1.482140132E+01 -3.170175496E+01  3.523993618E+01  0.000000000E+00  0.00000E+00  9.000E+00
#rwgt            1           1   4.6249681656165102E-002           4      171557           0
</event>
<event>
      5   9999  3.79277E-02  2.08729E+01 -1.00000E+00  1.64853E-01
      21    -1     0     0   511   501  0.000000000E+00  0.000000000E+00  4.030140219E+02  4.030140219E+02  0.000000000E+00  0.00000E+00  9.000E+00
      21    -1     0     0   501   502  0.000000000E+00  0.000000000E+00 -1.884641823E+02  1.884641823E+02  0.000000000E+00  0.00000E+00  9.000E+00
      25     1     1     2     0     0  8.681971195E+01 -1.742251234E+02 -3.371527044E+01  2.337814695E+02  1.250000000E+02  0.00000E+00  9.000E+00
      25     1     1     2     0     0 -6.807870262E+01  1.834150338E+02  2.052482844E+02  3.098832726E+02  1.250000000E+02  0.00000E+00  9.000E+00
      21     1     1     2   511   502 -1.874100934E+01 -9.189910358E+00  4.301682556E+01  4.781346217E+01  6.743495762E-07  0.00000E+00  9.000E+00
#rwgt            1           1   3.3891330780305901E-002           4      172086           0
</event>
<event>
      5   9999  3.79277E-02  5.07241E+01 -1.00000E+00  1.38720E-01
      21    -1     0     0   512   501  0.000000000E+00  0.000000000E+00  2.235565652E+02  2.235565652E+02  0.000000000E+00  0.00000E+00  9.000E+00
      21    -1     0     0   501   502  0.000000000E+00  0.000000000E+00 -4.359546975E+02  4.359546975E+02  0.000000000E+00  0.00000E+00  9.000E+00
      25     1     1     2     0     0 -1.874910118E+02  1.149579061E+02 -2.446348919E+02  3.519082693E+02  1.250000000E+02  0.00000E+00  9.000E+00
      25     1     1     2     0     0  1.920564432E+02 -6.443969296E+01 -1.470100610E+01  2.384937546E+02  1.250000000E+02  0.00000E+00  9.000E+00
      21     1     1     2   512   502 -4.565431383E+00 -5.051821316E+01  4.693776574E+01  6.910923873E+01  1.168007728E-06  0.00000E+00  9.000E+00
#rwgt            1           1   3.2509519222925075E-002           4      172306           0
</event>
<event>
      5   9999  3.79277E-02  3.31466E+01 -1.00000E+00  1.50091E-01
      21    -1     0     0   511   501  0.000000000E+00  0.000000000E+00  3.494233973E+02  3.494233973E+02  0.000000000E+00  0.00000E+00  9.000E+00
      21    -1     0     0   501   502  0.000000000E+00  0.000000000E+00 -2.100818200E+02  2.100818200E+02  0.000000000E+00  0.00000E+00  9.000E+00
      25     1     1     2     0     0  2.850286646E+01  6.887120947E+01  2.508682122E+02  2.900267518E+02  1.250000000E+02  0.00000E+00  9.000E+00
      25     1     1     2     0     0 -2.575325027E+01 -3.583888768E+01 -1.618570501E+02  2.092136717E+02  1.250000000E+02  0.00000E+00  9.000E+00
      21     1     1     2   511   502 -2.749616194E+00 -3.303232178E+01  5.033041516E+01  6.026479372E+01  6.743495762E-07  0.00000E+00  9.000E+00
#rwgt            1           1   4.3102950485298018E-002           4      172414           0
</event>
<event>
      5   9999  3.79277E-02  5.37629E+01 -1.00000E+00  1.37301E-01
      21    -1     0     0   512   501  0.000000000E+00  0.000000000E+00  2.495393644E+02  2.495393644E+02  0.000000000E+00  0.00000E+00  9.000E+00
      21    -1     0     0   501   502  0.000000000E+00  0.000000000E+00 -4.189573815E+02  4.189573815E+02  0.000000000E+00  0.00000E+00  9.000E+00
      25     1     1     2     0     0 -8.707043976E+01 -2.336051069E+02  3.285313392E+01  2.808147714E+02  1.250000000E+02  0.00000E+00  9.000E+00
      25     1     1     2     0     0  1.106593376E+02  1.852935119E+02 -2.184381193E+02  3.315409273E+02  1.250000000E+02  0.00000E+00  9.000E+00
      21     1     1     2   512   502 -2.358889784E+01  4.831159498E+01  1.616696829E+01  5.614104715E+01  4.129530925E-07  0.00000E+00  9.000E+00
#rwgt            1           1   3.7932035984501560E-002           4      172588           0
</event>
<event>
      5   9999  3.79277E-02  2.79084E+01 -1.00000E+00  1.55252E-01
      21    -1     0     0   502   501  0.000000000E+00  0.000000000E+00  5.462653057E+02  5.462653057E+02  0.000000000E+00  0.00000E+00  9.000E+00
      -1    -1     0     0     0   502  0.000000000E+00  0.000000000E+00 -2.118365924E+02  2.118365924E+02  0.000000000E+00  0.00000E+00  9.000E+00
      25     1     1     2     0     0 -1.077717923E+02 -1.139101935E+01  1.146885668E+02  2.013032088E+02  1.250000000E+02  0.00000E+00  9.000E+00
      25     1     1     2     0     0  8.267480092E+01  2.359842056E+01  3.721334257E+02  4.018709926E+02  1.250000000E+02  0.00000E+00  9.000E+00
      -1     1     1     2     0   501  2.509699141E+01 -1.220740121E+01 -1.523932792E+02  1.549276966E+02  3.303624740E-06  0.00000E+00  9.000E+00
#rwgt            1           1   4.3333970030198884E-002           4      172718           0
</event>
<event>
      5   9999  3.79277E-02  2.11262E+01 -1.00000E+00  1.64430E-01
      21    -1     0     0   511   501  0.000000000E+00  0.000000000E+00  4.042360271E+02  4.042360271E+02  0.000000000E+00  0.00000E+00  9.000E+00
      21    -1     0     0   501   502  0.000000000E+00  0.000000000E+00 -1.397207751E+02  1.397207751E+02  0.000000000E+00  0.00000E+00  9.000E+00
      25     1     1     2     0     0 -1.351980276E+01 -3.457860096E+01 -7.277563868E+01  1.493310359E+02  1.250000000E+02  0.00000E+00  9.000E+00
      25     1     1     2     0     0  1.605352580E+01  1.360492317E+01  1.144397296E+02  1.707754706E+02  1.250000000E+02  0.00000E+00  9.000E+00
      21     1     1     2   511   502 -2.533723041E+00  2.097367779E+01  2.228511611E+02  2.238502957E+02  3.814697266E-06  0.00000E+00  9.000E+00
#rwgt            1           1   5.6915417519012593E-002           4      172861           0
</event>
<event>
      5   9999  3.79277E-02  1.55219E+02 -1.00000E+00  1.15808E-01
      21    -1     0     0   512   501  0.000000000E+00  0.000000000E+00  5.078018458E+02  5.078018458E+02  0.000000000E+00  0.00000E+00  9.000E+00
      21    -1     0     0   501   502  0.000000000E+00  0.000000000E+00 -2.611349099E+02  2.611349099E+02  0.000000000E+00  0.00000E+00  9.000E+00
      25     1     1     2     0     0 -7.121145517E+01 -1.241907407E+02 -1.603644908E+02  2.486688185E+02  1.250000000E+02  0.00000E+00  9.000E+00
      25     1     1     2     0     0 -7.813605274E+01  8.190358175E+01  2.030951846E+02  2.639812369E+02  1.250000000E+02  0.00000E+00  9.000E+00
      21     1     1     2   512   502  1.493475079E+02  4.228715893E+01  2.039362420E+02  2.562867003E+02  3.814697266E-06  0.00000E+00  9.000E+00
#rwgt            1           1   4.6959935356720807E-002           4      173046           0
</event>
<event>
      5   9999  3.79277E-02  2.99630E+01 -1.00000E+00  1.53077E-01
       2    -1     0     0   502     0  0.000000000E+00  0.000000000E+00  8.461159406E+02  8.461159406E+02  0.000000000E+00  0.00000E+00  9.000E+00
      21    -1     0     0   501   502  0.000000000E+00  0.000000000E+00 -5.141066817E+02  5.141066817E+02  0.000000000E+00  0.00000E+00  9.000E+00
      25     1     1     2     0     0 -3.479929293E+01 -5.770569225E+01 -3.561225187E+02  3.833916875E+02  1.250000000E+02  0.00000E+00  9.000E+00
      25     1     1     2     0     0  5.795165816E+01  7.672534403E+01 -1.009073931E+02  1.872230624E+02  1.250000000E+02  0.00000E+00  9.000E+00
       2     1     1     2   501     0 -2.315236523E+01 -1.901965177E+01  7.890391707E+02  7.896078724E+02  1.525878906E-05  0.00000E+00  9.000E+00
#rwgt            1           1   4.1989145964534694E-002           4      173103           0
</event>
<event>
      5   9999  3.79277E-02  9.50660E+01 -1.00000E+00  1.24824E-01
      21    -1     0     0   502   501  0.000000000E+00  0.000000000E+00  5.554068871E+01  5.554068871E+01  0.000000000E+00  0.00000E+00  9.000E+00
      21    -1     0     0   511   502  0.000000000E+00  0.000000000E+00 -1.661730562E+03  1.661730562E+03  0.000000000E+00  0.00000E+00  9.000E+00
      25     1     1     2     0     0 -1.347489072E+02 -2.077121133E+00 -3.672160870E+02  4.106509917E+02  1.250000000E+02  0.00000E+00  9.000E+00
      25     1     1     2     0     0  2.158685617E+02  5.164669589E+01 -4.960170501E+02  5.576060716E+02  1.250000000E+02  0.00000E+00  9.000E+00
      21     1     1     2   511   501 -8.111965448E+01 -4.956957476E+01 -7.429567366E+02  7.490141878E+02  0.000000000E+00  0.00000E+00  9.000E+00
#rwgt            2          11   7.9561850046111547E-004           4      173204           0
</event>
<event>
      5   9999  3.79277E-02  3.71441E+01 -1.00000E+00  1.46864E-01
      21    -1     0     0   502   501  0.000000000E+00  0.000000000E+00  2.502873881E+02  2.502873881E+02  0.000000000E+00  0.00000E+00  9.000E+00
       1    -1     0     0   501     0  0.000000000E+00  0.000000000E+00 -3.607968138E+03  3.607968138E+03  0.000000000E+00  0.00000E+00  9.000E+00
      25     1     1     2     0     0  1.565314927E+02  3.946742717E+01  1.337098449E+02  2.440555441E+02  1.250000000E+02  0.00000E+00  9.000E+00
      25     1     1     2     0     0 -1.910628023E+02 -5.315221004E+01 -1.628187904E+02  2.854209354E+02  1.250000000E+02  0.00000E+00  9.000E+00
       1     1     1     2   502     0  3.453130964E+01  1.368478287E+01 -3.328571804E+03  3.328779046E+03  6.103515625E-05  0.00000E+00  9.000E+00
#rwgt            1           1   3.9231205495609926E-002           4      173224           0
</event>
<event>
      5   9999 -3.79277E-02  2.25812E+01 -1.00000E+00  1.62134E-01
      21    -1     0     0   502   501  0.000000000E+00  0.000000000E+00  1.423970135E+02  1.423970135E+02  0.000000000E+00  0.00000E+00  9.000E+00
      21    -1     0     0   501   511  0.000000000E+00  0.000000000E+00 -3.105518949E+02  3.105518949E+02  0.000000000E+00  0.00000E+00  9.000E+00
      25     1     1     2     0     0  1.141988555E+01 -1.437516291E+02 -9.719424606E+01  2.141650441E+02  1.250000000E+02  0.00000E+00  9.000E+00
      25     1     1     2     0     0  9.534201797E+00  1.521681212E+02 -4.118334152E+01  2.014127745E+02  1.250000000E+02  0.00000E+00  9.000E+00
      21     1     1     2   502   511 -2.095408734E+01 -8.416492078E+00 -2.977729387E+01  3.737108970E+01  0.000000000E+00  0.00000E+00  9.000E+00
#rwgt            1           1 -0.11818911465162950                4      173459           0
</event>
<event>
      5   9999 -3.79277E-02  8.55177E+01 -1.00000E+00  1.26963E-01
      21    -1     0     0   502   501  0.000000000E+00  0.000000000E+00  7.645522530E+02  7.645522530E+02  0.000000000E+00  0.00000E+00  9.000E+00
      21    -1     0     0   501   512  0.000000000E+00  0.000000000E+00 -1.713183236E+02  1.713183236E+02  0.000000000E+00  0.00000E+00  9.000E+00
      25     1     1     2     0     0  2.468412961E+02 -5.267066013E+01  3.227649177E+02  4.283771890E+02  1.250000000E+02  0.00000E+00  9.000E+00
      25     1     1     2     0     0 -3.185543369E+02  6.081853187E+00  2.335413196E+02  4.143433389E+02  1.250000000E+02  0.00000E+00  9.000E+00
      21     1     1     2   502   512  7.171304075E+01  4.658880694E+01  3.692769200E+01  9.315004875E+01  1.507891493E-06  0.00000E+00  9.000E+00
#rwgt            1           1 -0.39091438286702740                4      173646           0
</event>
<event>
      5   9999  3.79277E-02  5.30303E+00 -1.00000E+00  2.34136E-01
      21    -1     0     0   502   501  0.000000000E+00  0.000000000E+00  1.297106459E+02  1.297106459E+02  0.000000000E+00  0.00000E+00  9.000E+00
      21    -1     0     0   511   502  0.000000000E+00  0.000000000E+00 -4.167648789E+02  4.167648789E+02  0.000000000E+00  0.00000E+00  9.000E+00
      25     1     1     2     0     0  9.657671627E+01 -3.707964649E+01 -3.101067136E+02  3.499901943E+02  1.250000000E+02  0.00000E+00  9.000E+00
      25     1     1     2     0     0 -9.532908112E+01  4.223381870E+01  4.900733979E+01  1.699942602E+02  1.250000000E+02  0.00000E+00  9.000E+00
      21     1     1     2   511   501 -1.247635152E+00 -5.154172213E+00 -2.595485928E+01  2.649107028E+01  0.000000000E+00  0.00000E+00  9.000E+00
#rwgt            1           1   3.9947657401852008E-002           4      173801           0
</event>
<event>
      5   9999  3.79277E-02  2.63635E+01 -1.00000E+00  1.57043E-01
      21    -1     0     0   512   501  0.000000000E+00  0.000000000E+00  2.262064699E+03  2.262064699E+03  0.000000000E+00  0.00000E+00  9.000E+00
      21    -1     0     0   501   502  0.000000000E+00  0.000000000E+00 -8.084354208E+01  8.084354208E+01  0.000000000E+00  0.00000E+00  9.000E+00
      25     1     1     2     0     0 -4.551417365E+01  1.177444022E+02  3.600988878E+02  4.015364158E+02  1.250000000E+02  0.00000E+00  9.000E+00
      25     1     1     2     0     0  3.147418747E+01 -9.543049320E+01  4.710275875E+01  1.671564339E+02  1.250000000E+02  0.00000E+00  9.000E+00
      21     1     1     2   512   502  1.403998618E+01 -2.231390896E+01  1.774019510E+03  1.774215391E+03  0.000000000E+00  0.00000E+00  9.000E+00
#rwgt            1           1   3.5589877877991637E-002           4      174147           0
</event>
<event>
      5   9999  3.79277E-02  6.99971E+01 -1.00000E+00  1.31222E-01
      21    -1     0     0   502   501  0.000000000E+00  0.000000000E+00  3.174244071E+02  3.174244071E+02  0.000000000E+00  0.00000E+00  9.000E+00
      21    -1     0     0   511   502  0.000000000E+00  0.000000000E+00 -5.861013521E+02  5.861013521E+02  0.000000000E+00  0.00000E+00  9.000E+00
      25     1     1     2     0     0 -1.003315255E+02 -1.619562703E+02  1.839096067E+02  2.928207505E+02  1.250000000E+02  0.00000E+00  9.000E+00
      25     1     1     2     0     0  1.062941114E+02  9.221354442E+01 -4.025793299E+01  1.924772118E+02  1.250000000E+02  0.00000E+00  9.000E+00
      21     1     1     2   511   501 -5.962585879E+00  6.974272588E+01 -4.123286188E+02  4.182277969E+02  5.394796609E-06  0.00000E+00  9.000E+00
#rwgt            1           1   3.3050057148973438E-002           4      174304           0
</event>
<event>
      5   9999  3.79277E-02  1.74870E+02 -1.00000E+00  1.13813E-01
      -2    -1     0     0     0   501  0.000000000E+00  0.000000000E+00  8.679741870E+02  8.679741870E+02  0.000000000E+00  0.00000E+00  9.000E+00
      21    -1     0     0   501   502  0.000000000E+00  0.000000000E+00 -2.030803124E+02  2.030803124E+02  0.000000000E+00  0.00000E+00  9.000E+00
      25     1     1     2     0     0  9.479166717E+01 -1.404272496E+02  3.877886414E+02  4.412599041E+02  1.250000000E+02  0.00000E+00  9.000E+00
      25     1     1     2     0     0  4.488105991E+01  2.456461508E+02 -2.537719796E+01  2.804021096E+02  1.250000000E+02  0.00000E+00  9.000E+00
      -2     1     1     2     0   502 -1.396727271E+02 -1.052189011E+02  3.024824312E+02  3.493924857E+02  7.629394531E-06  0.00000E+00  9.000E+00
#rwgt            1           1   4.8609931201081966E-002           4      174370           0
</event>
<event>
      5   9999  3.79277E-02  3.99373E+01 -1.00000E+00  1.44882E-01
      21    -1     0     0   502   501  0.000000000E+00  0.000000000E+00  7.443366122E+01  7.443366122E+01  0.000000000E+00  0.00000E+00  9.000E+00
       2    -1     0     0   501     0  0.000000000E+00  0.000000000E+00 -4.470257746E+03  4.470257746E+03  0.000000000E+00  0.00000E+00  9.000E+00
      25     1     1     2     0     0 -1.770079888E+01 -9.396605206E+01 -1.040623181E+03  1.052456432E+03  1.250000000E+02  0.00000E+00  9.000E+00
      25     1     1     2     0     0  1.796508736E+01  5.402963934E+01 -5.618010289E-01  1.373581520E+02  1.250000000E+02  0.00000E+00  9.000E+00
       2     1     1     2   502     0 -2.642884793E-01  3.993641272E+01 -3.354639103E+03  3.354876823E+03  6.103515625E-05  0.00000E+00  9.000E+00
#rwgt            1           1   4.1451820280689576E-002           4      174445           0
</event>
<event>
      5   9999  3.79277E-02  4.38329E+01 -1.00000E+00  1.42418E-01
      21    -1     0     0   502   501  0.000000000E+00  0.000000000E+00  2.322722871E+02  2.322722871E+02  0.000000000E+00  0.00000E+00  9.000E+00
       1    -1     0     0   501     0  0.000000000E+00  0.000000000E+00 -4.494924031E+02  4.494924031E+02  0.000000000E+00  0.00000E+00  9.000E+00
      25     1     1     2     0     0 -1.898005054E+02  3.959116287E+01  4.234083154E+01  2.345409091E+02  1.250000000E+02  0.00000E+00  9.000E+00
      25     1     1     2     0     0  1.504306005E+02 -5.886127467E+01 -2.175015849E+01  2.054071192E+02  1.250000000E+02  0.00000E+00  9.000E+00
       1     1     1     2   502     0  3.936990485E+01  1.927011180E+01 -2.378107890E+02  2.418166620E+02  3.814697266E-06  0.00000E+00  9.000E+00
#rwgt            1           1   3.2610090353447037E-002           4      174570           0
</event>
<event>
      5   9999  3.79277E-02  2.31779E+01 -1.00000E+00  1.61253E-01
      21    -1     0     0   502   511  0.000000000E+00  0.000000000E+00  7.700092846E+02  7.700092846E+02  0.000000000E+00  0.00000E+00  9.000E+00
      21    -1     0     0   501   502  0.000000000E+00  0.000000000E+00 -2.720264569E+02  2.720264569E+02  0.000000000E+00  0.00000E+00  9.000E+00
      25     1     1     2     0     0 -2.100073041E+02 -1.265664837E+02 -1.514882608E+02  3.141589339E+02  1.250000000E+02  0.00000E+00  9.000E+00
      25     1     1     2     0     0  2.319321228E+02  1.340841607E+02  5.365603648E+02  6.126117015E+02  1.250000000E+02  0.00000E+00  9.000E+00
      21     1     1     2   501   511 -2.192481864E+01 -7.517676964E+00  1.129107238E+02  1.152651061E+02  1.348699152E-06  0.00000E+00  9.000E+00
#rwgt            1           1   5.0718950965767520E-002           4      174730           0
</event>
<event>
      5   9999  3.79277E-02  1.30082E+02 -1.00000E+00  1.18900E-01
      21    -1     0     0   502   512  0.000000000E+00  0.000000000E+00  2.044763803E+03  2.044763803E+03  0.000000000E+00  0.00000E+00  9.000E+00
      21    -1     0     0   501   502  0.000000000E+00  0.000000000E+00 -1.354470338E+02  1.354470338E+02  0.000000000E+00  0.00000E+00  9.000E+00
      25     1     1     2     0     0 -3.465329577E+01 -4.843370681E+01  4.311676198E+02  4.528544923E+02  1.250000000E+02  0.00000E+00  9.000E+00
      25     1     1     2     0     0  1.095841622E+02  1.547668114E+02 -1.587428695E+01  2.276805822E+02  1.250000000E+02  0.00000E+00  9.000E+00
      21     1     1     2   501   512 -7.493086638E+01 -1.063331046E+02  1.494023436E+03  1.499675762E+03  2.157918644E-05  0.00000E+00  9.000E+00
#rwgt            2          11   6.6673461040125622E-004           4      175062           0
</event>
<event>
      5   9999  3.79277E-02  1.04087E+02 -1.00000E+00  1.23050E-01
       2    -1     0     0   502     0  0.000000000E+00  0.000000000E+00  7.055188973E+02  7.055188973E+02  0.000000000E+00  0.00000E+00  9.000E+00
      21    -1     0     0   501   502  0.000000000E+00  0.000000000E+00 -6.313857825E+02  6.313857825E+02  0.000000000E+00  0.00000E+00  9.000E+00
      25     1     1     2     0     0 -1.648879656E+02  8.546464077E+01 -8.001017762E+01  2.377369861E+02  1.250000000E+02  0.00000E+00  9.000E+00
      25     1     1     2     0     0  1.050158510E+02 -1.706087414E+02 -4.381859396E+02  4.977625832E+02  1.250000000E+02  0.00000E+00  9.000E+00
       2     1     1     2   501     0  5.987211457E+01  8.514410063E+01  5.923292320E+02  6.014051106E+02  7.629394531E-06  0.00000E+00  9.000E+00
#rwgt            1           1   3.2874602215701224E-002           4      175187           0
</event>
<event>
      5   9999  3.79277E-02  6.12405E+01 -1.00000E+00  1.34230E-01
      21    -1     0     0   502   511  0.000000000E+00  0.000000000E+00  1.035072588E+03  1.035072588E+03  0.000000000E+00  0.00000E+00  9.000E+00
      21    -1     0     0   501   502  0.000000000E+00  0.000000000E+00 -3.156666424E+02  3.156666424E+02  0.000000000E+00  0.00000E+00  9.000E+00
      25     1     1     2     0     0  5.533984986E+01 -1.182284086E+02 -1.854184182E+02  2.589313527E+02  1.250000000E+02  0.00000E+00  9.000E+00
      25     1     1     2     0     0 -1.146285442E+02  1.335662804E+02  3.365505386E+01  2.184887115E+02  1.250000000E+02  0.00000E+00  9.000E+00
      21     1     1     2   501   511  5.928869433E+01 -1.533787183E+01  8.711693099E+02  8.733191663E+02  0.000000000E+00  0.00000E+00  9.000E+00
#rwgt            1           1   4.4202892920657127E-002           4      175337           0
</event>
<event>
      5   9999  3.79277E-02  1.16422E+02 -1.00000E+00  1.20929E-01
      21    -1     0     0   502   501  0.000000000E+00  0.000000000E+00  8.793887941E+02  8.793887941E+02  0.000000000E+00  0.00000E+00  9.000E+00
      21    -1     0     0   501   512  0.000000000E+00  0.000000000E+00 -6.179896511E+01  6.179896511E+01  0.000000000E+00  0.00000E+00  9.000E+00
      25     1     1     2     0     0  4.188550902E+01  8.002066026E+01  4.610244085E+02  4.861339395E+02  1.250000000E+02  0.00000E+00  9.000E+00
      25     1     1     2     0     0 -1.002974512E+02  2.068732590E+01  2.471288122E+02  2.952713904E+02  1.250000000E+02  0.00000E+00  9.000E+00
      21     1     1     2   502   512  5.841194222E+01 -1.007079862E+02  1.094366083E+02  1.597824293E+02  2.697398305E-06  0.00000E+00  9.000E+00
#rwgt            1           1   3.4446275552964069E-002           4      175464           0
</event>
<event>
      5   9999  3.79277E-02  6.12193E+01 -1.00000E+00  1.34238E-01
      21    -1     0     0   502   511  0.000000000E+00  0.000000000E+00  2.132801758E+02  2.132801758E+02  0.000000000E+00  0.00000E+00  9.000E+00
      21    -1     0     0   501   502  0.000000000E+00  0.000000000E+00 -2.535606655E+02  2.535606655E+02  0.000000000E+00  0.00000E+00  9.000E+00
      25     1     1     2     0     0  1.166281323E+01  1.161335484E+02  5.209490421E+01  1.787789174E+02  1.250000000E+02  0.00000E+00  9.000E+00
      25     1     1     2     0     0  4.339054758E+01 -8.935789212E+01 -1.385376266E+02  2.113888514E+02  1.250000000E+02  0.00000E+00  9.000E+00
      21     1     1     2   501   511 -5.505336080E+01 -2.677565629E+01  4.616223278E+01  7.667307246E+01  1.784161275E-06  0.00000E+00  9.000E+00
#rwgt            1           1   3.3053624255704621E-002           4      175655           0
</event>
<event>
      5   9999  3.79277E-02  4.35732E+01 -1.00000E+00  1.42573E-01
      21    -1     0     0   502   501  0.000000000E+00  0.000000000E+00  5.005261677E+02  5.005261677E+02  0.000000000E+00  0.00000E+00  9.000E+00
      21    -1     0     0   512   502  0.000000000E+00  0.000000000E+00 -1.145811589E+02  1.145811589E+02  0.000000000E+00  0.00000E+00  9.000E+00
      25     1     1     2     0     0 -9.049635651E+01 -5.155191560E+01  1.694549727E+02  2.349195146E+02  1.250000000E+02  0.00000E+00  9.000E+00
      25     1     1     2     0     0  1.332735274E+02  4.326103235E+01  2.586068877E+02  3.195870341E+02  1.250000000E+02  0.00000E+00  9.000E+00
      21     1     1     2   512   501 -4.277717087E+01  8.290883251E+00 -4.211685156E+01  6.060077787E+01  1.168007728E-06  0.00000E+00  9.000E+00
#rwgt            1           1   5.3162896658138600E-002           4      175760           0
</event>
<event>
      5   9999  3.79277E-02  7.07408E+01 -1.00000E+00  1.30990E-01
      21    -1     0     0   511   501  0.000000000E+00  0.000000000E+00  2.312003884E+03  2.312003884E+03  0.000000000E+00  0.00000E+00  9.000E+00
      21    -1     0     0   501   502  0.000000000E+00  0.000000000E+00 -2.541205806E+02  2.541205806E+02  0.000000000E+00  0.00000E+00  9.000E+00
      25     1     1     2     0     0 -1.699881071E+02 -2.373112881E+02  1.977362435E+02  3.740818440E+02  1.250000000E+02  0.00000E+00  9.000E+00
      25     1     1     2     0     0  1.584691702E+02  3.071079163E+02  3.904107800E+01  3.695631962E+02  1.250000000E+02  0.00000E+00  9.000E+00
      21     1     1     2   511   502  1.151893682E+01 -6.979662828E+01  1.821105982E+03  1.822479425E+03  2.157918644E-05  0.00000E+00  9.000E+00
#rwgt            1           1   3.7722731644652910E-002           4      175937           0
</event>
<event>
      5   9999  3.79277E-02  5.84038E+01 -1.00000E+00  1.35332E-01
      21    -1     0     0   502   501  0.000000000E+00  0.000000000E+00  4.087997348E+02  4.087997348E+02  0.000000000E+00  0.00000E+00  9.000E+00
      21    -1     0     0   501   512  0.000000000E+00  0.000000000E+00 -2.467223533E+02  2.467223533E+02  0.000000000E+00  0.00000E+00  9.000E+00
      25     1     1     2     0     0  7.588806148E-02  9.167938015E+01 -9.821698380E+01  1.835120988E+02  1.250000000E+02  0.00000E+00  9.000E+00
      25     1     1     2     0     0  3.489354131E+01 -1.384569476E+02  3.302428805E+02  3.808848195E+02  1.250000000E+02  0.00000E+00  9.000E+00
      21     1     1     2   502   512 -3.496942937E+01  4.677756746E+01 -6.994851514E+01  9.112516984E+01  1.348699152E-06  0.00000E+00  9.000E+00
#rwgt            1           1   3.7942816322579447E-002           4      176020           0
</event>
<event>
      5   9999  3.79277E-02  6.11868E+01 -1.00000E+00  1.34250E-01
      21    -1     0     0   502   501  0.000000000E+00  0.000000000E+00  1.020341552E+03  1.020341552E+03  0.000000000E+00  0.00000E+00  9.000E+00
      21    -1     0     0   511   502  0.000000000E+00  0.000000000E+00 -1.463142005E+02  1.463142005E+02  0.000000000E+00  0.00000E+00  9.000E+00
      25     1     1     2     0     0 -1.843898205E+01  1.975348467E+02  7.329478315E+02  7.695437190E+02  1.250000000E+02  0.00000E+00  9.000E+00
      25     1     1     2     0     0 -1.740476824E+01 -2.471237124E+02  1.741034094E+02  3.275821307E+02  1.250000000E+02  0.00000E+00  9.000E+00
      21     1     1     2   511   501  3.584375029E+01  4.958886571E+01 -3.302388983E+01  6.952990246E+01  1.348699152E-06  0.00000E+00  9.000E+00
#rwgt            1           1   3.6004603955614771E-002           4      176225           0
</event>
<event>
      5   9999  3.79277E-02  8.62000E+01 -1.00000E+00  1.26800E-01
      21    -1     0     0   502   501  0.000000000E+00  0.000000000E+00  6.632988704E+01  6.632988704E+01  0.000000000E+00  0.00000E+00  9.000E+00
       2    -1     0     0   501     0  0.000000000E+00  0.000000000E+00 -1.797140348E+03  1.797140348E+03  0.000000000E+00  0.00000E+00  9.000E+00
      25     1     1     2     0     0  1.348286566E+02 -1.088342680E+02 -3.826902323E+02  4.382926858E+02  1.250000000E+02  0.00000E+00  9.000E+00
      25     1     1     2     0     0 -1.988166353E+02  5.107628959E+01 -3.572726128E+02  4.305874612E+02  1.250000000E+02  0.00000E+00  9.000E+00
       2     1     1     2   502     0  6.398797873E+01  5.775797837E+01 -9.908476157E+02  9.945900879E+02  0.000000000E+00  0.00000E+00  9.000E+00
#rwgt            2          13   5.2680359869243889E-004           4      176403           0
</event>
<event>
      5   9999  3.79277E-02  6.79614E+01 -1.00000E+00  1.31874E-01
       2    -1     0     0   502     0  0.000000000E+00  0.000000000E+00  2.951794140E+02  2.951794140E+02  0.000000000E+00  0.00000E+00  9.000E+00
      21    -1     0     0   501   502  0.000000000E+00  0.000000000E+00 -1.464584686E+03  1.464584686E+03  0.000000000E+00  0.00000E+00  9.000E+00
      25     1     1     2     0     0  2.260524339E+02 -1.445377037E-01 -3.416504822E+02  4.283103732E+02  1.250000000E+02  0.00000E+00  9.000E+00
      25     1     1     2     0     0 -1.960273532E+02  6.111372809E+01 -1.061319194E+03  1.088202666E+03  1.250000000E+02  0.00000E+00  9.000E+00
       2     1     1     2   501     0 -3.002508075E+01 -6.096919038E+01  2.335644042E+02  2.432510608E+02  6.607249480E-06  0.00000E+00  9.000E+00
#rwgt            1           1   4.0511219133173765E-002           4      176467           0
</event>
<event>
      5   9999  3.79277E-02  1.98418E+01 -1.00000E+00  1.66654E-01
      21    -1     0     0   502   501  0.000000000E+00  0.000000000E+00  7.201309647E+01  7.201309647E+01  0.000000000E+00  0.00000E+00  9.000E+00
       1    -1     0     0   501     0  0.000000000E+00  0.000000000E+00 -1.123770171E+03  1.123770171E+03  0.000000000E+00  0.00000E+00  9.000E+00
      25     1     1     2     0     0  1.389670386E+02  7.990257305E+01 -1.406512158E+02  2.471922804E+02  1.250000000E+02  0.00000E+00  9.000E+00
      25     1     1     2     0     0 -1.587171847E+02 -7.799780278E+01 -6.185951098E+02  6.554080499E+02  1.250000000E+02  0.00000E+00  9.000E+00
       1     1     1     2   502     0  1.975014619E+01 -1.904770266E+00 -2.925107490E+02  2.931829372E+02  5.394796609E-06  0.00000E+00  9.000E+00
#rwgt            1           1   4.6438949031513001E-002           4      176722           0
</event>
<event>
      5   9999 -3.79277E-02  2.00024E+02 -1.00000E+00  1.11646E-01
      21    -1     0     0   502   501  0.000000000E+00  0.000000000E+00  2.214138621E+02  2.214138621E+02  0.000000000E+00  0.00000E+00  9.000E+00
      21    -1     0     0   511   502  0.000000000E+00  0.000000000E+00 -4.824744097E+02  4.824744097E+02  0.000000000E+00  0.00000E+00  9.000E+00
      25     1     1     2     0     0  1.064861417E+02  1.827287156E+02  1.493930903E+01  2.461244906E+02  1.250000000E+02  0.00000E+00  9.000E+00
      25     1     1     2     0     0 -9.879696959E+01  1.714698731E+01 -1.604240825E+02  2.267504060E+02  1.250000000E+02  0.00000E+00  9.000E+00
      21     1     1     2   511   501 -7.689172142E+00 -1.998757029E+02 -1.155757741E+02  2.310133753E+02  1.348699152E-06  0.00000E+00  9.000E+00
#rwgt            1           1  -7.9235902467650290E-002           4      177025           0
</event>
<event>
      5   9999  3.79277E-02  4.99169E+01 -1.00000E+00  1.39117E-01
      21    -1     0     0   502   512  0.000000000E+00  0.000000000E+00  9.001261716E+01  9.001261716E+01  0.000000000E+00  0.00000E+00  9.000E+00
      21    -1     0     0   501   502  0.000000000E+00  0.000000000E+00 -6.666175523E+02  6.666175523E+02  0.000000000E+00  0.00000E+00  9.000E+00
      25     1     1     2     0     0  9.488997550E+01 -1.198536040E+02 -1.876438093E+02  2.724044658E+02  1.250000000E+02  0.00000E+00  9.000E+00
      25     1     1     2     0     0 -5.683620047E+01  8.754863692E+01 -4.010614964E+02  4.328630747E+02  1.250000000E+02  0.00000E+00  9.000E+00
      21     1     1     2   501   512 -3.805377503E+01  3.230496704E+01  1.210037054E+01  5.136262899E+01  9.830249847E-07  0.00000E+00  9.000E+00
#rwgt            1           1   5.6554298367058969E-002           4      177098           0
</event>
<event>
      5   9999  3.79277E-02  6.77013E+01 -1.00000E+00  1.31959E-01
      21    -1     0     0   502   501  0.000000000E+00  0.000000000E+00  4.176872853E+01  4.176872853E+01  0.000000000E+00  0.00000E+00  9.000E+00
       2    -1     0     0   501     0  0.000000000E+00  0.000000000E+00 -2.919058930E+03  2.919058930E+03  0.000000000E+00  0.00000E+00  9.000E+00
      25     1     1     2     0     0  1.479795910E+02  1.171427248E+02 -3.851626276E+02  4.467612640E+02  1.250000000E+02  0.00000E+00  9.000E+00
      25     1     1     2     0     0 -1.772537375E+02 -5.609768862E+01 -1.237645403E+03  1.257758714E+03  1.250000000E+02  0.00000E+00  9.000E+00
       2     1     1     2   502     0  2.927414654E+01 -6.104503617E+01 -1.254482170E+03  1.256307680E+03  1.525878906E-05  0.00000E+00  9.000E+00
#rwgt            1           1   4.4412263929587033E-002           4      177301           0
</event>
<event>
      5   9999  3.79277E-02  1.85505E+01 -1.00000E+00  1.69111E-01
      -4    -1     0     0     0   501  0.000000000E+00  0.000000000E+00  9.953956276E+02  9.953956276E+02  0.000000000E+00  0.00000E+00  9.000E+00
      21    -1     0     0   501   502  0.000000000E+00  0.000000000E+00 -1.216181348E+02  1.216181348E+02  0.000000000E+00  0.00000E+00  9.000E+00
      25     1     1     2     0     0 -7.624744699E+01 -8.815489029E+01  3.376494169E+01  1.742125975E+02  1.250000000E+02  0.00000E+00  9.000E+00
      25     1     1     2     0     0  6.002678660E+01  9.715541946E+01  8.847967183E+01  1.910393754E+02  1.250000000E+02  0.00000E+00  9.000E+00
      -4     1     1     2     0   502  1.622066039E+01 -9.000529171E+00  7.515328793E+02  7.517617894E+02  0.000000000E+00  0.00000E+00  9.000E+00
#rwgt            1           1   4.4725850005113262E-002           4      177486           0
</event>
<event>
      5   9999  3.79277E-02  7.44462E+01 -1.00000E+00  1.29880E-01
      21    -1     0     0   502   501  0.000000000E+00  0.000000000E+00  1.668607117E+02  1.668607117E+02  0.000000000E+00  0.00000E+00  9.000E+00
      21    -1     0     0   501   511  0.000000000E+00  0.000000000E+00 -4.887623630E+02  4.887623630E+02  0.000000000E+00  0.00000E+00  9.000E+00
      25     1     1     2     0     0  2.297531721E+02 -3.130614326E+01 -9.159969071E+01  2.788944210E+02  1.250000000E+02  0.00000E+00  9.000E+00
      25     1     1     2     0     0 -1.761553680E+02 -2.036119973E+01 -1.339854414E+02  2.549948836E+02  1.250000000E+02  0.00000E+00  9.000E+00
      21     1     1     2   502   511 -5.359780409E+01  5.166734299E+01 -9.631651917E+01  1.217337702E+02  1.348699152E-06  0.00000E+00  9.000E+00
#rwgt            1           1   4.1888935923769473E-002           4      177619           0
</event>
<event>
      5   9999  3.79277E-02  1.66172E+01 -1.00000E+00  1.73294E-01
      21    -1     0     0   502   501  0.000000000E+00  0.000000000E+00  1.183516045E+02  1.183516045E+02  0.000000000E+00  0.00000E+00  9.000E+00
      21    -1     0     0   501   512  0.000000000E+00  0.000000000E+00 -1.003286735E+03  1.003286735E+03  0.000000000E+00  0.00000E+00  9.000E+00
      25     1     1     2     0     0  7.779012362E+01 -1.190823748E+02  2.011927155E+01  1.904250519E+02  1.250000000E+02  0.00000E+00  9.000E+00
      25     1     1     2     0     0 -6.631707534E+01  1.070615422E+02 -5.995227421E+02  6.252300749E+02  1.250000000E+02  0.00000E+00  9.000E+00
      21     1     1     2   502   512 -1.147304829E+01  1.202083259E+01 -3.055316598E+02  3.059832126E+02  5.394796609E-06  0.00000E+00  9.000E+00
#rwgt            1           1   3.1219683145587786E-002           4      177687           0
</event>
<event>
      5   9999  3.79277E-02  3.63410E+01 -1.00000E+00  1.47472E-01
      21    -1     0     0   511   501  0.000000000E+00  0.000000000E+00  3.918695214E+02  3.918695214E+02  0.000000000E+00  0.00000E+00  9.000E+00
      21    -1     0     0   501   502  0.000000000E+00  0.000000000E+00 -3.628335757E+02  3.628335757E+02  0.000000000E+00  0.00000E+00  9.000E+00
      25     1     1     2     0     0 -8.593420083E+01 -1.414358827E+02 -1.883276495E+02  2.801447829E+02  1.250000000E+02  0.00000E+00  9.000E+00
      25     1     1     2     0     0  4.974122574E+01  1.381591647E+02 -5.440772024E+01  2.003680223E+02  1.250000000E+02  0.00000E+00  9.000E+00
      21     1     1     2   511   502  3.619297509E+01  3.276717975E+00  2.717713155E+02  2.741902920E+02  0.000000000E+00  0.00000E+00  9.000E+00
#rwgt            1           1   4.6072407051398895E-002           4      177876           0
</event>
<event>
      5   9999  3.79277E-02  5.13557E+01 -1.00000E+00  1.38416E-01
      21    -1     0     0   502   501  0.000000000E+00  0.000000000E+00  7.732475062E+02  7.732475062E+02  0.000000000E+00  0.00000E+00  9.000E+00
      21    -1     0     0   512   502  0.000000000E+00  0.000000000E+00 -3.130696804E+02  3.130696804E+02  0.000000000E+00  0.00000E+00  9.000E+00
      25     1     1     2     0     0  5.601969519E+01 -1.715502510E+02  9.146093366E+01  2.378188329E+02  1.250000000E+02  0.00000E+00  9.000E+00
      25     1     1     2     0     0 -2.201924140E+01  2.100388624E+02  5.806766437E+02  6.304058496E+02  1.250000000E+02  0.00000E+00  9.000E+00
      21     1     1     2   512   501 -3.400045380E+01 -3.848861135E+01 -2.119597515E+02  2.180925041E+02  4.672030912E-06  0.00000E+00  9.000E+00
#rwgt            1           1   3.6420391651723498E-002           4      177988           0
</event>
<event>
      5   9999  3.79277E-02  2.19202E+02 -1.00000E+00  1.10218E-01
      21    -1     0     0   502   511  0.000000000E+00  0.000000000E+00  1.045205895E+03  1.045205895E+03  0.000000000E+00  0.00000E+00  9.000E+00
      21    -1     0     0   501   502  0.000000000E+00  0.000000000E+00 -4.192485427E+02  4.192485427E+02  0.000000000E+00  0.00000E+00  9.000E+00
      25     1     1     2     0     0  1.661412069E+02  8.961390334E+01  2.124824496E+01  2.273984173E+02  1.250000000E+02  0.00000E+00  9.000E+00
      25     1     1     2     0     0 -3.888750794E+01  8.886831835E+01 -2.821621762E+02  3.234970015E+02  1.250000000E+02  0.00000E+00  9.000E+00
      21     1     1     2   501   511 -1.272536989E+02 -1.784822217E+02  8.868712832E+02  9.135590185E+02  0.000000000E+00  0.00000E+00  9.000E+00
#rwgt            2          11   3.4241613441917183E-003           4      178221           0
</event>
<event>
      5   9999 -3.79277E-02  1.77605E+02 -1.00000E+00  1.13558E-01
      21    -1     0     0   512   501  0.000000000E+00  0.000000000E+00  2.505260929E+02  2.505260929E+02  0.000000000E+00  0.00000E+00  9.000E+00
      21    -1     0     0   501   502  0.000000000E+00  0.000000000E+00 -1.851397715E+03  1.851397715E+03  0.000000000E+00  0.00000E+00  9.000E+00
      25     1     1     2     0     0 -4.114513404E+01 -1.271438813E+02 -1.239681716E+03  1.253113820E+03  1.250000000E+02  0.00000E+00  9.000E+00
      25     1     1     2     0     0  2.184223299E+02  1.379306586E+02 -5.306815861E+02  6.033084838E+02  1.250000000E+02  0.00000E+00  9.000E+00
      21     1     1     2   512   502 -1.772771959E+02 -1.078677731E+01  1.694916803E+02  2.455015039E+02  1.191138839E-05  0.00000E+00  9.000E+00
#rwgt            1           1 -0.57093031445051134                4      178361           0
</event>
<event>
      5   9999  3.79277E-02  2.18796E+01 -1.00000E+00  1.63214E-01
      21    -1     0     0   502   501  0.000000000E+00  0.000000000E+00  4.050884909E+02  4.050884909E+02  0.000000000E+00  0.00000E+00  9.000E+00
      21    -1     0     0   511   502  0.000000000E+00  0.000000000E+00 -2.599636529E+02  2.599636529E+02  0.000000000E+00  0.00000E+00  9.000E+00
      25     1     1     2     0     0 -2.146721746E+02  8.535389510E+01  6.875892960E+01  2.715183610E+02  1.250000000E+02  0.00000E+00  9.000E+00
      25     1     1     2     0     0  2.206391238E+02 -6.430367408E+01  1.602840157E+02  3.068102853E+02  1.250000000E+02  0.00000E+00  9.000E+00
      21     1     1     2   511   501 -5.966949242E+00 -2.105022102E+01 -8.391810731E+01  8.672349752E+01  9.536743164E-07  0.00000E+00  9.000E+00
#rwgt            1           1   3.7049422247829013E-002           4      178401           0
</event>
<event>
      5   9999  3.79277E-02  3.19898E+01 -1.00000E+00  1.51128E-01
      21    -1     0     0   502   501  0.000000000E+00  0.000000000E+00  1.509064121E+02  1.509064121E+02  0.000000000E+00  0.00000E+00  9.000E+00
      21    -1     0     0   512   502  0.000000000E+00  0.000000000E+00 -4.093383350E+02  4.093383350E+02  0.000000000E+00  0.00000E+00  9.000E+00
      25     1     1     2     0     0  2.849904362E+01 -5.486672872E+01  8.602408286E+01  1.638526663E+02  1.250000000E+02  0.00000E+00  9.000E+00
      25     1     1     2     0     0 -2.381351574E+01  8.651154667E+01 -2.239804700E+02  2.717417564E+02  1.250000000E+02  0.00000E+00  9.000E+00
      21     1     1     2   512   501 -4.685527883E+00 -3.164481795E+01 -1.204755358E+02  1.246503245E+02  1.348699152E-06  0.00000E+00  9.000E+00
#rwgt            1           1   4.5456317323874645E-002           4      178566           0
</event>
<event>
      5   9999  3.79277E-02  1.91454E+01 -1.00000E+00  1.67949E-01
      21    -1     0     0   511   501  0.000000000E+00  0.000000000E+00  7.185896271E+02  7.185896271E+02  0.000000000E+00  0.00000E+00  9.000E+00
      21    -1     0     0   501   502  0.000000000E+00  0.000000000E+00 -1.372917289E+02  1.372917289E+02  0.000000000E+00  0.00000E+00  9.000E+00
      25     1     1     2     0     0  5.645229740E+01 -6.071538950E+00  8.087956915E+01  1.593431209E+02  1.250000000E+02  0.00000E+00  9.000E+00
      25     1     1     2     0     0 -5.930524655E+01 -1.286008764E+01 -4.858548744E+01  1.472006920E+02  1.250000000E+02  0.00000E+00  9.000E+00
      21     1     1     2   511   502  2.852949149E+00  1.893162659E+01  5.490038164E+02  5.493375431E+02  7.629394531E-06  0.00000E+00  9.000E+00
#rwgt            1           1   3.6000464437504952E-002           4      178671           0
</event>
<event>
      5   9999  3.79277E-02  1.71297E+01 -1.00000E+00  1.72119E-01
      21    -1     0     0   502   501  0.000000000E+00  0.000000000E+00  3.002829757E+02  3.002829757E+02  0.000000000E+00  0.00000E+00  9.000E+00
      21    -1     0     0   512   502  0.000000000E+00  0.000000000E+00 -1.295135901E+02  1.295135901E+02  0.000000000E+00  0.00000E+00  9.000E+00
      25     1     1     2     0     0 -4.192716493E+01  6.012731937E+01  6.751159797E+00  1.450646747E+02  1.250000000E+02  0.00000E+00  9.000E+00
      25     1     1     2     0     0  4.175002917E+01 -4.299855407E+01  2.008888721E+02  2.440763805E+02  1.250000000E+02  0.00000E+00  9.000E+00
      21     1     1     2   512   501  1.771357606E-01 -1.712876531E+01 -3.687064632E+01  4.065551055E+01  4.768371582E-07  0.00000E+00  9.000E+00
#rwgt            1           1   2.7919189657132717E-002           4      178845           0
</event>
<event>
      5   9999  3.79277E-02  7.77455E+01 -1.00000E+00  1.28953E-01
      21    -1     0     0   502   501  0.000000000E+00  0.000000000E+00  3.649077745E+02  3.649077745E+02  0.000000000E+00  0.00000E+00  9.000E+00
      21    -1     0     0   511   502  0.000000000E+00  0.000000000E+00 -3.240624256E+02  3.240624256E+02  0.000000000E+00  0.00000E+00  9.000E+00
      25     1     1     2     0     0 -1.335107777E+01  8.897586999E+01  2.166395650E+02  2.658056769E+02  1.250000000E+02  0.00000E+00  9.000E+00
      25     1     1     2     0     0 -4.084125889E+00 -1.647411549E+02  2.452696940E+01  2.082856223E+02  1.250000000E+02  0.00000E+00  9.000E+00
      21     1     1     2   511   501  1.743520366E+01  7.576528495E+01 -2.003211855E+02  2.148789010E+02  3.814697266E-06  0.00000E+00  9.000E+00
#rwgt            1           1   3.4829794432432400E-002           4      179037           0
</event>
<event>
      5   9999  3.79277E-02  3.58230E+01 -1.00000E+00  1.47875E-01
      21    -1     0     0   502   501  0.000000000E+00  0.000000000E+00  5.547964347E+01  5.547964347E+01  0.000000000E+00  0.00000E+00  9.000E+00
      21    -1     0     0   512   502  0.000000000E+00  0.000000000E+00 -7.765332338E+02  7.765332338E+02  0.000000000E+00  0.00000E+00  9.000E+00
      25     1     1     2     0     0  6.861530811E+01  1.145799483E+02 -2.372403414E+02  2.995740387E+02  1.250000000E+02  0.00000E+00  9.000E+00
      25     1     1     2     0     0 -3.515659656E+01 -1.273783688E+02 -3.570776598E+02  4.007376826E+02  1.250000000E+02  0.00000E+00  9.000E+00
      21     1     1     2   512   501 -3.345871156E+01  1.279842048E+01 -1.267355891E+02  1.317011560E+02  0.000000000E+00  0.00000E+00  9.000E+00
#rwgt            1           1   3.4453231653711891E-002           4      179392           0
</event>
<event>
      5   9999  3.79277E-02  1.05959E+02 -1.00000E+00  1.22708E-01
       2    -1     0     0   502     0  0.000000000E+00  0.000000000E+00  1.491352736E+03  1.491352736E+03  0.000000000E+00  0.00000E+00  9.000E+00
      21    -1     0     0   501   502  0.000000000E+00  0.000000000E+00 -4.896174422E+01  4.896174422E+01  0.000000000E+00  0.00000E+00  9.000E+00
      25     1     1     2     0     0  1.152006552E+02 -1.067087007E+02  3.683841346E+02  4.195113924E+02  1.250000000E+02  0.00000E+00  9.000E+00
      25     1     1     2     0     0 -1.003304879E+01  1.196335903E+02  3.665902915E+02  4.054951292E+02  1.250000000E+02  0.00000E+00  9.000E+00
       2     1     1     2   501     0 -1.051676064E+02 -1.292488959E+01  7.074165657E+02  7.153079586E+02  7.629394531E-06  0.00000E+00  9.000E+00
#rwgt            1           1   3.1913964624461277E-002           4      179543           0
</event>
<event>
      5   9999  3.79277E-02  5.92628E+01 -1.00000E+00  1.34991E-01
       3    -1     0     0   502     0  0.000000000E+00  0.000000000E+00  2.906664073E+02  2.906664073E+02  0.000000000E+00  0.00000E+00  9.000E+00
      21    -1     0     0   501   502  0.000000000E+00  0.000000000E+00 -2.227739532E+02  2.227739532E+02  0.000000000E+00  0.00000E+00  9.000E+00
      25     1     1     2     0     0  6.898265835E+01  1.193944798E+02  1.072295879E+01  1.864232572E+02  1.250000000E+02  0.00000E+00  9.000E+00
      25     1     1     2     0     0 -2.705824278E+01 -1.612803392E+02 -4.332844779E+01  2.103469769E+02  1.250000000E+02  0.00000E+00  9.000E+00
       3     1     1     2   501     0 -4.192441557E+01  4.188585937E+01  1.004979431E+02  1.166701264E+02  1.348699152E-06  0.00000E+00  9.000E+00
#rwgt            1           1   3.0903333174457807E-002           4      179601           0
</event>
<event>
      5   9999  3.79277E-02  4.84829E+01 -1.00000E+00  1.39843E-01
      21    -1     0     0   511   501  0.000000000E+00  0.000000000E+00  8.534082854E+02  8.534082854E+02  0.000000000E+00  0.00000E+00  9.000E+00
      21    -1     0     0   501   502  0.000000000E+00  0.000000000E+00 -8.989172032E+01  8.989172032E+01  0.000000000E+00  0.00000E+00  9.000E+00
      25     1     1     2     0     0  3.900190990E+01 -8.273214115E+01  5.055353509E+01  1.629307094E+02  1.250000000E+02  0.00000E+00  9.000E+00
      25     1     1     2     0     0 -5.484327158E+01  1.285540388E+02  2.382476488E+02  3.031845436E+02  1.250000000E+02  0.00000E+00  9.000E+00
      21     1     1     2   511   502  1.584136168E+01 -4.582189770E+01  4.747153812E+02  4.771847527E+02  7.629394531E-06  0.00000E+00  9.000E+00
#rwgt            1           1   3.9715071799628569E-002           4      179732           0
</event>
<event>
      5   9999  3.79277E-02  3.54079E+01 -1.00000E+00  1.48203E-01
      21    -1     0     0   512   501  0.000000000E+00  0.000000000E+00  1.587435326E+02  1.587435326E+02  0.000000000E+00  0.00000E+00  9.000E+00
      21    -1     0     0   501   502  0.000000000E+00  0.000000000E+00 -2.232708748E+02  2.232708748E+02  0.000000000E+00  0.00000E+00  9.000E+00
      25     1     1     2     0     0  5.096929915E+01  2.196458244E+01 -5.384302428E+01  1.469842971E+02  1.250000000E+02  0.00000E+00  9.000E+00
      25     1     1     2     0     0 -7.250161490E+01  6.143764073E+00 -7.401526233E+01  1.624730410E+02  1.250000000E+02  0.00000E+00  9.000E+00
      21     1     1     2   512   502  2.153231575E+01 -2.810834651E+01  6.333094444E+01  7.255706919E+01  6.743495762E-07  0.00000E+00  9.000E+00
#rwgt            1           1   3.4311873821433143E-002           4      179872           0
</event>
<event>
      5   9999  3.79277E-02  1.11567E+01 -1.00000E+00  1.90418E-01
      21    -1     0     0   502   501  0.000000000E+00  0.000000000E+00  7.997520683E+01  7.997520683E+01  0.000000000E+00  0.00000E+00  9.000E+00
      21    -1     0     0   511   502  0.000000000E+00  0.000000000E+00 -9.847634477E+02  9.847634477E+02  0.000000000E+00  0.00000E+00  9.000E+00
      25     1     1     2     0     0  1.169583592E+01 -1.349500432E+02 -1.629381746E+02  2.460125108E+02  1.250000000E+02  0.00000E+00  9.000E+00
      25     1     1     2     0     0 -2.279338658E+01  1.360973699E+02 -1.874212347E+02  2.641850711E+02  1.250000000E+02  0.00000E+00  9.000E+00
      21     1     1     2   511   501  1.109755066E+01 -1.147326730E+00 -5.544288315E+02  5.545410726E+02  7.629394531E-06  0.00000E+00  9.000E+00
#rwgt            1           1   3.3890539553231271E-002           4      179975           0
</event>
<event>
      5   9999  3.79277E-02  8.41828E+01 -1.00000E+00  1.27287E-01
      21    -1     0     0   512   501  0.000000000E+00  0.000000000E+00  1.443783502E+02  1.443783502E+02  0.000000000E+00  0.00000E+00  9.000E+00
      21    -1     0     0   501   502  0.000000000E+00  0.000000000E+00 -3.800010803E+02  3.800010803E+02  0.000000000E+00  0.00000E+00  9.000E+00
      25     1     1     2     0     0  3.242536512E+01  1.708848541E+02 -1.643112130E+02  2.699559453E+02  1.250000000E+02  0.00000E+00  9.000E+00
      25     1     1     2     0     0  5.774354838E+00 -9.586799884E+01 -6.326412368E+01  1.698568978E+02  1.250000000E+02  0.00000E+00  9.000E+00
      21     1     1     2   512   502 -3.819971996E+01 -7.501685523E+01 -8.047393317E+00  8.456658745E+01  6.951036328E-07  0.00000E+00  9.000E+00
#rwgt            1           1   4.0135825631101817E-002           4      180172           0
</event>
<event>
      5   9999  3.79277E-02  5.71604E+01 -1.00000E+00  1.35838E-01
      21    -1     0     0   502   501  0.000000000E+00  0.000000000E+00  4.331935894E+02  4.331935894E+02  0.000000000E+00  0.00000E+00  9.000E+00
      21    -1     0     0   511   502  0.000000000E+00  0.000000000E+00 -2.510655599E+02  2.510655599E+02  0.000000000E+00  0.00000E+00  9.000E+00
      25     1     1     2     0     0 -1.281769232E+02  1.022994829E+02  1.045091538E+02  2.311745468E+02  1.250000000E+02  0.00000E+00  9.000E+00
      25     1     1     2     0     0  8.413939704E+01 -1.387412445E+02  2.194391314E+02  3.001784527E+02  1.250000000E+02  0.00000E+00  9.000E+00
      21     1     1     2   511   501  4.403752618E+01  3.644176161E+01 -1.418202558E+02  1.529061498E+02  1.907348633E-06  0.00000E+00  9.000E+00
#rwgt            1           1   3.7356034677250294E-002           4      180262           0
</event>
<event>
      5   9999  3.79277E-02  6.06629E+01 -1.00000E+00  1.34449E-01
      21    -1     0     0   502   501  0.000000000E+00  0.000000000E+00  5.000500880E+02  5.000500880E+02  0.000000000E+00  0.00000E+00  9.000E+00
      21    -1     0     0   501   512  0.000000000E+00  0.000000000E+00 -2.447204391E+02  2.447204391E+02  0.000000000E+00  0.00000E+00  9.000E+00
      25     1     1     2     0     0  9.066993576E+01  1.301466345E+01  3.438773985E+02  3.771830907E+02  1.250000000E+02  0.00000E+00  9.000E+00
      25     1     1     2     0     0 -1.505974647E+02 -3.598040822E+00  6.195482193E+01  2.053191229E+02  1.250000000E+02  0.00000E+00  9.000E+00
      21     1     1     2   502   512  5.992752896E+01 -9.416622631E+00 -1.505025715E+02  1.622683135E+02  3.814697266E-06  0.00000E+00  9.000E+00
#rwgt            1           1   4.5246775351604124E-002           4      180367           0
</event>
<event>
      5   9999  3.79277E-02  8.23204E+01 -1.00000E+00  1.27751E-01
      21    -1     0     0   511   501  0.000000000E+00  0.000000000E+00  1.548108938E+03  1.548108938E+03  0.000000000E+00  0.00000E+00  9.000E+00
      21    -1     0     0   501   502  0.000000000E+00  0.000000000E+00 -4.101773845E+01  4.101773845E+01  0.000000000E+00  0.00000E+00  9.000E+00
      25     1     1     2     0     0 -1.316880107E+02 -1.746529375E+01  8.157141028E+02  8.358595972E+02  1.250000000E+02  0.00000E+00  9.000E+00
      25     1     1     2     0     0  1.207826213E+02  9.906011054E+01  3.604063558E+02  4.122124311E+02  1.250000000E+02  0.00000E+00  9.000E+00
      21     1     1     2   511   502  1.090538944E+01 -8.159481678E+01  3.309707406E+02  3.410546478E+02  6.607249480E-06  0.00000E+00  9.000E+00
#rwgt            1           1   3.1649922559197796E-002           4      180431           0
</event>
<event>
      5   9999  3.79277E-02  1.72014E+01 -1.00000E+00  1.71958E-01
      21    -1     0     0   502   512  0.000000000E+00  0.000000000E+00  2.448817158E+02  2.448817158E+02  0.000000000E+00  0.00000E+00  9.000E+00
      21    -1     0     0   501   502  0.000000000E+00  0.000000000E+00 -2.294795665E+02  2.294795665E+02  0.000000000E+00  0.00000E+00  9.000E+00
      25     1     1     2     0     0 -4.935865420E+01  9.898051320E+01  1.522769544E+02  2.259351446E+02  1.250000000E+02  0.00000E+00  9.000E+00
      25     1     1     2     0     0  3.262605067E+01 -1.029690946E+02 -1.527643016E+02  2.250089453E+02  1.250000000E+02  0.00000E+00  9.000E+00
      21     1     1     2   501   512  1.673260353E+01  3.988581399E+00  1.588949646E+01  2.341719240E+01  2.384185791E-07  0.00000E+00  9.000E+00
#rwgt            1           1   3.2926150535603868E-002           4      180486           0
</event>
<event>
      5   9999  3.79277E-02  5.18772E+01 -1.00000E+00  1.38168E-01
      21    -1     0     0   511   501  0.000000000E+00  0.000000000E+00  1.184060029E+02  1.184060029E+02  0.000000000E+00  0.00000E+00  9.000E+00
      21    -1     0     0   501   502  0.000000000E+00  0.000000000E+00 -4.594346061E+02  4.594346061E+02  0.000000000E+00  0.00000E+00  9.000E+00
      25     1     1     2     0     0  5.428802388E+01  1.272765413E+02 -1.795815887E+01  1.873339344E+02  1.250000000E+02  0.00000E+00  9.000E+00
      25     1     1     2     0     0 -4.095864615E+01 -7.714103231E+01 -2.936107945E+02  3.308483764E+02  1.250000000E+02  0.00000E+00  9.000E+00
      21     1     1     2   511   502 -1.332937773E+01 -5.013550904E+01 -2.945964982E+01  5.965829821E+01  1.066240300E-06  0.00000E+00  9.000E+00
#rwgt            1           1   4.3498357376064979E-002           4      180662           0
</event>
<event>
      5   9999 -3.79277E-02  5.16493E+01 -1.00000E+00  1.38276E-01
      21    -1     0     0   502   501  0.000000000E+00  0.000000000E+00  6.562426685E+02  6.562426685E+02  0.000000000E+00  0.00000E+00  9.000E+00
      21    -1     0     0   512   502  0.000000000E+00  0.000000000E+00 -1.993246464E+02  1.993246464E+02  0.000000000E+00  0.00000E+00  9.000E+00
      25     1     1     2     0     0  1.630347559E+02 -1.542253295E+02  5.115180199E+02  5.723997454E+02  1.250000000E+02  0.00000E+00  9.000E+00
      25     1     1     2     0     0 -1.114887511E+02  1.509596923E+02 -5.227769808E+01  2.314660408E+02  1.250000000E+02  0.00000E+00  9.000E+00
      21     1     1     2   512   501 -5.154600477E+01  3.265637189E+00 -2.322299800E+00  5.170152870E+01  3.384893147E-07  0.00000E+00  9.000E+00
#rwgt            1           1  -7.1548671337156561E-002           4      180830           0
</event>
<event>
      5   9999  3.79277E-02  1.16984E+02 -1.00000E+00  1.20839E-01
      21    -1     0     0   502   501  0.000000000E+00  0.000000000E+00  4.099767161E+01  4.099767161E+01  0.000000000E+00  0.00000E+00  9.000E+00
      21    -1     0     0   511   502  0.000000000E+00  0.000000000E+00 -1.634463699E+03  1.634463699E+03  0.000000000E+00  0.00000E+00  9.000E+00
      25     1     1     2     0     0  3.725131996E+00  8.972759905E+01 -1.839980822E+02  2.398858331E+02  1.250000000E+02  0.00000E+00  9.000E+00
      25     1     1     2     0     0  3.874370049E+01  1.927571245E+01 -4.511126187E+02  4.701066072E+02  1.250000000E+02  0.00000E+00  9.000E+00
      21     1     1     2   511   501 -4.246883249E+01 -1.090033115E+02 -9.583553268E+02  9.654689307E+02  1.078959322E-05  0.00000E+00  9.000E+00
#rwgt            1           1  0.12583367774260226                4      180892           0
</event>
<event>
      5   9999  3.79277E-02  6.38461E+01 -1.00000E+00  1.33277E-01
      21    -1     0     0   512   501  0.000000000E+00  0.000000000E+00  3.601678031E+03  3.601678031E+03  0.000000000E+00  0.00000E+00  9.000E+00
      21    -1     0     0   501   502  0.000000000E+00  0.000000000E+00 -4.420154452E+01  4.420154452E+01  0.000000000E+00  0.00000E+00  9.000E+00
      25     1     1     2     0     0  1.006371757E+02 -2.538641495E+02  1.712500936E+03  1.738637197E+03  1.250000000E+02  0.00000E+00  9.000E+00
      25     1     1     2     0     0 -1.351657758E+02  2.001602795E+02  5.793150012E+02  6.399724956E+02  1.250000000E+02  0.00000E+00  9.000E+00
      21     1     1     2   512   502  3.452860008E+01  5.370386996E+01  1.265660549E+03  1.267269883E+03  2.157918644E-05  0.00000E+00  9.000E+00
#rwgt            1           1   9.3268666190712057E-002           4      181004           0
</event>
<event>
      5   9999  3.79277E-02  3.14752E+02 -1.00000E+00  1.04919E-01
      21    -1     0     0   502   511  0.000000000E+00  0.000000000E+00  8.529173213E+02  8.529173213E+02  0.000000000E+00  0.00000E+00  9.000E+00
      21    -1     0     0   501   502  0.000000000E+00  0.000000000E+00 -2.987192878E+02  2.987192878E+02  0.000000000E+00  0.00000E+00  9.000E+00
      25     1     1     2     0     0 -1.572779890E+02  1.058557686E+02 -1.240371202E+01  2.274217704E+02  1.250000000E+02  0.00000E+00  9.000E+00
      25     1     1     2     0     0  3.233528266E+01 -3.947467786E+02  3.292457233E+02  5.299984302E+02  1.250000000E+02  0.00000E+00  9.000E+00
      21     1     1     2   501   511  1.249427064E+02  2.888910099E+02  2.373560222E+02  3.942164085E+02  0.000000000E+00  0.00000E+00  9.000E+00
#rwgt            1           1   9.8067928328070597E-002           4      181123           0
</event>
<event>
      5   9999  3.79277E-02  4.45089E+00 -1.00000E+00  2.52999E-01
      21    -1     0     0   512   501  0.000000000E+00  0.000000000E+00  7.160382534E+01  7.160382534E+01  0.000000000E+00  0.00000E+00  9.000E+00
      21    -1     0     0   501   502  0.000000000E+00  0.000000000E+00 -1.290212145E+03  1.290212145E+03  0.000000000E+00  0.00000E+00  9.000E+00
      25     1     1     2     0     0  8.480620405E+01 -9.873997060E+01 -1.109793805E+03  1.124370474E+03  1.250000000E+02  0.00000E+00  9.000E+00
      25     1     1     2     0     0 -8.093356377E+01  1.009338457E+02 -1.260385725E+02  2.196556503E+02  1.250000000E+02  0.00000E+00  9.000E+00
      21     1     1     2   512   502 -3.872640277E+00 -2.193875077E+00  1.722405798E+01  1.778984553E+01  7.907449699E-07  0.00000E+00  9.000E+00
#rwgt            1           1   4.6664115446765325E-002           4      181163           0
</event>
<event>
      5   9999  3.79277E-02  5.61755E+01 -1.00000E+00  1.36250E-01
      21    -1     0     0   511   501  0.000000000E+00  0.000000000E+00  2.808049345E+01  2.808049345E+01  0.000000000E+00  0.00000E+00  9.000E+00
      21    -1     0     0   501   502  0.000000000E+00  0.000000000E+00 -2.836794464E+03  2.836794464E+03  0.000000000E+00  0.00000E+00  9.000E+00
      25     1     1     2     0     0 -4.775558253E+01 -1.155603566E+02 -2.132226825E+03  2.139544584E+03  1.250000000E+02  0.00000E+00  9.000E+00
      25     1     1     2     0     0  9.122899742E+00  7.477801661E+01 -6.442252218E+02  6.605498584E+02  1.250000000E+02  0.00000E+00  9.000E+00
      21     1     1     2   511   502  3.863268279E+01  4.078233995E+01 -3.226192325E+01  6.478051499E+01  2.477718555E-06  0.00000E+00  9.000E+00
#rwgt            1           1   4.0562944823630667E-002           4      181741           0
</event>
<event>
      5   9999  3.79277E-02  3.03029E+01 -1.00000E+00  1.52737E-01
      21    -1     0     0   502   512  0.000000000E+00  0.000000000E+00  2.726199921E+02  2.726199921E+02  0.000000000E+00  0.00000E+00  9.000E+00
      21    -1     0     0   501   502  0.000000000E+00  0.000000000E+00 -1.427296618E+02  1.427296618E+02  0.000000000E+00  0.00000E+00  9.000E+00
      25     1     1     2     0     0  1.202509360E+02 -7.530688318E+01  3.658901011E+01  1.926010642E+02  1.250000000E+02  0.00000E+00  9.000E+00
      25     1     1     2     0     0 -1.072964152E+02  4.791261636E+01  7.413678670E+01  1.868940948E+02  1.250000000E+02  0.00000E+00  9.000E+00
      21     1     1     2   501   512 -1.295452079E+01  2.739426682E+01  1.916453359E+01  3.585449499E+01  6.307962682E-07  0.00000E+00  9.000E+00
#rwgt            1           1   2.4670983608449201E-002           4      181989           0
</event>
<event>
      5   9999  3.79277E-02  8.43783E+01 -1.00000E+00  1.27239E-01
      21    -1     0     0   502   501  0.000000000E+00  0.000000000E+00  9.562228725E+02  9.562228725E+02  0.000000000E+00  0.00000E+00  9.000E+00
      21    -1     0     0   501   511  0.000000000E+00  0.000000000E+00 -6.568002918E+02  6.568002918E+02  0.000000000E+00  0.00000E+00  9.000E+00
      25     1     1     2     0     0  1.646828803E+02 -9.306822749E+00  6.699250705E+02  7.011645086E+02  1.250000000E+02  0.00000E+00  9.000E+00
      25     1     1     2     0     0 -2.179631232E+02  7.473552654E+01  2.033928190E+02  3.317935515E+02  1.250000000E+02  0.00000E+00  9.000E+00
      21     1     1     2   502   511  5.328024285E+01 -6.542870379E+01 -5.738953088E+02  5.800651041E+02  7.629394531E-06  0.00000E+00  9.000E+00
#rwgt            1           1   3.9753716574844167E-002           4      182151           0
</event>
<event>
      5   9999  3.79277E-02  8.37865E+01 -1.00000E+00  1.27385E-01
      21    -1     0     0   502   501  0.000000000E+00  0.000000000E+00  1.087001303E+02  1.087001303E+02  0.000000000E+00  0.00000E+00  9.000E+00
      21    -1     0     0   512   502  0.000000000E+00  0.000000000E+00 -6.774411103E+02  6.774411103E+02  0.000000000E+00  0.00000E+00  9.000E+00
      25     1     1     2     0     0 -2.388572465E+01 -5.543484982E+01 -1.485808366E+02  2.033342456E+02  1.250000000E+02  0.00000E+00  9.000E+00
      25     1     1     2     0     0  1.061900964E+02  7.112478181E+01 -2.697961407E+01  1.807981491E+02  1.250000000E+02  0.00000E+00  9.000E+00
      21     1     1     2   512   501 -8.230437171E+01 -1.568993199E+01 -3.931805293E+02  4.020088459E+02  5.394796609E-06  0.00000E+00  9.000E+00
#rwgt            1           1  0.10757859919683239                4      182238           0
</event>
<event>
      5   9999  3.79277E-02  1.16080E+02 -1.00000E+00  1.20984E-01
      21    -1     0     0   502   501  0.000000000E+00  0.000000000E+00  2.549923115E+01  2.549923115E+01  0.000000000E+00  0.00000E+00  9.000E+00
       2    -1     0     0   501     0  0.000000000E+00  0.000000000E+00 -2.465601321E+03  2.465601321E+03  0.000000000E+00  0.00000E+00  9.000E+00
      25     1     1     2     0     0  4.084528250E+01  2.357601178E+01 -1.156737052E+03  1.164426800E+03  1.250000000E+02  0.00000E+00  9.000E+00
      25     1     1     2     0     0 -6.716637514E+01 -1.366325972E+02 -5.507414927E+02  5.849110876E+02  1.250000000E+02  0.00000E+00  9.000E+00
       2     1     1     2   502     0  2.632109264E+01  1.130565855E+02 -7.326235445E+02  7.417626638E+02  0.000000000E+00  0.00000E+00  9.000E+00
#rwgt            1           1   3.6854558701324994E-002           4      182536           0
</event>
<event>
      5   9999  3.79277E-02  7.61642E+00 -1.00000E+00  2.10500E-01
      21    -1     0     0   511   501  0.000000000E+00  0.000000000E+00  6.053304384E+01  6.053304384E+01  0.000000000E+00  0.00000E+00  9.000E+00
      21    -1     0     0   501   502  0.000000000E+00  0.000000000E+00 -1.083966779E+03  1.083966779E+03  0.000000000E+00  0.00000E+00  9.000E+00
      25     1     1     2     0     0 -8.878599751E+01 -1.918890246E+02 -5.714960030E+02  6.220426292E+02  1.250000000E+02  0.00000E+00  9.000E+00
      25     1     1     2     0     0  8.117371476E+01  1.916378783E+02 -4.537620375E+02  5.146253346E+02  1.250000000E+02  0.00000E+00  9.000E+00
      21     1     1     2   511   502  7.612282744E+00  2.511462435E-01  1.824305457E+00  7.831858873E+00  3.769728732E-07  0.00000E+00  9.000E+00
#rwgt            1           1   4.4192840607286329E-002           4      182720           0
</event>
<event>
      5   9999  3.79277E-02  2.45231E+01 -1.00000E+00  1.59380E-01
      21    -1     0     0   512   501  0.000000000E+00  0.000000000E+00  1.938532735E+02  1.938532735E+02  0.000000000E+00  0.00000E+00  9.000E+00
      21    -1     0     0   501   502  0.000000000E+00  0.000000000E+00 -4.520474250E+02  4.520474250E+02  0.000000000E+00  0.00000E+00  9.000E+00
      25     1     1     2     0     0  1.646099061E+02 -1.424672105E+02 -1.783304220E+02  3.079286714E+02  1.250000000E+02  0.00000E+00  9.000E+00
      25     1     1     2     0     0 -1.757085873E+02  1.643350267E+02 -1.155155081E+02  2.947004264E+02  1.250000000E+02  0.00000E+00  9.000E+00
      21     1     1     2   512   502  1.109868124E+01 -2.186781623E+01  3.565177861E+01  4.327160073E+01  6.743495762E-07  0.00000E+00  9.000E+00
#rwgt            1           1   3.5297179784482755E-002           4      183009           0
</event>
<event>
      5   9999  3.79277E-02  4.65034E+01 -1.00000E+00  1.40896E-01
      21    -1     0     0   502   501  0.000000000E+00  0.000000000E+00  1.529740492E+03  1.529740492E+03  0.000000000E+00  0.00000E+00  9.000E+00
      21    -1     0     0   511   502  0.000000000E+00  0.000000000E+00 -2.053582691E+02  2.053582691E+02  0.000000000E+00  0.00000E+00  9.000E+00
      25     1     1     2     0     0 -1.789167778E+02  1.677895058E+02  3.857303329E+02  4.738960027E+02  1.250000000E+02  0.00000E+00  9.000E+00
      25     1     1     2     0     0  1.434808746E+02 -1.979036638E+02  1.078984014E+03  1.113366123E+03  1.250000000E+02  0.00000E+00  9.000E+00
      21     1     1     2   511   501  3.543590323E+01  3.011415797E+01 -1.403321240E+02  1.478366354E+02  4.672030912E-06  0.00000E+00  9.000E+00
#rwgt            1           1   3.0943017531689501E-002           4      183275           0
</event>
<event>
      5   9999  3.79277E-02  5.79937E+01 -1.00000E+00  1.35497E-01
      21    -1     0     0   502   501  0.000000000E+00  0.000000000E+00  9.621354951E+02  9.621354951E+02  0.000000000E+00  0.00000E+00  9.000E+00
      21    -1     0     0   501   512  0.000000000E+00  0.000000000E+00 -4.402775034E+02  4.402775034E+02  0.000000000E+00  0.00000E+00  9.000E+00
      25     1     1     2     0     0  1.605624814E+01  1.971001740E+02  4.305858409E+02  4.900361702E+02  1.250000000E+02  0.00000E+00  9.000E+00
      25     1     1     2     0     0  4.088865001E+00 -2.514825201E+02  4.600811565E+02  5.390360353E+02  1.250000000E+02  0.00000E+00  9.000E+00
      21     1     1     2   502   512 -2.014511314E+01  5.438234604E+01 -3.688090057E+02  3.733407931E+02  0.000000000E+00  0.00000E+00  9.000E+00
#rwgt            1           1   3.8593118060427693E-002           4      183497           0
</event>
<event>
      5   9999  3.79277E-02  9.12894E+01 -1.00000E+00  1.25635E-01
      21    -1     0     0   502   511  0.000000000E+00  0.000000000E+00  1.673405711E+03  1.673405711E+03  0.000000000E+00  0.00000E+00  9.000E+00
      21    -1     0     0   501   502  0.000000000E+00  0.000000000E+00 -6.348505842E+01  6.348505842E+01  0.000000000E+00  0.00000E+00  9.000E+00
      25     1     1     2     0     0  2.388005895E+02 -6.769059056E+01  4.213122709E+02  5.047145403E+02  1.250000000E+02  0.00000E+00  9.000E+00
      25     1     1     2     0     0 -1.595064748E+02  1.129255353E+02  9.035491075E+02  9.328560884E+02  1.250000000E+02  0.00000E+00  9.000E+00
      21     1     1     2   501   511 -7.929411462E+01 -4.523494477E+01  2.850592747E+02  2.993201412E+02  5.394796609E-06  0.00000E+00  9.000E+00
#rwgt            1           1   8.7908153771818019E-003           4      183692           0
</event>
<event>
      5   9999  3.79277E-02  1.22135E+02 -1.00000E+00  1.20044E-01
      21    -1     0     0   502   501  0.000000000E+00  0.000000000E+00  4.733801656E+02  4.733801656E+02  0.000000000E+00  0.00000E+00  9.000E+00
      21    -1     0     0   501   512  0.000000000E+00  0.000000000E+00 -1.936853807E+02  1.936853807E+02  0.000000000E+00  0.00000E+00  9.000E+00
      25     1     1     2     0     0  1.323199156E+02 -2.504614324E+01  1.088142976E+02  2.135448916E+02  1.250000000E+02  0.00000E+00  9.000E+00
      25     1     1     2     0     0 -2.461386580E+02  6.934346416E+01  1.696904637E+02  3.313798552E+02  1.250000000E+02  0.00000E+00  9.000E+00
      21     1     1     2   502   512  1.138187423E+02 -4.429732092E+01  1.190023596E+00  1.221407995E+02  1.234370317E-06  0.00000E+00  9.000E+00
#rwgt            1           1   3.7838307380126404E-002           4      183758           0
</event>
<event>
      5   9999  3.79277E-02  2.94366E+01 -1.00000E+00  1.53614E-01
      21    -1     0     0   502   501  0.000000000E+00  0.000000000E+00  7.311682847E+01  7.311682847E+01  0.000000000E+00  0.00000E+00  9.000E+00
      21    -1     0     0   501   511  0.000000000E+00  0.000000000E+00 -1.024024003E+03  1.024024003E+03  0.000000000E+00  0.00000E+00  9.000E+00
      25     1     1     2     0     0 -1.055465493E+02  2.856561669E+01 -7.708247085E+02  7.885123968E+02  1.250000000E+02  0.00000E+00  9.000E+00
      25     1     1     2     0     0  8.137231225E+01 -1.176918111E+01 -2.612220434E+01  1.518793481E+02  1.250000000E+02  0.00000E+00  9.000E+00
      21     1     1     2   502   511  2.417423708E+01 -1.679643558E+01 -1.539602617E+02  1.567490867E+02  1.907348633E-06  0.00000E+00  9.000E+00
#rwgt            1           1   4.3078796347905728E-002           4      183819           0
</event>
<event>
      5   9999  3.79277E-02  7.67030E+01 -1.00000E+00  1.29240E-01
      21    -1     0     0   502   501  0.000000000E+00  0.000000000E+00  9.406156153E+02  9.406156153E+02  0.000000000E+00  0.00000E+00  9.000E+00
      21    -1     0     0   501   512  0.000000000E+00  0.000000000E+00 -6.656741898E+01  6.656741898E+01  0.000000000E+00  0.00000E+00  9.000E+00
      25     1     1     2     0     0 -8.483109873E+01 -1.335814542E+02  2.386529443E+02  3.124428717E+02  1.250000000E+02  0.00000E+00  9.000E+00
      25     1     1     2     0     0  8.251624382E+00  1.292301726E+02  5.557424244E+02  5.841602255E+02  1.250000000E+02  0.00000E+00  9.000E+00
      21     1     1     2   502   512  7.657947435E+01  4.351281658E+00  7.965282770E+01  1.105799372E+02  1.651812370E-06  0.00000E+00  9.000E+00
#rwgt            1           1   4.0865582800884787E-002           4      183958           0
</event>
<event>
      5   9999  3.79277E-02  4.13257E+01 -1.00000E+00  1.43967E-01
      21    -1     0     0   502   501  0.000000000E+00  0.000000000E+00  5.455632877E+02  5.455632877E+02  0.000000000E+00  0.00000E+00  9.000E+00
      21    -1     0     0   511   502  0.000000000E+00  0.000000000E+00 -1.544724901E+02  1.544724901E+02  0.000000000E+00  0.00000E+00  9.000E+00
      25     1     1     2     0     0  9.580084124E-01 -5.706015426E+01  4.717319978E+02  4.913378234E+02  1.250000000E+02  0.00000E+00  9.000E+00
      25     1     1     2     0     0  3.687298686E+01  7.369221187E+01 -7.340452770E+01  1.667434675E+02  1.250000000E+02  0.00000E+00  9.000E+00
      21     1     1     2   511   501 -3.783099527E+01 -1.663205761E+01 -7.236672559E+00  4.195448692E+01  7.725644944E-07  0.00000E+00  9.000E+00
#rwgt            1           1   1.5390749618818055E-002           4      184108           0
</event>
<event>
      5   9999  3.79277E-02  1.07742E+02 -1.00000E+00  1.22389E-01
      21    -1     0     0   502   501  0.000000000E+00  0.000000000E+00  1.144107986E+02  1.144107986E+02  0.000000000E+00  0.00000E+00  9.000E+00
       2    -1     0     0   501     0  0.000000000E+00  0.000000000E+00 -3.044456395E+03  3.044456395E+03  0.000000000E+00  0.00000E+00  9.000E+00
      25     1     1     2     0     0 -1.286679420E+02  9.234778042E+01 -3.356410592E+01  2.045363074E+02  1.250000000E+02  0.00000E+00  9.000E+00
      25     1     1     2     0     0  1.239683963E+02  1.529163492E+01 -2.527139051E+02  3.083687974E+02  1.250000000E+02  0.00000E+00  9.000E+00
       2     1     1     2   502     0  4.699545721E+00 -1.076394153E+02 -2.643767585E+03  2.645962089E+03  4.315837288E-05  0.00000E+00  9.000E+00
#rwgt            1           1   3.5612059675517067E-002           4      184310           0
</event>
<event>
      5   9999  3.79277E-02  3.47235E+01 -1.00000E+00  1.48756E-01
      21    -1     0     0   502   501  0.000000000E+00  0.000000000E+00  1.257199909E+03  1.257199909E+03  0.000000000E+00  0.00000E+00  9.000E+00
      21    -1     0     0   501   511  0.000000000E+00  0.000000000E+00 -1.019901248E+02  1.019901248E+02  0.000000000E+00  0.00000E+00  9.000E+00
      25     1     1     2     0     0  1.008123845E+02 -1.160093373E+02  5.567128927E+02  5.909107784E+02  1.250000000E+02  0.00000E+00  9.000E+00
      25     1     1     2     0     0 -6.667376577E+01  1.096627701E+02  6.674503898E+02  6.910762165E+02  1.250000000E+02  0.00000E+00  9.000E+00
      21     1     1     2   502   511 -3.413861871E+01  6.346567203E+00 -6.895349852E+01  7.720303854E+01  9.536743164E-07  0.00000E+00  9.000E+00
#rwgt            1           1   2.3918929543932925E-002           4      184425           0
</event>
<event>
      5   9999  3.79277E-02  2.72971E+01 -1.00000E+00  1.55944E-01
      21    -1     0     0   502   512  0.000000000E+00  0.000000000E+00  4.565292129E+02  4.565292129E+02  0.000000000E+00  0.00000E+00  9.000E+00
      21    -1     0     0   501   502  0.000000000E+00  0.000000000E+00 -3.718259507E+02  3.718259507E+02  0.000000000E+00  0.00000E+00  9.000E+00
      25     1     1     2     0     0 -7.841601096E+01 -3.099250801E+02  2.409765441E+02  4.194011455E+02  1.250000000E+02  0.00000E+00  9.000E+00
      25     1     1     2     0     0  5.112092896E+01  3.095953151E+02 -1.702911586E+02  3.782680097E+02  1.250000000E+02  0.00000E+00  9.000E+00
      21     1     1     2   501   512  2.729508200E+01  3.297650631E-01  1.401787669E+01  3.068600843E+01  4.129530925E-07  0.00000E+00  9.000E+00
#rwgt            1           1   3.2460553083929471E-002           4      184544           0
</event>
<event>
      5   9999  3.79277E-02  1.21334E+01 -1.00000E+00  1.86525E-01
      21    -1     0     0   502   501  0.000000000E+00  0.000000000E+00  4.816343757E+02  4.816343757E+02  0.000000000E+00  0.00000E+00  9.000E+00
      21    -1     0     0   511   502  0.000000000E+00  0.000000000E+00 -1.407845130E+02  1.407845130E+02  0.000000000E+00  0.00000E+00  9.000E+00
      25     1     1     2     0     0 -2.140915893E+02  5.450276318E+01  2.283000656E+02  3.413966604E+02  1.250000000E+02  0.00000E+00  9.000E+00
      25     1     1     2     0     0  2.020443992E+02 -5.305912684E+01  1.139882325E+02  2.688038827E+02  1.250000000E+02  0.00000E+00  9.000E+00
      21     1     1     2   511   501  1.204719007E+01 -1.443636341E+00 -1.438435398E+00  1.221834567E+01  1.316034923E-07  0.00000E+00  9.000E+00
#rwgt            1           1   4.5122425544852456E-002           4      184768           0
</event>
<event>
      5   9999  3.79277E-02  6.41030E+01 -1.00000E+00  1.33186E-01
       2    -1     0     0   502     0  0.000000000E+00  0.000000000E+00  1.671523022E+02  1.671523022E+02  0.000000000E+00  0.00000E+00  9.000E+00
      21    -1     0     0   501   502  0.000000000E+00  0.000000000E+00 -4.559391323E+02  4.559391323E+02  0.000000000E+00  0.00000E+00  9.000E+00
      25     1     1     2     0     0  5.488975843E+01 -1.373126313E+02 -1.488844074E+02  2.442523512E+02  1.250000000E+02  0.00000E+00  9.000E+00
      25     1     1     2     0     0 -9.232056789E+01  1.893523150E+02 -1.793299915E+02  3.035813438E+02  1.250000000E+02  0.00000E+00  9.000E+00
       2     1     1     2   501     0  3.743080946E+01 -5.203968365E+01  3.942756887E+01  7.525773952E+01  1.348699152E-06  0.00000E+00  9.000E+00
#rwgt            1           1   3.3077608365019662E-002           4      185062           0
</event>
<event>
      5   9999  3.79277E-02  2.60201E+02 -1.00000E+00  1.07640E-01
      21    -1     0     0   502   501  0.000000000E+00  0.000000000E+00  2.061185467E+02  2.061185467E+02  0.000000000E+00  0.00000E+00  9.000E+00
      21    -1     0     0   501   511  0.000000000E+00  0.000000000E+00 -1.278647252E+03  1.278647252E+03  0.000000000E+00  0.00000E+00  9.000E+00
      25     1     1     2     0     0  3.303383300E+02  4.127821035E+01 -2.646438784E+02  4.432704426E+02  1.250000000E+02  0.00000E+00  9.000E+00
      25     1     1     2     0     0 -2.259432688E+02  1.970622591E+02 -2.030463176E+02  3.830622688E+02  1.250000000E+02  0.00000E+00  9.000E+00
      21     1     1     2   502   511 -1.043950612E+02 -2.383404695E+02 -6.048385092E+02  6.584330872E+02  7.629394531E-06  0.00000E+00  9.000E+00
#rwgt            2          11   1.3281929098261614E-003           4      185222           0
</event>
<event>
      5   9999  3.79277E-02  2.43569E+01 -1.00000E+00  1.59603E-01
      21    -1     0     0   502   501  0.000000000E+00  0.000000000E+00  1.789206817E+02  1.789206817E+02  0.000000000E+00  0.00000E+00  9.000E+00
       1    -1     0     0   501     0  0.000000000E+00  0.000000000E+00 -1.768021733E+03  1.768021733E+03  0.000000000E+00  0.00000E+00  9.000E+00
      25     1     1     2     0     0  2.075891302E+01  7.339260171E+01  1.259872554E+02  1.931714135E+02  1.250000000E+02  0.00000E+00  9.000E+00
      25     1     1     2     0     0  1.397626361E+00 -6.327599848E+01 -2.358224653E+02  2.743046491E+02  1.250000000E+02  0.00000E+00  9.000E+00
       1     1     1     2   502     0 -2.215653938E+01 -1.011660323E+01 -1.479265841E+03  1.479466352E+03  2.157918644E-05  0.00000E+00  9.000E+00
#rwgt            1           1   2.4172769597110108E-002           4      185242           0
</event>
<event>
      5   9999  3.79277E-02  1.03912E+01 -1.00000E+00  1.93850E-01
      21    -1     0     0   511   501  0.000000000E+00  0.000000000E+00  1.208745464E+02  1.208745464E+02  0.000000000E+00  0.00000E+00  9.000E+00
      21    -1     0     0   501   502  0.000000000E+00  0.000000000E+00 -1.140642435E+03  1.140642435E+03  0.000000000E+00  0.00000E+00  9.000E+00
      25     1     1     2     0     0 -1.326709021E+02 -2.443726425E+02 -1.910029286E+02  3.597591909E+02  1.250000000E+02  0.00000E+00  9.000E+00
      25     1     1     2     0     0  1.291897400E+02  2.541634260E+02 -8.339382401E+02  8.901500011E+02  1.250000000E+02  0.00000E+00  9.000E+00
      21     1     1     2   511   502  3.481162165E+00 -9.790783494E+00  5.173280606E+00  1.160778892E+01  3.264680848E-07  0.00000E+00  9.000E+00
#rwgt            1           1   4.7411354250302261E-002           4      185364           0
</event>
<event>
      5   9999  3.79277E-02  7.40326E+01 -1.00000E+00  1.30000E-01
      21    -1     0     0   512   501  0.000000000E+00  0.000000000E+00  7.605469120E+01  7.605469120E+01  0.000000000E+00  0.00000E+00  9.000E+00
      21    -1     0     0   501   502  0.000000000E+00  0.000000000E+00 -1.017596128E+03  1.017596128E+03  0.000000000E+00  0.00000E+00  9.000E+00
      25     1     1     2     0     0  2.283832387E+01 -1.340584365E+02 -4.648524693E+02  5.002060292E+02  1.250000000E+02  0.00000E+00  9.000E+00
      25     1     1     2     0     0 -9.240928224E+01  1.593706228E+02 -4.688203925E+02  5.189952132E+02  1.250000000E+02  0.00000E+00  9.000E+00
      21     1     1     2   512   502  6.957095837E+01 -2.531218629E+01 -7.868575021E+00  7.444957687E+01  1.267212130E-06  0.00000E+00  9.000E+00
#rwgt            2          11   1.7456985645861640E-003           4      185684           0
</event>
<event>
      5   9999  3.79277E-02  6.58516E+01 -1.00000E+00  1.32579E-01
      21    -1     0     0   511   501  0.000000000E+00  0.000000000E+00  1.708942613E+02  1.708942613E+02  0.000000000E+00  0.00000E+00  9.000E+00
      21    -1     0     0   501   502  0.000000000E+00  0.000000000E+00 -4.430369069E+02  4.430369069E+02  0.000000000E+00  0.00000E+00  9.000E+00
      25     1     1     2     0     0 -7.774820634E+01 -8.780901962E+01 -3.236825172E+02  3.662657225E+02  1.250000000E+02  0.00000E+00  9.000E+00
      25     1     1     2     0     0  1.395827833E+01  1.041577222E+02  7.233480980E+01  1.786084806E+02  1.250000000E+02  0.00000E+00  9.000E+00
      21     1     1     2   511   502  6.378992801E+01 -1.634870254E+01 -2.079493817E+01  6.905696521E+01  1.327458468E-06  0.00000E+00  9.000E+00
#rwgt            1           1   4.7012612564335213E-002           4      185734           0
</event>
<event>
      5   9999  3.79277E-02  4.66422E+01 -1.00000E+00  1.40820E-01
      21    -1     0     0   502   501  0.000000000E+00  0.000000000E+00  4.720604936E+02  4.720604936E+02  0.000000000E+00  0.00000E+00  9.000E+00
       1    -1     0     0   501     0  0.000000000E+00  0.000000000E+00 -3.371265841E+02  3.371265841E+02  0.000000000E+00  0.00000E+00  9.000E+00
      25     1     1     2     0     0 -1.027510924E+01  2.919579773E+02 -1.221383977E+02  3.404230112E+02  1.250000000E+02  0.00000E+00  9.000E+00
      25     1     1     2     0     0 -3.611644103E+01 -2.967871849E+02  2.683910805E+02  4.207681102E+02  1.250000000E+02  0.00000E+00  9.000E+00
       1     1     1     2   502     0  4.639155026E+01  4.829207605E+00 -1.131877335E+01  4.799595621E+01  4.460403188E-07  0.00000E+00  9.000E+00
#rwgt            1           1   2.7299247892361763E-002           4      185804           0
</event>
<event>
      5   9999  3.79277E-02  5.91392E+01 -1.00000E+00  1.35040E-01
       4    -1     0     0   502     0  0.000000000E+00  0.000000000E+00  1.961321880E+02  1.961321880E+02  0.000000000E+00  0.00000E+00  9.000E+00
      21    -1     0     0   501   502  0.000000000E+00  0.000000000E+00 -2.992964066E+02  2.992964066E+02  0.000000000E+00  0.00000E+00  9.000E+00
      25     1     1     2     0     0 -2.584407417E+01  1.011334053E+02 -1.049761721E+02  1.937546866E+02  1.250000000E+02  0.00000E+00  9.000E+00
      25     1     1     2     0     0  8.359293450E+01 -1.138813600E+02 -7.648883420E+01  2.035492191E+02  1.250000000E+02  0.00000E+00  9.000E+00
       4     1     1     2   501     0 -5.774886033E+01  1.274795462E+01  7.830078775E+01  9.812468893E+01  1.348699152E-06  0.00000E+00  9.000E+00
#rwgt            1           1   3.7752393142000053E-002           4      185996           0
</event>
<event>
      5   9999 -3.79277E-02  1.12063E+02 -1.00000E+00  1.21643E-01
      21    -1     0     0   502   501  0.000000000E+00  0.000000000E+00  2.159188649E+03  2.159188649E+03  0.000000000E+00  0.00000E+00  9.000E+00
      21    -1     0     0   511   502  0.000000000E+00  0.000000000E+00 -4.438980909E+01  4.438980909E+01  0.000000000E+00  0.00000E+00  9.000E+00
      25     1     1     2     0     0 -5.007904772E+01  5.170347020E+00  1.560733484E+03  1.566540345E+03  1.250000000E+02  0.00000E+00  9.000E+00
      25     1     1     2     0     0  6.554710430E+01 -1.161604142E+02  2.278632408E+02  2.921238114E+02  1.250000000E+02  0.00000E+00  9.000E+00
      21     1     1     2   511   501 -1.546805658E+01  1.109900672E+02  3.262021156E+02  3.449143025E+02  0.000000000E+00  0.00000E+00  9.000E+00
#rwgt            1           1  -3.2420999969080239E-002           4      186124           0
</event>
<event>
      5   9999  3.79277E-02  2.88451E+01 -1.00000E+00  1.54234E-01
      21    -1     0     0   502   501  0.000000000E+00  0.000000000E+00  7.392919228E+01  7.392919228E+01  0.000000000E+00  0.00000E+00  9.000E+00
      21    -1     0     0   512   502  0.000000000E+00  0.000000000E+00 -4.691466521E+02  4.691466521E+02  0.000000000E+00  0.00000E+00  9.000E+00
      25     1     1     2     0     0 -7.994997906E+01  7.761869714E+01 -1.706201748E+02  2.390667383E+02  1.250000000E+02  0.00000E+00  9.000E+00
      25     1     1     2     0     0  1.037511381E+02 -6.132323247E+01 -1.743095105E+02  2.460358571E+02  1.250000000E+02  0.00000E+00  9.000E+00
      21     1     1     2   512   501 -2.380115906E+01 -1.629546467E+01 -5.028777449E+01  5.797324904E+01  9.536743164E-07  0.00000E+00  9.000E+00
#rwgt            1           1   4.8477155816755012E-002           4      186207           0
</event>
<event>
      5   9999  3.79277E-02  9.84411E+00 -1.00000E+00  1.96549E-01
      21    -1     0     0   502   501  0.000000000E+00  0.000000000E+00  6.395495207E+02  6.395495207E+02  0.000000000E+00  0.00000E+00  9.000E+00
      21    -1     0     0   501   511  0.000000000E+00  0.000000000E+00 -1.269335972E+02  1.269335972E+02  0.000000000E+00  0.00000E+00  9.000E+00
      25     1     1     2     0     0 -2.357516521E+02 -2.687726379E+01  1.445149146E+02  3.046486326E+02  1.250000000E+02  0.00000E+00  9.000E+00
      25     1     1     2     0     0  2.287211827E+02  3.376776872E+01  3.677085620E+02  4.519825529E+02  1.250000000E+02  0.00000E+00  9.000E+00
      21     1     1     2   502   511  7.030469358E+00 -6.890504923E+00  3.924470024E-01  9.851932406E+00  1.308632498E-07  0.00000E+00  9.000E+00
#rwgt            1           1   2.8428926870986530E-002           4      186348           0
</event>
<event>
      5   9999  3.79277E-02  9.24640E+01 -1.00000E+00  1.25378E-01
      21    -1     0     0   502   501  0.000000000E+00  0.000000000E+00  1.338991166E+03  1.338991166E+03  0.000000000E+00  0.00000E+00  9.000E+00
      21    -1     0     0   512   502  0.000000000E+00  0.000000000E+00 -3.820714220E+02  3.820714220E+02  0.000000000E+00  0.00000E+00  9.000E+00
      25     1     1     2     0     0 -2.517251830E+02 -1.820392000E+02  2.695886444E+02  4.298917018E+02  1.250000000E+02  0.00000E+00  9.000E+00
      25     1     1     2     0     0  1.675652024E+02  2.203364820E+02  9.580784879E+02  1.005069973E+03  1.250000000E+02  0.00000E+00  9.000E+00
      21     1     1     2   512   501  8.415998059E+01 -3.829728196E+01 -2.707473882E+02  2.861009129E+02  5.394796609E-06  0.00000E+00  9.000E+00
#rwgt            1           1  0.29884370796718440                4      186633           0
</event>
<event>
      5   9999  3.79277E-02  6.36068E+01 -1.00000E+00  1.33362E-01
      21    -1     0     0   502   501  0.000000000E+00  0.000000000E+00  8.262175441E+02  8.262175441E+02  0.000000000E+00  0.00000E+00  9.000E+00
      21    -1     0     0   501   511  0.000000000E+00  0.000000000E+00 -2.371128185E+02  2.371128185E+02  0.000000000E+00  0.00000E+00  9.000E+00
      25     1     1     2     0     0 -1.264284754E+02  1.211565039E+02  1.260918568E+02  2.493736437E+02  1.250000000E+02  0.00000E+00  9.000E+00
      25     1     1     2     0     0  1.324360676E+02 -5.783401587E+01  6.177665754E+02  6.466410342E+02  1.250000000E+02  0.00000E+00  9.000E+00
      21     1     1     2   502   511 -6.007592175E+00 -6.332248807E+01 -1.547537066E+02  1.673156847E+02  1.907348633E-06  0.00000E+00  9.000E+00
#rwgt            1           1   4.4277085777970571E-002           4      186719           0
</event>
<event>
      5   9999  3.79277E-02  6.21554E+01 -1.00000E+00  1.33889E-01
      21    -1     0     0   502   512  0.000000000E+00  0.000000000E+00  4.884414401E+02  4.884414401E+02  0.000000000E+00  0.00000E+00  9.000E+00
      21    -1     0     0   501   502  0.000000000E+00  0.000000000E+00 -1.803199195E+02  1.803199195E+02  0.000000000E+00  0.00000E+00  9.000E+00
      25     1     1     2     0     0 -3.101543741E+01  2.048289147E+02  1.897465659E+02  3.074826840E+02  1.250000000E+02  0.00000E+00  9.000E+00
      25     1     1     2     0     0  8.906520307E+01 -1.826135963E+02  1.295550979E+01  2.388999397E+02  1.250000000E+02  0.00000E+00  9.000E+00
      21     1     1     2   501   512 -5.804976565E+01 -2.221531839E+01  1.054194448E+02  1.223787360E+02  0.000000000E+00  0.00000E+00  9.000E+00
#rwgt            1           1   3.7831905206356424E-002           4      186788           0
</event>
<event>
      5   9999 -3.79277E-02  3.20318E+01 -1.00000E+00  1.51089E-01
      21    -1     0     0   502   501  0.000000000E+00  0.000000000E+00  3.291705341E+03  3.291705341E+03  0.000000000E+00  0.00000E+00  9.000E+00
      21    -1     0     0   511   502  0.000000000E+00  0.000000000E+00 -6.178462050E+01  6.178462050E+01  0.000000000E+00  0.00000E+00  9.000E+00
      25     1     1     2     0     0 -3.142275782E+02 -6.586901514E+01  1.217915505E+03  1.265709633E+03  1.250000000E+02  0.00000E+00  9.000E+00
      25     1     1     2     0     0  3.337691560E+02  9.124942193E+01  2.021235206E+03  2.054445196E+03  1.250000000E+02  0.00000E+00  9.000E+00
      21     1     1     2   511   501 -1.954157778E+01 -2.538040679E+01 -9.229990450E+00  3.333513214E+01  2.823524304E-06  0.00000E+00  9.000E+00
#rwgt            1           1 -0.26204449017902165                4      186887           0
</event>
<event>
      5   9999  3.79277E-02  4.53171E+01 -1.00000E+00  1.41557E-01
       1    -1     0     0   502     0  0.000000000E+00  0.000000000E+00  1.074954827E+03  1.074954827E+03  0.000000000E+00  0.00000E+00  9.000E+00
      21    -1     0     0   501   502  0.000000000E+00  0.000000000E+00 -5.023103913E+01  5.023103913E+01  0.000000000E+00  0.00000E+00  9.000E+00
      25     1     1     2     0     0  4.828375128E-01  1.182573003E+02  2.526112264E+02  3.056508693E+02  1.250000000E+02  0.00000E+00  9.000E+00
      25     1     1     2     0     0  4.172319741E+01 -1.347584052E+02  3.735856717E+02  4.184398488E+02  1.250000000E+02  0.00000E+00  9.000E+00
       1     1     1     2   501     0 -4.220603493E+01  1.650110490E+01  3.985268896E+02  4.010951478E+02  0.000000000E+00  0.00000E+00  9.000E+00
#rwgt            1           1   3.1463798444124717E-002           4      187128           0
</event>
<event>
      5   9999  3.79277E-02  3.47392E+02 -1.00000E+00  1.03563E-01
      21    -1     0     0   502   501  0.000000000E+00  0.000000000E+00  7.728118706E+02  7.728118706E+02  0.000000000E+00  0.00000E+00  9.000E+00
      21    -1     0     0   501   511  0.000000000E+00  0.000000000E+00 -2.979627768E+02  2.979627768E+02  0.000000000E+00  0.00000E+00  9.000E+00
      25     1     1     2     0     0 -2.384254345E+02  3.155123441E+01  3.338435640E+02  4.300217360E+02  1.250000000E+02  0.00000E+00  9.000E+00
      25     1     1     2     0     0  3.096689875E+00  2.239909573E+02 -2.111112761E+01  2.573950624E+02  1.250000000E+02  0.00000E+00  9.000E+00
      21     1     1     2   502   511  2.353287446E+02 -2.555421917E+02  1.621166574E+02  3.833578489E+02  5.046370146E-06  0.00000E+00  9.000E+00
#rwgt            2          11   9.6427773601061556E-004           4      187469           0
</event>
<event>
      5   9999  3.79277E-02  3.52737E+01 -1.00000E+00  1.48310E-01
      21    -1     0     0   502   501  0.000000000E+00  0.000000000E+00  1.198610961E+03  1.198610961E+03  0.000000000E+00  0.00000E+00  9.000E+00
      21    -1     0     0   512   502  0.000000000E+00  0.000000000E+00 -4.594245498E+01  4.594245498E+01  0.000000000E+00  0.00000E+00  9.000E+00
      25     1     1     2     0     0  1.218222338E+02  1.075114548E+01  8.055222253E+02  8.242859329E+02  1.250000000E+02  0.00000E+00  9.000E+00
      25     1     1     2     0     0 -1.107870425E+02  2.275191489E+01  3.461099722E+02  3.849786114E+02  1.250000000E+02  0.00000E+00  9.000E+00
      21     1     1     2   512   501 -1.103519130E+01 -3.350306037E+01  1.036308210E+00  3.528887128E+01  1.469106381E-06  0.00000E+00  9.000E+00
#rwgt            1           1   3.3705445183350065E-002           4      187609           0
</event>
<event>
      5   9999  3.79277E-02  2.57662E+01 -1.00000E+00  1.57775E-01
      21    -1     0     0   502   501  0.000000000E+00  0.000000000E+00  9.702636391E+01  9.702636391E+01  0.000000000E+00  0.00000E+00  9.000E+00
      21    -1     0     0   511   502  0.000000000E+00  0.000000000E+00 -4.347651063E+02  4.347651063E+02  0.000000000E+00  0.00000E+00  9.000E+00
      25     1     1     2     0     0 -1.517400857E+01 -6.502887032E+01 -2.034045689E+02  2.479060773E+02  1.250000000E+02  0.00000E+00  9.000E+00
      25     1     1     2     0     0  4.062683457E+01  6.903514008E+01 -1.392674269E+00  1.484699626E+02  1.250000000E+02  0.00000E+00  9.000E+00
      21     1     1     2   511   501 -2.545282601E+01 -4.006269759E+00 -1.329414993E+02  1.354154303E+02  1.907348633E-06  0.00000E+00  9.000E+00
#rwgt            1           1   5.1599613234350000E-002           4      187777           0
</event>
<event>
      5   9999  3.79277E-02  2.43722E+01 -1.00000E+00  1.59583E-01
      21    -1     0     0   502   501  0.000000000E+00  0.000000000E+00  2.441064099E+02  2.441064099E+02  0.000000000E+00  0.00000E+00  9.000E+00
      21    -1     0     0   512   502  0.000000000E+00  0.000000000E+00 -2.476300162E+02  2.476300162E+02  0.000000000E+00  0.00000E+00  9.000E+00
      25     1     1     2     0     0  1.686989769E+02 -3.947862664E+01  5.084301228E+01  2.196085578E+02  1.250000000E+02  0.00000E+00  9.000E+00
      25     1     1     2     0     0 -1.542950673E+02  5.913907283E+01  5.734060824E+00  2.072734358E+02  1.250000000E+02  0.00000E+00  9.000E+00
      21     1     1     2   512   501 -1.440390963E+01 -1.966044619E+01 -6.010067940E+01  6.485443255E+01  0.000000000E+00  0.00000E+00  9.000E+00
#rwgt            1           1   3.5462776384315345E-002           4      187955           0
</event>
<event>
      5   9999  3.79277E-02  4.30138E+01 -1.00000E+00  1.42910E-01
      21    -1     0     0   502   511  0.000000000E+00  0.000000000E+00  1.658672026E+03  1.658672026E+03  0.000000000E+00  0.00000E+00  9.000E+00
      21    -1     0     0   501   502  0.000000000E+00  0.000000000E+00 -1.010896697E+02  1.010896697E+02  0.000000000E+00  0.00000E+00  9.000E+00
      25     1     1     2     0     0 -3.449944647E+02 -7.392995651E+01  8.928957930E+02  9.681811382E+02  1.250000000E+02  0.00000E+00  9.000E+00
      25     1     1     2     0     0  3.416313192E+02  3.104787485E+01  4.864223905E+02  6.082003541E+02  1.250000000E+02  0.00000E+00  9.000E+00
      21     1     1     2   501   511  3.363145477E+00  4.288208166E+01  1.782641726E+02  1.833802032E+02  3.303624740E-06  0.00000E+00  9.000E+00
#rwgt            1           1   1.9577242826363275E-002           4      188115           0
</event>
<event>
      5   9999  3.79277E-02  6.04216E+01 -1.00000E+00  1.34541E-01
       1    -1     0     0   502     0  0.000000000E+00  0.000000000E+00  7.273932486E+02  7.273932486E+02  0.000000000E+00  0.00000E+00  9.000E+00
      21    -1     0     0   501   502  0.000000000E+00  0.000000000E+00 -1.457110726E+03  1.457110726E+03  0.000000000E+00  0.00000E+00  9.000E+00
      25     1     1     2     0     0  9.025290216E+01  1.121804419E+02 -2.758125946E+02  3.353022894E+02  1.250000000E+02  0.00000E+00  9.000E+00
      25     1     1     2     0     0 -3.386151382E+01 -1.338780017E+02 -1.142689885E+03  1.157771608E+03  1.250000000E+02  0.00000E+00  9.000E+00
       1     1     1     2   501     0 -5.639138833E+01  2.169755980E+01  6.887850024E+02  6.914300777E+02  0.000000000E+00  0.00000E+00  9.000E+00
#rwgt            1           1   3.3003990722102160E-002           4      188264           0
</event>
<event>
      5   9999  3.79277E-02  1.45591E+02 -1.00000E+00  1.16909E-01
      21    -1     0     0   502   501  0.000000000E+00  0.000000000E+00  5.821624323E+02  5.821624323E+02  0.000000000E+00  0.00000E+00  9.000E+00
      21    -1     0     0   501   511  0.000000000E+00  0.000000000E+00 -1.935256743E+02  1.935256743E+02  0.000000000E+00  0.00000E+00  9.000E+00
      25     1     1     2     0     0 -1.704750464E+02  1.369845447E+02  4.407578446E+01  2.557228612E+02  1.250000000E+02  0.00000E+00  9.000E+00
      25     1     1     2     0     0  1.992705360E+02  5.730230814E+00  2.637323091E+02  3.534420928E+02  1.250000000E+02  0.00000E+00  9.000E+00
      21     1     1     2   502   511 -2.879548960E+01 -1.427147755E+02  8.082866441E+01  1.665231527E+02  9.536743164E-07  0.00000E+00  9.000E+00
#rwgt            1           1   4.6540024086584676E-002           4      188365           0
</event>
<event>
      5   9999  3.79277E-02  1.28698E+02 -1.00000E+00  1.19092E-01
       2    -1     0     0   502     0  0.000000000E+00  0.000000000E+00  2.795604805E+02  2.795604805E+02  0.000000000E+00  0.00000E+00  9.000E+00
      21    -1     0     0   501   502  0.000000000E+00  0.000000000E+00 -1.193934492E+03  1.193934492E+03  0.000000000E+00  0.00000E+00  9.000E+00
      25     1     1     2     0     0 -2.575841662E+02  3.190649828E+00 -4.114373597E+02  5.012638865E+02  1.250000000E+02  0.00000E+00  9.000E+00
      25     1     1     2     0     0  3.711317515E+02 -6.377307866E+01 -6.594411166E+02  7.696059828E+02  1.250000000E+02  0.00000E+00  9.000E+00
       2     1     1     2   501     0 -1.135475853E+02  6.058242883E+01  1.565044650E+02  2.026251030E+02  3.303624740E-06  0.00000E+00  9.000E+00
#rwgt            1           1   3.1657878180230879E-002           4      188466           0
</event>
<event>
      5   9999  3.79277E-02  3.74537E+01 -1.00000E+00  1.46634E-01
      21    -1     0     0   502   501  0.000000000E+00  0.000000000E+00  3.611417020E+02  3.611417020E+02  0.000000000E+00  0.00000E+00  9.000E+00
       2    -1     0     0   501     0  0.000000000E+00  0.000000000E+00 -1.107157204E+03  1.107157204E+03  0.000000000E+00  0.00000E+00  9.000E+00
      25     1     1     2     0     0  2.099292380E+02 -1.366817628E+02  5.156177903E+01  2.846678878E+02  1.250000000E+02  0.00000E+00  9.000E+00
      25     1     1     2     0     0 -1.888744969E+02  1.057063754E+02  1.115677936E+02  2.737147894E+02  1.250000000E+02  0.00000E+00  9.000E+00
       2     1     1     2   502     0 -2.105474118E+01  3.097538746E+01 -9.091450749E+02  9.099162291E+02  1.078959322E-05  0.00000E+00  9.000E+00
#rwgt            1           1   3.8991696445214531E-002           4      188631           0
</event>
<event>
      5   9999  3.79277E-02  4.27363E+01 -1.00000E+00  1.43080E-01
      21    -1     0     0   502   501  0.000000000E+00  0.000000000E+00  1.210337335E+02  1.210337335E+02  0.000000000E+00  0.00000E+00  9.000E+00
      21    -1     0     0   511   502  0.000000000E+00  0.000000000E+00 -4.263308855E+02  4.263308855E+02  0.000000000E+00  0.00000E+00  9.000E+00
      25     1     1     2     0     0 -7.131455853E+01 -1.357658291E+02 -6.257407650E+01  2.075057629E+02  1.250000000E+02  0.00000E+00  9.000E+00
      25     1     1     2     0     0  7.663843005E+01  9.336245901E+01 -1.235631598E+02  2.132670911E+02  1.250000000E+02  0.00000E+00  9.000E+00
      21     1     1     2   511   501 -5.323871520E+00  4.240337007E+01 -1.191599157E+02  1.265917648E+02  2.336015456E-06  0.00000E+00  9.000E+00
#rwgt            1           1   3.8203809633569938E-002           4      188824           0
</event>
<event>
      5   9999  3.79277E-02  1.35834E+01 -1.00000E+00  1.81541E-01
      21    -1     0     0   512   501  0.000000000E+00  0.000000000E+00  3.954926766E+02  3.954926766E+02  0.000000000E+00  0.00000E+00  9.000E+00
      21    -1     0     0   501   502  0.000000000E+00  0.000000000E+00 -9.782571027E+01  9.782571027E+01  0.000000000E+00  0.00000E+00  9.000E+00
      25     1     1     2     0     0 -2.344828408E+01 -1.063733167E+02  2.398852700E+02  2.916076942E+02  1.250000000E+02  0.00000E+00  9.000E+00
      25     1     1     2     0     0  1.626588428E+01  1.179024648E+02  3.642628681E+01  1.764013735E+02  1.250000000E+02  0.00000E+00  9.000E+00
      21     1     1     2   512   502  7.182399798E+00 -1.152914810E+01  2.135540946E+01  2.530931915E+01  3.371747881E-07  0.00000E+00  9.000E+00
#rwgt            1           1   8.5396037120480175E-002           4      189015           0
</event>
<event>
      5   9999  3.79277E-02  1.01292E+01 -1.00000E+00  1.95115E-01
      21    -1     0     0   502   501  0.000000000E+00  0.000000000E+00  3.657798130E+03  3.657798130E+03  0.000000000E+00  0.00000E+00  9.000E+00
      21    -1     0     0   501   511  0.000000000E+00  0.000000000E+00 -3.531418408E+02  3.531418408E+02  0.000000000E+00  0.00000E+00  9.000E+00
      25     1     1     2     0     0  1.011524652E+02  1.080349287E+02  3.460182353E+02  3.965564099E+02  1.250000000E+02  0.00000E+00  9.000E+00
      25     1     1     2     0     0 -1.049388067E+02 -9.864007263E+01  3.283665459E+03  3.289198362E+03  1.250000000E+02  0.00000E+00  9.000E+00
      21     1     1     2   502   511  3.786341465E+00 -9.394856091E+00 -3.250274051E+02  3.251851991E+02  1.265191952E-05  0.00000E+00  9.000E+00
#rwgt            1           1   1.8662295592612652E-002           4      189515           0
</event>
<event>
      5   9999  3.79277E-02  8.86332E+01 -1.00000E+00  1.26232E-01
      21    -1     0     0   502   512  0.000000000E+00  0.000000000E+00  8.637262741E+02  8.637262741E+02  0.000000000E+00  0.00000E+00  9.000E+00
      21    -1     0     0   501   502  0.000000000E+00  0.000000000E+00 -8.383198121E+01  8.383198121E+01  0.000000000E+00  0.00000E+00  9.000E+00
      25     1     1     2     0     0  1.269742499E+02 -1.615828663E+02  2.193744805E+02  3.255482230E+02  1.250000000E+02  0.00000E+00  9.000E+00
      25     1     1     2     0     0 -5.102754054E+01  1.158887858E+02  3.276891159E+02  3.728795747E+02  1.250000000E+02  0.00000E+00  9.000E+00
      21     1     1     2   501   512 -7.594670935E+01  4.569408054E+01  2.328306965E+02  2.491304575E+02  4.672030912E-06  0.00000E+00  9.000E+00
#rwgt            1           1   1.3290289718602114E-002           4      189821           0
</event>
<event>
      5   9999  3.79277E-02  6.14825E+00 -1.00000E+00  2.23838E-01
      21    -1     0     0   511   501  0.000000000E+00  0.000000000E+00  1.329121328E+03  1.329121328E+03  0.000000000E+00  0.00000E+00  9.000E+00
      21    -1     0     0   501   502  0.000000000E+00  0.000000000E+00 -1.384948009E+02  1.384948009E+02  0.000000000E+00  0.00000E+00  9.000E+00
      25     1     1     2     0     0  8.517141511E+01 -4.078748083E+01 -4.187842310E+01  1.621622363E+02  1.250000000E+02  0.00000E+00  9.000E+00
      25     1     1     2     0     0 -9.127520181E+01  4.152557660E+01  1.395931046E+02  2.125247534E+02  1.250000000E+02  0.00000E+00  9.000E+00
      21     1     1     2   511   502  6.103786697E+00 -7.380957660E-01  1.092911846E+03  1.092929139E+03  1.525878906E-05  0.00000E+00  9.000E+00
#rwgt            1           1   3.4957193288556537E-002           4      189916           0
</event>
<event>
      5   9999  3.79277E-02  1.87216E+01 -1.00000E+00  1.68771E-01
      21    -1     0     0   512   501  0.000000000E+00  0.000000000E+00  2.495884114E+02  2.495884114E+02  0.000000000E+00  0.00000E+00  9.000E+00
      21    -1     0     0   501   502  0.000000000E+00  0.000000000E+00 -6.473588490E+02  6.473588490E+02  0.000000000E+00  0.00000E+00  9.000E+00
      25     1     1     2     0     0 -2.683267908E+02 -1.403998578E+02 -8.093581959E+01  3.374714708E+02  1.250000000E+02  0.00000E+00  9.000E+00
      25     1     1     2     0     0  2.561695449E+02  1.546370816E+02 -3.765228038E+02  4.969204006E+02  1.250000000E+02  0.00000E+00  9.000E+00
      21     1     1     2   512   502  1.215724591E+01 -1.423722387E+01  5.968818573E+01  6.255538896E+01  6.743495762E-07  0.00000E+00  9.000E+00
#rwgt            1           1   4.4944384865700543E-002           4      190310           0
</event>
<event>
      5   9999  3.79277E-02  1.54330E+01 -1.00000E+00  1.76227E-01
      21    -1     0     0   502   501  0.000000000E+00  0.000000000E+00  1.364548598E+03  1.364548598E+03  0.000000000E+00  0.00000E+00  9.000E+00
      21    -1     0     0   511   502  0.000000000E+00  0.000000000E+00 -1.136268660E+02  1.136268660E+02  0.000000000E+00  0.00000E+00  9.000E+00
      25     1     1     2     0     0 -1.923673336E+02  1.751803698E+02  1.005488879E+03  1.046100491E+03  1.250000000E+02  0.00000E+00  9.000E+00
      25     1     1     2     0     0  1.904010576E+02 -1.904876442E+02  2.711377253E+02  4.020929885E+02  1.250000000E+02  0.00000E+00  9.000E+00
      21     1     1     2   511   501  1.966275975E+00  1.530727445E+01 -2.570487222E+01  2.998198373E+01  6.743495762E-07  0.00000E+00  9.000E+00
#rwgt            1           1   4.2579586853843041E-002           4      190548           0
</event>
<event>
      5   9999  3.79277E-02  2.12996E+01 -1.00000E+00  1.64144E-01
      21    -1     0     0   502   512  0.000000000E+00  0.000000000E+00  6.602683316E+01  6.602683316E+01  0.000000000E+00  0.00000E+00  9.000E+00
      21    -1     0     0   501   502  0.000000000E+00  0.000000000E+00 -1.569159773E+03  1.569159773E+03  0.000000000E+00  0.00000E+00  9.000E+00
      25     1     1     2     0     0  5.704322831E+00  2.404908121E+02 -1.001179456E+03  1.037233664E+03  1.250000000E+02  0.00000E+00  9.000E+00
      25     1     1     2     0     0  9.195530714E+00 -2.557113944E+02 -5.014215552E+02  5.766467298E+02  1.250000000E+02  0.00000E+00  9.000E+00
      21     1     1     2   501   512 -1.489985354E+01  1.522058227E+01 -5.319289217E-01  2.130621291E+01  5.429730419E-07  0.00000E+00  9.000E+00
#rwgt            1           1   6.9628727401522511E-002           4      190752           0
</event>
<event>
      5   9999  3.79277E-02  1.08348E+02 -1.00000E+00  1.22282E-01
      21    -1     0     0   511   501  0.000000000E+00  0.000000000E+00  2.459365122E+02  2.459365122E+02  0.000000000E+00  0.00000E+00  9.000E+00
      21    -1     0     0   501   502  0.000000000E+00  0.000000000E+00 -2.928463268E+02  2.928463268E+02  0.000000000E+00  0.00000E+00  9.000E+00
      25     1     1     2     0     0 -1.089505825E+02  3.131904748E+01 -3.320352406E+00  1.687813287E+02  1.250000000E+02  0.00000E+00  9.000E+00
      25     1     1     2     0     0  8.680743714E+01 -1.373800184E+02 -1.198724728E+02  2.374936006E+02  1.250000000E+02  0.00000E+00  9.000E+00
      21     1     1     2   511   502  2.214314537E+01  1.060609709E+02  7.628301055E+01  1.325079097E+02  0.000000000E+00  0.00000E+00  9.000E+00
#rwgt            1           1   4.4912133757458658E-002           4      190935           0
</event>
<event>
      5   9999  3.79277E-02  3.60443E+01 -1.00000E+00  1.47702E-01
      21    -1     0     0   502   512  0.000000000E+00  0.000000000E+00  1.051039655E+02  1.051039655E+02  0.000000000E+00  0.00000E+00  9.000E+00
      21    -1     0     0   501   502  0.000000000E+00  0.000000000E+00 -2.499938264E+02  2.499938264E+02  0.000000000E+00  0.00000E+00  9.000E+00
      25     1     1     2     0     0  8.208205932E+00 -8.223443211E+01 -6.085374289E+01  1.617345186E+02  1.250000000E+02  0.00000E+00  9.000E+00
      25     1     1     2     0     0  1.672869266E+01  5.620857503E+01 -6.807621840E+01  1.539435760E+02  1.250000000E+02  0.00000E+00  9.000E+00
      21     1     1     2   501   512 -2.493689859E+01  2.602585708E+01 -1.595989963E+01  3.941969742E+01  3.371747881E-07  0.00000E+00  9.000E+00
#rwgt            1           1   5.5577790996707357E-002           4      191090           0
</event>
<event>
      5   9999  3.79277E-02  1.81429E+02 -1.00000E+00  1.13211E-01
       1    -1     0     0   502     0  0.000000000E+00  0.000000000E+00  3.596175765E+03  3.596175765E+03  0.000000000E+00  0.00000E+00  9.000E+00
      21    -1     0     0   501   502  0.000000000E+00  0.000000000E+00 -3.185962532E+02  3.185962532E+02  0.000000000E+00  0.00000E+00  9.000E+00
      25     1     1     2     0     0  1.427486243E+02 -9.399528645E+01 -1.786998928E+01  2.125008709E+02  1.250000000E+02  0.00000E+00  9.000E+00
      25     1     1     2     0     0  2.653281022E+01  1.592651234E+02 -1.491709056E+02  2.528761132E+02  1.250000000E+02  0.00000E+00  9.000E+00
       1     1     1     2   501     0 -1.692814345E+02 -6.526983691E+01  3.444620407E+03  3.449395034E+03  4.315837288E-05  0.00000E+00  9.000E+00
#rwgt            1           1   4.7736736141668179E-002           4      191185           0
</event>
<event>
      5   9999  3.79277E-02  3.24118E+01 -1.00000E+00  1.50743E-01
      21    -1     0     0   502   511  0.000000000E+00  0.000000000E+00  1.204419030E+03  1.204419030E+03  0.000000000E+00  0.00000E+00  9.000E+00
      21    -1     0     0   501   502  0.000000000E+00  0.000000000E+00 -1.043772187E+02  1.043772187E+02  0.000000000E+00  0.00000E+00  9.000E+00
      25     1     1     2     0     0  3.472118296E+01 -2.510470480E+02  1.803483000E+02  3.352322928E+02  1.250000000E+02  0.00000E+00  9.000E+00
      25     1     1     2     0     0 -3.124133294E+00  2.582687358E+02  8.251233124E+02  8.735937161E+02  1.250000000E+02  0.00000E+00  9.000E+00
      21     1     1     2   501   511 -3.159704966E+01 -7.221687818E+00  9.457019907E+01  9.997023995E+01  1.907348633E-06  0.00000E+00  9.000E+00
#rwgt            1           1   2.8250633045930295E-002           4      191232           0
</event>
<event>
      5   9999  3.79277E-02  1.13789E+02 -1.00000E+00  1.21356E-01
      21    -1     0     0   502   501  0.000000000E+00  0.000000000E+00  2.374231644E+03  2.374231644E+03  0.000000000E+00  0.00000E+00  9.000E+00
       4    -1     0     0   501     0  0.000000000E+00  0.000000000E+00 -1.376925745E+02  1.376925745E+02  0.000000000E+00  0.00000E+00  9.000E+00
      25     1     1     2     0     0  1.385157404E+02 -1.188803050E+02  1.391946160E+03  1.409417699E+03  1.250000000E+02  0.00000E+00  9.000E+00
      25     1     1     2     0     0 -2.493482112E+01  1.257550339E+02  9.382180070E+02  9.551513506E+02  1.250000000E+02  0.00000E+00  9.000E+00
       4     1     1     2   502     0 -1.135809192E+02 -6.874728892E+00 -9.362509722E+01  1.473551694E+02  1.348699152E-06  0.00000E+00  9.000E+00
#rwgt            1           1   5.4165872848001458E-002           4      191378           0
</event>
<event>
      5   9999  3.79277E-02  3.48663E+01 -1.00000E+00  1.48640E-01
      21    -1     0     0   502   501  0.000000000E+00  0.000000000E+00  5.703549216E+01  5.703549216E+01  0.000000000E+00  0.00000E+00  9.000E+00
      21    -1     0     0   511   502  0.000000000E+00  0.000000000E+00 -1.551022640E+03  1.551022640E+03  0.000000000E+00  0.00000E+00  9.000E+00
      25     1     1     2     0     0 -1.190336381E+02 -1.005534087E+02 -2.669943879E+02  3.334531424E+02  1.250000000E+02  0.00000E+00  9.000E+00
      25     1     1     2     0     0  1.452260602E+02  7.753998131E+01 -4.326103790E+02  4.794578160E+02  1.250000000E+02  0.00000E+00  9.000E+00
      21     1     1     2   511   501 -2.619242211E+01  2.301342743E+01 -7.943823812E+02  7.951471741E+02  1.078959322E-05  0.00000E+00  9.000E+00
#rwgt            1           1   3.3287560032217584E-002           4      191504           0
</event>
<event>
      5   9999  3.79277E-02  1.07664E+02 -1.00000E+00  1.22402E-01
      21    -1     0     0   502   512  0.000000000E+00  0.000000000E+00  6.174827761E+02  6.174827761E+02  0.000000000E+00  0.00000E+00  9.000E+00
      21    -1     0     0   501   502  0.000000000E+00  0.000000000E+00 -6.749158759E+02  6.749158759E+02  0.000000000E+00  0.00000E+00  9.000E+00
      25     1     1     2     0     0 -1.360014986E+02 -1.715577459E+02 -4.292974778E+02  4.978451488E+02  1.250000000E+02  0.00000E+00  9.000E+00
      25     1     1     2     0     0  3.102137626E+01  1.954483729E+02 -1.391602978E+02  2.723104492E+02  1.250000000E+02  0.00000E+00  9.000E+00
      21     1     1     2   501   512  1.049801223E+02 -2.389062702E+01  5.110246758E+02  5.222430540E+02  1.078959322E-05  0.00000E+00  9.000E+00
#rwgt            2          11   5.8181884755400641E-003           4      191686           0
</event>
<event>
      5   9999  3.79277E-02  6.66484E+01 -1.00000E+00  1.32309E-01
      21    -1     0     0   502   501  0.000000000E+00  0.000000000E+00  4.361617244E+02  4.361617244E+02  0.000000000E+00  0.00000E+00  9.000E+00
      21    -1     0     0   511   502  0.000000000E+00  0.000000000E+00 -6.025268067E+02  6.025268067E+02  0.000000000E+00  0.00000E+00  9.000E+00
      25     1     1     2     0     0  1.735954892E+02 -7.935626641E+01 -2.279703938E+02  3.225342018E+02  1.250000000E+02  0.00000E+00  9.000E+00
      25     1     1     2     0     0 -1.412519361E+02  1.376306417E+02  3.496799231E+02  4.204703933E+02  1.250000000E+02  0.00000E+00  9.000E+00
      21     1     1     2   511   501 -3.234355310E+01 -5.827437533E+01 -2.880746115E+02  2.956839361E+02  5.394796609E-06  0.00000E+00  9.000E+00
#rwgt            1           1   4.2287519878658336E-002           4      191826           0
</event>
<event>
      5   9999  3.79277E-02  6.57289E+01 -1.00000E+00  1.32621E-01
      -2    -1     0     0     0   501  0.000000000E+00  0.000000000E+00  2.035274690E+02  2.035274690E+02  0.000000000E+00  0.00000E+00  9.000E+00
      21    -1     0     0   501   502  0.000000000E+00  0.000000000E+00 -9.340395794E+02  9.340395794E+02  0.000000000E+00  0.00000E+00  9.000E+00
      25     1     1     2     0     0 -2.209392091E+01 -4.138131602E+00 -1.016996434E+02  1.627055098E+02  1.250000000E+02  0.00000E+00  9.000E+00
      25     1     1     2     0     0 -4.157526748E+01  2.046352181E+01 -7.898004039E+02  8.009724943E+02  1.250000000E+02  0.00000E+00  9.000E+00
      -2     1     1     2     0   502  6.366918839E+01 -1.632539021E+01  1.609879369E+02  1.738890443E+02  0.000000000E+00  0.00000E+00  9.000E+00
#rwgt            1           1   4.6232793508303276E-002           4      191959           0
</event>
<event>
      5   9999  3.79277E-02  5.38381E+01 -1.00000E+00  1.37267E-01
      21    -1     0     0   502   501  0.000000000E+00  0.000000000E+00  6.750851112E+02  6.750851112E+02  0.000000000E+00  0.00000E+00  9.000E+00
      21    -1     0     0   501   511  0.000000000E+00  0.000000000E+00 -2.614233883E+02  2.614233883E+02  0.000000000E+00  0.00000E+00  9.000E+00
      25     1     1     2     0     0 -7.193546303E+01  9.097908528E+01 -8.466037508E+00  1.707295481E+02  1.250000000E+02  0.00000E+00  9.000E+00
      25     1     1     2     0     0  7.793518947E+01 -3.747629172E+01  5.796828683E+02  5.992792287E+02  1.250000000E+02  0.00000E+00  9.000E+00
      21     1     1     2   502   511 -5.999726437E+00 -5.350279356E+01 -1.575551079E+02  1.664997227E+02  0.000000000E+00  0.00000E+00  9.000E+00
#rwgt            1           1   4.0039772893014768E-002           4      192030           0
</event>
<event>
      5   9999  3.79277E-02  2.74077E+01 -1.00000E+00  1.55817E-01
      21    -1     0     0   512   501  0.000000000E+00  0.000000000E+00  1.331294376E+02  1.331294376E+02  0.000000000E+00  0.00000E+00  9.000E+00
      21    -1     0     0   501   502  0.000000000E+00  0.000000000E+00 -4.066018106E+02  4.066018106E+02  0.000000000E+00  0.00000E+00  9.000E+00
      25     1     1     2     0     0 -7.857994271E+01 -1.425862501E+02 -2.299871529E+02  3.082608256E+02  1.250000000E+02  0.00000E+00  9.000E+00
      25     1     1     2     0     0  5.125575693E+01  1.447245552E+02 -2.789448178E+01  1.999386196E+02  1.250000000E+02  0.00000E+00  9.000E+00
      21     1     1     2   512   502  2.732418578E+01 -2.138305072E+00 -1.559073830E+01  3.153180296E+01  1.685873940E-07  0.00000E+00  9.000E+00
#rwgt            1           1   4.0205332844078456E-002           4      192146           0
</event>
<event>
      5   9999 -3.79277E-02  2.65529E+01 -1.00000E+00  1.56815E-01
      21    -1     0     0   502   501  0.000000000E+00  0.000000000E+00  2.096620355E+02  2.096620355E+02  0.000000000E+00  0.00000E+00  9.000E+00
      21    -1     0     0   501   511  0.000000000E+00  0.000000000E+00 -3.578967944E+02  3.578967944E+02  0.000000000E+00  0.00000E+00  9.000E+00
      25     1     1     2     0     0  2.230882560E+01  2.106938677E+02  3.622771231E+01  2.486504308E+02  1.250000000E+02  0.00000E+00  9.000E+00
      25     1     1     2     0     0 -4.187920785E+01 -1.927478772E+02 -1.632577782E+02  2.849275598E+02  1.250000000E+02  0.00000E+00  9.000E+00
      21     1     1     2   502   511  1.957038225E+01 -1.794599051E+01 -2.120469307E+01  3.398083938E+01  2.384185791E-07  0.00000E+00  9.000E+00
#rwgt            1           1  -5.7534343606690458E-003           4      192505           0
</event>
<event>
      5   9999  3.79277E-02  3.32153E+01 -1.00000E+00  1.50031E-01
      21    -1     0     0   512   501  0.000000000E+00  0.000000000E+00  2.144601440E+02  2.144601440E+02  0.000000000E+00  0.00000E+00  9.000E+00
      21    -1     0     0   501   502  0.000000000E+00  0.000000000E+00 -1.426040702E+03  1.426040702E+03  0.000000000E+00  0.00000E+00  9.000E+00
      25     1     1     2     0     0 -9.449938721E+01  6.620861116E+01 -1.196990515E+02  2.080061953E+02  1.250000000E+02  0.00000E+00  9.000E+00
      25     1     1     2     0     0  6.617737359E+01 -8.356137426E+01 -1.255163655E+03  1.265868377E+03  1.250000000E+02  0.00000E+00  9.000E+00
      21     1     1     2   512   502  2.832201362E+01  1.735276310E+01  1.632821486E+02  1.666262731E+02  0.000000000E+00  0.00000E+00  9.000E+00
#rwgt            1           1   4.5457836659167923E-002           4      192682           0
</event>
<event>
      5   9999  3.79277E-02  3.83291E+01 -1.00000E+00  1.45999E-01
      21    -1     0     0   502   501  0.000000000E+00  0.000000000E+00  1.166294460E+03  1.166294460E+03  0.000000000E+00  0.00000E+00  9.000E+00
      21    -1     0     0   501   511  0.000000000E+00  0.000000000E+00 -6.611178446E+02  6.611178446E+02  0.000000000E+00  0.00000E+00  9.000E+00
      25     1     1     2     0     0 -2.029550759E+01  3.893440704E+01  4.644232566E+01  1.403911867E+02  1.250000000E+02  0.00000E+00  9.000E+00
      25     1     1     2     0     0  1.295534066E+01 -1.314727678E+00  1.068593574E+03  1.075958547E+03  1.250000000E+02  0.00000E+00  9.000E+00
      21     1     1     2   502   511  7.340166931E+00 -3.761967936E+01 -6.098592843E+02  6.110625704E+02  7.629394531E-06  0.00000E+00  9.000E+00
#rwgt            1           1   4.8510290183907130E-002           4      192832           0
</event>
<event>
      5   9999  3.79277E-02  4.00329E+01 -1.00000E+00  1.44818E-01
      21    -1     0     0   512   501  0.000000000E+00  0.000000000E+00  1.523848290E+02  1.523848290E+02  0.000000000E+00  0.00000E+00  9.000E+00
      21    -1     0     0   501   502  0.000000000E+00  0.000000000E+00 -3.507454905E+02  3.507454905E+02  0.000000000E+00  0.00000E+00  9.000E+00
      25     1     1     2     0     0  7.628938573E+01 -2.993086085E+01  4.431551964E+01  1.558999426E+02  1.250000000E+02  0.00000E+00  9.000E+00
      25     1     1     2     0     0 -1.104631994E+02  5.078229635E+01 -2.516926979E+02  3.061946672E+02  1.250000000E+02  0.00000E+00  9.000E+00
      21     1     1     2   512   502  3.417381365E+01 -2.085143550E+01  9.016516770E+00  4.103570977E+01  8.172577143E-07  0.00000E+00  9.000E+00
#rwgt            1           1   3.7772828566560598E-002           4      192969           0
</event>
<event>
      5   9999  3.79277E-02  8.57169E+01 -1.00000E+00  1.26915E-01
       1    -1     0     0   502     0  0.000000000E+00  0.000000000E+00  2.503916124E+03  2.503916124E+03  0.000000000E+00  0.00000E+00  9.000E+00
      21    -1     0     0   501   502  0.000000000E+00  0.000000000E+00 -3.110203035E+01  3.110203035E+01  0.000000000E+00  0.00000E+00  9.000E+00
      25     1     1     2     0     0  1.268633136E+01  6.101850029E+01  1.280210638E+03  1.287807624E+03  1.250000000E+02  0.00000E+00  9.000E+00
      25     1     1     2     0     0  2.281161706E+01 -1.390395898E+02  3.269561148E+02  3.773296681E+02  1.250000000E+02  0.00000E+00  9.000E+00
       1     1     1     2   501     0 -3.549794842E+01  7.802108954E+01  8.656473406E+02  8.698808614E+02  1.525878906E-05  0.00000E+00  9.000E+00
#rwgt            1           1   2.7095238221256167E-002           4      193307           0
</event>
<event>
      5   9999  3.79277E-02  1.27543E+01 -1.00000E+00  1.84287E-01
      21    -1     0     0   502   501  0.000000000E+00  0.000000000E+00  3.589231294E+01  3.589231294E+01  0.000000000E+00  0.00000E+00  9.000E+00
      21    -1     0     0   501   511  0.000000000E+00  0.000000000E+00 -2.624844389E+03  2.624844389E+03  0.000000000E+00  0.00000E+00  9.000E+00
      25     1     1     2     0     0 -1.068362783E+02 -7.212626811E+01 -2.697689305E+02  3.240624396E+02  1.250000000E+02  0.00000E+00  9.000E+00
      25     1     1     2     0     0  1.170452459E+02  6.448103238E+01 -9.516755317E+02  9.691071720E+02  1.250000000E+02  0.00000E+00  9.000E+00
      21     1     1     2   502   511 -1.020896755E+01  7.645235730E+00 -1.367507614E+03  1.367567090E+03  0.000000000E+00  0.00000E+00  9.000E+00
#rwgt            1           1   4.3808990265972562E-002           4      193368           0
</event>
<event>
      5   9999  3.79277E-02  3.12642E+01 -1.00000E+00  1.51805E-01
      21    -1     0     0   512   501  0.000000000E+00  0.000000000E+00  4.055601359E+02  4.055601359E+02  0.000000000E+00  0.00000E+00  9.000E+00
      21    -1     0     0   501   502  0.000000000E+00  0.000000000E+00 -2.819762230E+02  2.819762230E+02  0.000000000E+00  0.00000E+00  9.000E+00
      25     1     1     2     0     0 -1.689892378E+02  2.091377354E+02 -4.028467430E+01  2.992387171E+02  1.250000000E+02  0.00000E+00  9.000E+00
      25     1     1     2     0     0  1.993677199E+02 -2.165268313E+02  1.572179245E+02  3.563338774E+02  1.250000000E+02  0.00000E+00  9.000E+00
      21     1     1     2   512   502 -3.037848212E+01  7.389095886E+00  6.650662663E+00  3.196376429E+01  5.397430145E-07  0.00000E+00  9.000E+00
#rwgt            1           1   2.6073526915607482E-002           4      193655           0
</event>
<event>
      5   9999  3.79277E-02  1.13611E+02 -1.00000E+00  1.21386E-01
      21    -1     0     0   502   501  0.000000000E+00  0.000000000E+00  6.775463234E+01  6.775463234E+01  0.000000000E+00  0.00000E+00  9.000E+00
      21    -1     0     0   501   511  0.000000000E+00  0.000000000E+00 -1.031904000E+03  1.031904000E+03  0.000000000E+00  0.00000E+00  9.000E+00
      25     1     1     2     0     0  5.544346779E+01 -1.372535474E+02 -6.802982233E+02  7.073494094E+02  1.250000000E+02  0.00000E+00  9.000E+00
      25     1     1     2     0     0  6.217241382E+00  4.183140549E+01 -6.815395236E+01  1.485209810E+02  1.250000000E+02  0.00000E+00  9.000E+00
      21     1     1     2   502   511 -6.166070917E+01  9.542214196E+01 -2.156971916E+02  2.437882415E+02  0.000000000E+00  0.00000E+00  9.000E+00
#rwgt            1           1   3.6785666745963112E-002           4      193883           0
</event>
<event>
      5   9999  3.79277E-02  1.10475E+01 -1.00000E+00  1.90885E-01
      21    -1     0     0   502   501  0.000000000E+00  0.000000000E+00  2.349600132E+02  2.349600132E+02  0.000000000E+00  0.00000E+00  9.000E+00
      21    -1     0     0   512   502  0.000000000E+00  0.000000000E+00 -3.919440492E+02  3.919440492E+02  0.000000000E+00  0.00000E+00  9.000E+00
      25     1     1     2     0     0  3.030063404E+01 -1.088165541E+02  1.788883321E+02  2.457340152E+02  1.250000000E+02  0.00000E+00  9.000E+00
      25     1     1     2     0     0 -4.105560910E+01  1.062912757E+02 -3.134073457E+02  3.561355959E+02  1.250000000E+02  0.00000E+00  9.000E+00
      21     1     1     2   512   501  1.075497506E+01  2.525278425E+00 -2.246502248E+01  2.503445135E+01  4.768371582E-07  0.00000E+00  9.000E+00
#rwgt            1           1   3.8184724398174594E-002           4      194045           0
</event>
<event>
      5   9999  3.79277E-02  1.49930E+02 -1.00000E+00  1.16402E-01
      21    -1     0     0   511   501  0.000000000E+00  0.000000000E+00  2.170262777E+02  2.170262777E+02  0.000000000E+00  0.00000E+00  9.000E+00
      21    -1     0     0   501   502  0.000000000E+00  0.000000000E+00 -5.287048661E+02  5.287048661E+02  0.000000000E+00  0.00000E+00  9.000E+00
      25     1     1     2     0     0  1.313704340E+01 -5.425096809E+01  1.464421417E+01  1.376778939E+02  1.250000000E+02  0.00000E+00  9.000E+00
      25     1     1     2     0     0  1.365833839E+02  4.631878338E+01 -3.983564508E+02  4.417163257E+02  1.250000000E+02  0.00000E+00  9.000E+00
      21     1     1     2   511   502 -1.497204273E+02  7.932184710E+00  7.203364822E+01  1.663369243E+02  9.536743164E-07  0.00000E+00  9.000E+00
#rwgt            1           1   5.2238983813658796E-002           4      194323           0
</event>
<event>
      5   9999  3.79277E-02  5.03873E+01 -1.00000E+00  1.38885E-01
      21    -1     0     0   502   501  0.000000000E+00  0.000000000E+00  1.515669146E+02  1.515669146E+02  0.000000000E+00  0.00000E+00  9.000E+00
      21    -1     0     0   501   512  0.000000000E+00  0.000000000E+00 -1.133034071E+03  1.133034071E+03  0.000000000E+00  0.00000E+00  9.000E+00
      25     1     1     2     0     0 -1.659735493E+02 -2.501501863E+02 -3.375390573E+02  4.687002774E+02  1.250000000E+02  0.00000E+00  9.000E+00
      25     1     1     2     0     0  2.129382054E+02  2.684038894E+02 -3.113522012E+02  4.795294781E+02  1.250000000E+02  0.00000E+00  9.000E+00
      21     1     1     2   502   512 -4.696465607E+01 -1.825370317E+01 -3.325758978E+02  3.363712300E+02  3.814697266E-06  0.00000E+00  9.000E+00
#rwgt            1           1   3.5194803577585330E-002           4      194383           0
</event>
<event>
      5   9999  3.79277E-02  3.47988E+01 -1.00000E+00  1.48695E-01
      21    -1     0     0   502   511  0.000000000E+00  0.000000000E+00  4.526529918E+02  4.526529918E+02  0.000000000E+00  0.00000E+00  9.000E+00
      21    -1     0     0   501   502  0.000000000E+00  0.000000000E+00 -1.876821669E+02  1.876821669E+02  0.000000000E+00  0.00000E+00  9.000E+00
      25     1     1     2     0     0 -1.985579992E+02  6.557522320E+01  4.097795134E+01  2.470416593E+02  1.250000000E+02  0.00000E+00  9.000E+00
      25     1     1     2     0     0  1.683310875E+02 -4.833312210E+01  5.682673263E+01  2.225437558E+02  1.250000000E+02  0.00000E+00  9.000E+00
      21     1     1     2   501   511  3.022691169E+01 -1.724210110E+01  1.671661409E+02  1.707497435E+02  0.000000000E+00  0.00000E+00  9.000E+00
#rwgt            1           1   3.9131266980324916E-002           4      194721           0
</event>
<event>
      5   9999  3.79277E-02  1.03567E+01 -1.00000E+00  1.94014E-01
      21    -1     0     0   502   501  0.000000000E+00  0.000000000E+00  2.304300951E+03  2.304300951E+03  0.000000000E+00  0.00000E+00  9.000E+00
      21    -1     0     0   501   512  0.000000000E+00  0.000000000E+00 -3.243082360E+01  3.243082360E+01  0.000000000E+00  0.00000E+00  9.000E+00
      25     1     1     2     0     0  1.452453157E+02 -1.091168666E+02  5.137880233E+02  5.591116393E+02  1.250000000E+02  0.00000E+00  9.000E+00
      25     1     1     2     0     0 -1.436444522E+02  1.193491335E+02  1.750293629E+03  1.764661648E+03  1.250000000E+02  0.00000E+00  9.000E+00
      21     1     1     2   502   512 -1.600863497E+00 -1.023226687E+01  7.788475217E+00  1.295848739E+01  4.768371582E-07  0.00000E+00  9.000E+00
#rwgt            1           1  0.10781574539534074                4      194800           0
</event>
<event>
      5   9999  3.79277E-02  3.69025E+01 -1.00000E+00  1.47045E-01
      21    -1     0     0   502   501  0.000000000E+00  0.000000000E+00  8.699539562E+02  8.699539562E+02  0.000000000E+00  0.00000E+00  9.000E+00
       1    -1     0     0   501     0  0.000000000E+00  0.000000000E+00 -1.694202945E+03  1.694202945E+03  0.000000000E+00  0.00000E+00  9.000E+00
      25     1     1     2     0     0  3.935377527E+01  8.061358666E+01  6.870273713E+02  7.040446569E+02  1.250000000E+02  0.00000E+00  9.000E+00
      25     1     1     2     0     0 -1.378510582E+01 -1.072225098E+02  1.350177956E+02  2.134045475E+02  1.250000000E+02  0.00000E+00  9.000E+00
       1     1     1     2   502     0 -2.556866945E+01  2.660892315E+01 -1.646294156E+03  1.646707697E+03  0.000000000E+00  0.00000E+00  9.000E+00
#rwgt            1           1   3.0325626868195253E-002           4      195167           0
</event>
<event>
      5   9999  3.79277E-02  6.14093E+01 -1.00000E+00  1.34167E-01
      21    -1     0     0   502   501  0.000000000E+00  0.000000000E+00  1.401678985E+02  1.401678985E+02  0.000000000E+00  0.00000E+00  9.000E+00
      21    -1     0     0   501   511  0.000000000E+00  0.000000000E+00 -9.791370215E+02  9.791370215E+02  0.000000000E+00  0.00000E+00  9.000E+00
      25     1     1     2     0     0  1.945073086E+02  1.800384359E+01 -2.192724876E+02  3.191592946E+02  1.250000000E+02  0.00000E+00  9.000E+00
      25     1     1     2     0     0 -2.146269296E+02 -7.602371766E+01 -1.023802772E+02  2.791971449E+02  1.250000000E+02  0.00000E+00  9.000E+00
      21     1     1     2   502   511  2.011962095E+01  5.801987407E+01 -5.173163581E+02  5.209484805E+02  1.078959322E-05  0.00000E+00  9.000E+00
#rwgt            2          11   8.6386071544962949E-004           4      195450           0
</event>
<event>
      5   9999  3.79277E-02  1.16424E+02 -1.00000E+00  1.20929E-01
      21    -1     0     0   502   501  0.000000000E+00  0.000000000E+00  1.520379182E+03  1.520379182E+03  0.000000000E+00  0.00000E+00  9.000E+00
      21    -1     0     0   501   512  0.000000000E+00  0.000000000E+00 -5.503631686E+02  5.503631686E+02  0.000000000E+00  0.00000E+00  9.000E+00
      25     1     1     2     0     0  1.957471931E+02  2.292456700E+02  7.582792266E+02  8.255197916E+02  1.250000000E+02  0.00000E+00  9.000E+00
      25     1     1     2     0     0 -2.096934131E+02 -1.136597829E+02  6.964634394E+02  7.467102492E+02  1.250000000E+02  0.00000E+00  9.000E+00
      21     1     1     2   502   512  1.394621992E+01 -1.155858872E+02 -4.847266531E+02  4.985123094E+02  1.206313194E-05  0.00000E+00  9.000E+00
#rwgt            1           1   1.6516853852847693E-002           4      195485           0
</event>
<event>
      5   9999  3.79277E-02  9.65092E+01 -1.00000E+00  1.24526E-01
      21    -1     0     0   502   501  0.000000000E+00  0.000000000E+00  4.747890970E+02  4.747890970E+02  0.000000000E+00  0.00000E+00  9.000E+00
       1    -1     0     0   501     0  0.000000000E+00  0.000000000E+00 -3.339862190E+02  3.339862190E+02  0.000000000E+00  0.00000E+00  9.000E+00
      25     1     1     2     0     0  7.585194003E+01 -7.143816709E+01 -2.189483941E+01  1.641990028E+02  1.250000000E+02  0.00000E+00  9.000E+00
      25     1     1     2     0     0 -5.843242397E+01 -2.348596981E+01  3.809979120E+02  4.058945034E+02  1.250000000E+02  0.00000E+00  9.000E+00
       1     1     1     2   502     0 -1.741951606E+01  9.492413690E+01 -2.183001947E+02  2.386818097E+02  2.697398305E-06  0.00000E+00  9.000E+00
#rwgt            1           1   2.2254229446139657E-002           4      195603           0
</event>
<event>
      5   9999  3.79277E-02  2.40940E+01 -1.00000E+00  1.59961E-01
      21    -1     0     0   502   501  0.000000000E+00  0.000000000E+00  3.967567370E+02  3.967567370E+02  0.000000000E+00  0.00000E+00  9.000E+00
      21    -1     0     0   501   511  0.000000000E+00  0.000000000E+00 -1.037697101E+02  1.037697101E+02  0.000000000E+00  0.00000E+00  9.000E+00
      25     1     1     2     0     0  1.052725595E+02  6.583139061E+00  2.289301000E+02  2.813532303E+02  1.250000000E+02  0.00000E+00  9.000E+00
      25     1     1     2     0     0 -1.252133393E+02 -2.010668733E+01  7.435955900E+01  1.929689178E+02  1.250000000E+02  0.00000E+00  9.000E+00
      21     1     1     2   502   511  1.994077977E+01  1.352354827E+01 -1.030263213E+01  2.620429897E+01  3.576278687E-07  0.00000E+00  9.000E+00
#rwgt            1           1   3.0880044819199644E-002           4      195654           0
</event>
<event>
      5   9999  3.79277E-02  2.89862E+01 -1.00000E+00  1.54084E-01
      21    -1     0     0   512   501  0.000000000E+00  0.000000000E+00  1.582366054E+02  1.582366054E+02  0.000000000E+00  0.00000E+00  9.000E+00
      21    -1     0     0   501   502  0.000000000E+00  0.000000000E+00 -6.958999021E+02  6.958999021E+02  0.000000000E+00  0.00000E+00  9.000E+00
      25     1     1     2     0     0  2.117879943E+02 -1.773205316E+02 -3.183661522E+02  4.396347715E+02  1.250000000E+02  0.00000E+00  9.000E+00
      25     1     1     2     0     0 -1.941473721E+02  2.003207509E+02 -2.310893101E+02  3.832086567E+02  1.250000000E+02  0.00000E+00  9.000E+00
      21     1     1     2   512   502 -1.764062220E+01 -2.300021925E+01  1.179216565E+01  3.129307923E+01  4.460403188E-07  0.00000E+00  9.000E+00
#rwgt            1           1   3.4175291337969455E-002           4      195868           0
</event>
<event>
      5   9999  3.79277E-02  3.21989E+01 -1.00000E+00  1.50936E-01
      21    -1     0     0   502   511  0.000000000E+00  0.000000000E+00  6.047015511E+02  6.047015511E+02  0.000000000E+00  0.00000E+00  9.000E+00
      21    -1     0     0   501   502  0.000000000E+00  0.000000000E+00 -6.743518645E+01  6.743518645E+01  0.000000000E+00  0.00000E+00  9.000E+00
      25     1     1     2     0     0 -5.569109123E+00  1.396371364E+00  4.634035460E+02  4.800008451E+02  1.250000000E+02  0.00000E+00  9.000E+00
      25     1     1     2     0     0 -6.250295264E+00  2.855480387E+01  2.076914462E+01  1.300415333E+02  1.250000000E+02  0.00000E+00  9.000E+00
      21     1     1     2   501   511  1.181940439E+01 -2.995117523E+01  5.309367403E+01  6.209435917E+01  1.168007728E-06  0.00000E+00  9.000E+00
#rwgt            1           1   2.9572960931755120E-002           4      196035           0
</event>
<event>
      5   9999  3.79277E-02  2.62261E+01 -1.00000E+00  1.57209E-01
      21    -1     0     0   512   501  0.000000000E+00  0.000000000E+00  5.142116727E+02  5.142116727E+02  0.000000000E+00  0.00000E+00  9.000E+00
      21    -1     0     0   501   502  0.000000000E+00  0.000000000E+00 -1.193176074E+03  1.193176074E+03  0.000000000E+00  0.00000E+00  9.000E+00
      25     1     1     2     0     0  1.260542363E+02  3.837089004E+01 -6.984300822E+02  7.216589052E+02  1.250000000E+02  0.00000E+00  9.000E+00
      25     1     1     2     0     0 -9.984479976E+01 -3.930538236E+01 -4.687261517E+02  4.968330730E+02  1.250000000E+02  0.00000E+00  9.000E+00
      21     1     1     2   512   502 -2.620943652E+01  9.344923222E-01  4.881918322E+02  4.888957689E+02  1.078959322E-05  0.00000E+00  9.000E+00
#rwgt            1           1   4.5742932603502998E-002           4      196194           0
</event>
<event>
      5   9999  3.79277E-02  9.86930E+00 -1.00000E+00  1.96420E-01
      21    -1     0     0   502   501  0.000000000E+00  0.000000000E+00  5.757399653E+02  5.757399653E+02  0.000000000E+00  0.00000E+00  9.000E+00
      21    -1     0     0   501   511  0.000000000E+00  0.000000000E+00 -4.231650887E+02  4.231650887E+02  0.000000000E+00  0.00000E+00  9.000E+00
      25     1     1     2     0     0 -1.329777210E+02 -4.238676294E+02  8.123816731E+00  4.615602213E+02  1.250000000E+02  0.00000E+00  9.000E+00
      25     1     1     2     0     0  1.393781886E+02  4.163551642E+02  1.872503826E+02  4.934223424E+02  1.250000000E+02  0.00000E+00  9.000E+00
      21     1     1     2   502   511 -6.400467599E+00  7.512465171E+00 -4.279932280E+01  4.392249026E+01  6.743495762E-07  0.00000E+00  9.000E+00
#rwgt            1           1  0.15323514382100448                4      196479           0
</event>
<event>
      5   9999 -3.79277E-02  5.62420E+01 -1.00000E+00  1.36222E-01
      21    -1     0     0   502   512  0.000000000E+00  0.000000000E+00  1.453648175E+02  1.453648175E+02  0.000000000E+00  0.00000E+00  9.000E+00
      21    -1     0     0   501   502  0.000000000E+00  0.000000000E+00 -3.941304902E+02  3.941304902E+02  0.000000000E+00  0.00000E+00  9.000E+00
      25     1     1     2     0     0 -1.091464194E+02  8.058915518E+01 -4.248042516E+01  1.893069976E+02  1.250000000E+02  0.00000E+00  9.000E+00
      25     1     1     2     0     0  1.269639330E+02 -1.339341974E+02 -1.862998216E+02  2.905010036E+02  1.250000000E+02  0.00000E+00  9.000E+00
      21     1     1     2   501   512 -1.781751358E+01  5.334504224E+01 -1.998542591E+01  5.968730661E+01  1.390207266E-06  0.00000E+00  9.000E+00
#rwgt            1           1 -0.34460956787882918                4      196851           0
</event>
<event>
      5   9999  3.79277E-02  2.11143E+01 -1.00000E+00  1.64449E-01
      21    -1     0     0   502   501  0.000000000E+00  0.000000000E+00  2.820607248E+03  2.820607248E+03  0.000000000E+00  0.00000E+00  9.000E+00
      21    -1     0     0   511   502  0.000000000E+00  0.000000000E+00 -1.889175105E+02  1.889175105E+02  0.000000000E+00  0.00000E+00  9.000E+00
      25     1     1     2     0     0 -1.532824183E+02  1.129256371E+02  9.636549288E+02  9.902037775E+02  1.250000000E+02  0.00000E+00  9.000E+00
      25     1     1     2     0     0  1.678260061E+02 -1.282323821E+02  1.834841788E+03  1.851183000E+03  1.250000000E+02  0.00000E+00  9.000E+00
      21     1     1     2   511   501 -1.454358785E+01  1.530674502E+01 -1.668069792E+02  1.681379811E+02  0.000000000E+00  0.00000E+00  9.000E+00
#rwgt            1           1   3.8551727581951953E-002           4      196995           0
</event>
<event>
      5   9999  3.79277E-02  1.26288E+01 -1.00000E+00  1.84726E-01
      21    -1     0     0   502   501  0.000000000E+00  0.000000000E+00  7.307711324E+01  7.307711324E+01  0.000000000E+00  0.00000E+00  9.000E+00
      21    -1     0     0   512   502  0.000000000E+00  0.000000000E+00 -8.259792636E+02  8.259792636E+02  0.000000000E+00  0.00000E+00  9.000E+00
      25     1     1     2     0     0  1.096490757E+02 -5.010662162E+01 -6.188469046E+01  1.843591827E+02  1.250000000E+02  0.00000E+00  9.000E+00
      25     1     1     2     0     0 -9.761201779E+01  5.392713956E+01 -6.650356349E+02  6.858087475E+02  1.250000000E+02  0.00000E+00  9.000E+00
      21     1     1     2   512   501 -1.203705792E+01 -3.820517935E+00 -2.598182499E+01  2.888844666E+01  3.371747881E-07  0.00000E+00  9.000E+00
#rwgt            1           1   4.3957105333200901E-002           4      197346           0
</event>
<event>
      5   9999  3.79277E-02  2.13739E+01 -1.00000E+00  1.64023E-01
      21    -1     0     0   502   511  0.000000000E+00  0.000000000E+00  1.832364791E+03  1.832364791E+03  0.000000000E+00  0.00000E+00  9.000E+00
      21    -1     0     0   501   502  0.000000000E+00  0.000000000E+00 -2.659239371E+01  2.659239371E+01  0.000000000E+00  0.00000E+00  9.000E+00
      25     1     1     2     0     0  1.479985271E+01  1.455086773E+02  6.579744399E+02  6.855269319E+02  1.250000000E+02  0.00000E+00  9.000E+00
      25     1     1     2     0     0 -2.046564510E+01 -1.661179913E+02  8.666658234E+02  8.914867802E+02  1.250000000E+02  0.00000E+00  9.000E+00
      21     1     1     2   501   511  5.665792391E+00  2.060931405E+01  2.811321344E+02  2.819434731E+02  6.607249480E-06  0.00000E+00  9.000E+00
#rwgt            1           1   2.2606222181384705E-002           4      197564           0
</event>
<event>
      5   9999  3.79277E-02  4.85222E+01 -1.00000E+00  1.39823E-01
      21    -1     0     0   502   501  0.000000000E+00  0.000000000E+00  1.079944562E+03  1.079944562E+03  0.000000000E+00  0.00000E+00  9.000E+00
      21    -1     0     0   512   502  0.000000000E+00  0.000000000E+00 -1.082131436E+02  1.082131436E+02  0.000000000E+00  0.00000E+00  9.000E+00
      25     1     1     2     0     0  7.419868853E+01  7.824740105E+01  2.087482858E+02  2.661370849E+02  1.250000000E+02  0.00000E+00  9.000E+00
      25     1     1     2     0     0 -1.136573499E+02 -5.000882648E+01  8.248145734E+02  8.434233553E+02  1.250000000E+02  0.00000E+00  9.000E+00
      21     1     1     2   512   501  3.945866137E+01 -2.823857457E+01 -6.183144073E+01  7.859726531E+01  2.236564522E-06  0.00000E+00  9.000E+00
#rwgt            1           1   1.8640439759387013E-002           4      197668           0
</event>
<event>
      5   9999  3.79277E-02  3.26478E+01 -1.00000E+00  1.50532E-01
      21    -1     0     0   502   501  0.000000000E+00  0.000000000E+00  4.887170541E+02  4.887170541E+02  0.000000000E+00  0.00000E+00  9.000E+00
      21    -1     0     0   511   502  0.000000000E+00  0.000000000E+00 -2.253416071E+02  2.253416071E+02  0.000000000E+00  0.00000E+00  9.000E+00
      25     1     1     2     0     0  7.510034078E+01  3.829033058E+01 -1.284072718E+02  1.980394861E+02  1.250000000E+02  0.00000E+00  9.000E+00
      25     1     1     2     0     0 -4.829049005E+01 -5.692118606E+01  4.367911697E+02  4.604166795E+02  1.250000000E+02  0.00000E+00  9.000E+00
      21     1     1     2   511   501 -2.680985073E+01  1.863085548E+01 -4.500845089E+01  5.560249566E+01  4.768371582E-07  0.00000E+00  9.000E+00
#rwgt            1           1   4.2246543732203073E-002           4      197807           0
</event>
<event>
      5   9999  3.79277E-02  4.56358E+01 -1.00000E+00  1.41377E-01
      21    -1     0     0   512   501  0.000000000E+00  0.000000000E+00  1.759344616E+02  1.759344616E+02  0.000000000E+00  0.00000E+00  9.000E+00
      21    -1     0     0   501   502  0.000000000E+00  0.000000000E+00 -6.869572061E+02  6.869572061E+02  0.000000000E+00  0.00000E+00  9.000E+00
      25     1     1     2     0     0  6.800787096E+01 -7.045983542E+01 -3.513018774E+02  3.855225908E+02  1.250000000E+02  0.00000E+00  9.000E+00
      25     1     1     2     0     0 -9.815883446E+01  3.620281395E+01 -2.936607238E+02  3.358681605E+02  1.250000000E+02  0.00000E+00  9.000E+00
      21     1     1     2   512   502  3.015096350E+01  3.425702148E+01  1.339398568E+02  1.415009164E+02  1.907348633E-06  0.00000E+00  9.000E+00
#rwgt            1           1   2.5629023035537123E-002           4      197972           0
</event>
<event>
      5   9999  3.79277E-02  3.26644E+01 -1.00000E+00  1.50517E-01
       2    -1     0     0   502     0  0.000000000E+00  0.000000000E+00  7.330466693E+02  7.330466693E+02  0.000000000E+00  0.00000E+00  9.000E+00
      21    -1     0     0   501   502  0.000000000E+00  0.000000000E+00 -1.422219399E+02  1.422219399E+02  0.000000000E+00  0.00000E+00  9.000E+00
      25     1     1     2     0     0  3.662935732E+01 -1.734789573E+02 -2.346348756E+01  2.182021854E+02  1.250000000E+02  0.00000E+00  9.000E+00
      25     1     1     2     0     0 -3.934890206E+01  1.409279322E+02  4.477354766E+02  4.873408203E+02  1.250000000E+02  0.00000E+00  9.000E+00
       2     1     1     2   501     0  2.719544741E+00  3.255102517E+01  1.665527404E+02  1.697256035E+02  2.697398305E-06  0.00000E+00  9.000E+00
#rwgt            1           1   3.7677511760924216E-002           4      198154           0
</event>
<event>
      5   9999  3.79277E-02  1.52020E+01 -1.00000E+00  1.76838E-01
      21    -1     0     0   502   501  0.000000000E+00  0.000000000E+00  4.571794744E+02  4.571794744E+02  0.000000000E+00  0.00000E+00  9.000E+00
       2    -1     0     0   501     0  0.000000000E+00  0.000000000E+00 -8.941935590E+02  8.941935590E+02  0.000000000E+00  0.00000E+00  9.000E+00
      25     1     1     2     0     0 -4.241773099E+01 -1.990218984E+02  7.597035337E+01  2.506102044E+02  1.250000000E+02  0.00000E+00  9.000E+00
      25     1     1     2     0     0  3.414094841E+01  2.117732477E+02  2.413654839E+02  3.462597430E+02  1.250000000E+02  0.00000E+00  9.000E+00
       2     1     1     2   502     0  8.276782582E+00 -1.275134933E+01 -7.543499219E+02  7.545030860E+02  1.078959322E-05  0.00000E+00  9.000E+00
#rwgt            1           1   1.6378608356990839E-002           4      198274           0
</event>
<event>
      5   9999 -3.79277E-02  6.51109E+01 -1.00000E+00  1.32833E-01
      21    -1     0     0   502   511  0.000000000E+00  0.000000000E+00  6.802327282E+02  6.802327282E+02  0.000000000E+00  0.00000E+00  9.000E+00
      21    -1     0     0   501   502  0.000000000E+00  0.000000000E+00 -2.413055913E+02  2.413055913E+02  0.000000000E+00  0.00000E+00  9.000E+00
      25     1     1     2     0     0  3.167878172E+01 -2.616255921E+02  3.917692778E+01  2.942980247E+02  1.250000000E+02  0.00000E+00  9.000E+00
      25     1     1     2     0     0 -6.104759119E+01  3.197366605E+02  1.690091327E+02  3.874886158E+02  1.250000000E+02  0.00000E+00  9.000E+00
      21     1     1     2   501   511  2.936880947E+01 -5.811106840E+01  2.307410764E+02  2.397516790E+02  2.697398305E-06  0.00000E+00  9.000E+00
#rwgt            1           1 -0.14648249890432896                4      198499           0
</event>
<event>
      5   9999  3.79277E-02  1.57329E+01 -1.00000E+00  1.75454E-01
      21    -1     0     0   512   501  0.000000000E+00  0.000000000E+00  2.738671237E+02  2.738671237E+02  0.000000000E+00  0.00000E+00  9.000E+00
      21    -1     0     0   501   502  0.000000000E+00  0.000000000E+00 -1.901772392E+02  1.901772392E+02  0.000000000E+00  0.00000E+00  9.000E+00
      25     1     1     2     0     0  1.162580156E+02 -1.164671633E+02  2.534001717E+01  2.082009673E+02  1.250000000E+02  0.00000E+00  9.000E+00
      25     1     1     2     0     0 -1.247957296E+02  1.032523741E+02  9.826360939E+00  2.048330644E+02  1.250000000E+02  0.00000E+00  9.000E+00
      21     1     1     2   512   502  8.537714060E+00  1.321478914E+01  4.852350647E+01  5.101033124E+01  0.000000000E+00  0.00000E+00  9.000E+00
#rwgt            1           1   2.5582896525868624E-002           4      198601           0
</event>
<event>
      5   9999 -3.79277E-02  3.22627E+01 -1.00000E+00  1.50878E-01
       2    -1     0     0   502     0  0.000000000E+00  0.000000000E+00  1.038599544E+03  1.038599544E+03  0.000000000E+00  0.00000E+00  9.000E+00
      21    -1     0     0   501   502  0.000000000E+00  0.000000000E+00 -9.577162725E+01  9.577162725E+01  0.000000000E+00  0.00000E+00  9.000E+00
      25     1     1     2     0     0 -1.402453356E+02  1.640880887E+02  3.694033575E+02  4.457325382E+02  1.250000000E+02  0.00000E+00  9.000E+00
      25     1     1     2     0     0  1.246423820E+02 -1.358492524E+02  1.607214904E+02  2.746764283E+02  1.250000000E+02  0.00000E+00  9.000E+00
       2     1     1     2   501     0  1.560295361E+01 -2.823883625E+01  4.127030687E+02  4.139622048E+02  5.394796609E-06  0.00000E+00  9.000E+00
#rwgt            1           1 -0.10245417615771056                4      198731           0
</event>
<event>
      5   9999  3.79277E-02  5.63461E+01 -1.00000E+00  1.36178E-01
      21    -1     0     0   502   501  0.000000000E+00  0.000000000E+00  1.346349938E+03  1.346349938E+03  0.000000000E+00  0.00000E+00  9.000E+00
      21    -1     0     0   501   511  0.000000000E+00  0.000000000E+00 -6.422797515E+01  6.422797515E+01  0.000000000E+00  0.00000E+00  9.000E+00
      25     1     1     2     0     0  2.309531921E+02  2.494937204E+01  7.877322097E+02  8.307279232E+02  1.250000000E+02  0.00000E+00  9.000E+00
      25     1     1     2     0     0 -1.989103461E+02 -7.129741199E+01  4.205679857E+02  4.869815985E+02  1.250000000E+02  0.00000E+00  9.000E+00
      21     1     1     2   502   511 -3.204284600E+01  4.634803995E+01  7.382176764E+01  9.286839163E+01  1.651812370E-06  0.00000E+00  9.000E+00
#rwgt            1           1   3.4070061036046109E-002           4      198890           0
</event>
<event>
      5   9999  3.79277E-02  1.24885E+01 -1.00000E+00  1.85224E-01
      21    -1     0     0   512   501  0.000000000E+00  0.000000000E+00  7.047553130E+02  7.047553130E+02  0.000000000E+00  0.00000E+00  9.000E+00
      21    -1     0     0   501   502  0.000000000E+00  0.000000000E+00 -4.665851557E+01  4.665851557E+01  0.000000000E+00  0.00000E+00  9.000E+00
      25     1     1     2     0     0  7.921329164E+01 -4.151259777E+01  5.010252483E+02  5.240699770E+02  1.250000000E+02  0.00000E+00  9.000E+00
      25     1     1     2     0     0 -6.692053699E+01  4.371506271E+01  1.289611713E+02  1.965842025E+02  1.250000000E+02  0.00000E+00  9.000E+00
      21     1     1     2   512   502 -1.229275465E+01 -2.202464934E+00  2.811037779E+01  3.075964903E+01  3.371747881E-07  0.00000E+00  9.000E+00
#rwgt            1           1   3.0805896804139785E-002           4      199017           0
</event>
<event>
      5   9999  3.79277E-02  2.86111E+01 -1.00000E+00  1.54484E-01
      21    -1     0     0   511   501  0.000000000E+00  0.000000000E+00  3.212367283E+02  3.212367283E+02  0.000000000E+00  0.00000E+00  9.000E+00
      21    -1     0     0   501   502  0.000000000E+00  0.000000000E+00 -1.034879936E+02  1.034879936E+02  0.000000000E+00  0.00000E+00  9.000E+00
      25     1     1     2     0     0  7.622676707E+01 -8.560837794E+01  6.368028066E+01  1.811615095E+02  1.250000000E+02  0.00000E+00  9.000E+00
      25     1     1     2     0     0 -7.691839411E+01  5.700563539E+01  1.142685615E+02  1.945466165E+02  1.250000000E+02  0.00000E+00  9.000E+00
      21     1     1     2   511   502  6.916270440E-01  2.860274255E+01  3.979989253E+01  4.901659591E+01  8.259061849E-07  0.00000E+00  9.000E+00
#rwgt            1           1   7.4860139043099308E-002           4      199232           0
</event>
<event>
      5   9999  3.79277E-02  1.95623E+01 -1.00000E+00  1.67166E-01
      21    -1     0     0   502   501  0.000000000E+00  0.000000000E+00  1.214274339E+02  1.214274339E+02  0.000000000E+00  0.00000E+00  9.000E+00
      21    -1     0     0   501   512  0.000000000E+00  0.000000000E+00 -4.751132920E+02  4.751132920E+02  0.000000000E+00  0.00000E+00  9.000E+00
      25     1     1     2     0     0 -3.501475380E+01  3.221110024E+01  6.459651338E+01  1.485304599E+02  1.250000000E+02  0.00000E+00  9.000E+00
      25     1     1     2     0     0  4.024708318E+01 -5.106067873E+01 -3.650514519E+02  3.912985856E+02  1.250000000E+02  0.00000E+00  9.000E+00
      21     1     1     2   502   512 -5.232329374E+00  1.884957849E+01 -5.323091968E+01  5.671168037E+01  6.743495762E-07  0.00000E+00  9.000E+00
#rwgt            1           1   3.8784236871948860E-002           4      199459           0
</event>
<event>
      5   9999  3.79277E-02  3.71135E+01 -1.00000E+00  1.46887E-01
      21    -1     0     0   502   501  0.000000000E+00  0.000000000E+00  3.291191559E+02  3.291191559E+02  0.000000000E+00  0.00000E+00  9.000E+00
      21    -1     0     0   501   511  0.000000000E+00  0.000000000E+00 -4.873832151E+02  4.873832151E+02  0.000000000E+00  0.00000E+00  9.000E+00
      25     1     1     2     0     0 -2.072156010E+01 -1.631197874E+02  2.221805734E+02  3.033589545E+02  1.250000000E+02  0.00000E+00  9.000E+00
      25     1     1     2     0     0  5.729510320E+01  1.694273985E+02 -1.179605299E+02  2.480485010E+02  1.250000000E+02  0.00000E+00  9.000E+00
      21     1     1     2   502   511 -3.657354310E+01 -6.307611131E+00 -2.624841027E+02  2.650949154E+02  3.814697266E-06  0.00000E+00  9.000E+00
#rwgt            1           1   3.2905198294259731E-002           4      199603           0
</event>
<event>
      5   9999  3.79277E-02  8.39773E+01 -1.00000E+00  1.27338E-01
      21    -1     0     0   512   501  0.000000000E+00  0.000000000E+00  2.242410913E+02  2.242410913E+02  0.000000000E+00  0.00000E+00  9.000E+00
      21    -1     0     0   501   502  0.000000000E+00  0.000000000E+00 -2.307482045E+02  2.307482045E+02  0.000000000E+00  0.00000E+00  9.000E+00
      25     1     1     2     0     0 -5.353906400E+01 -4.902159648E+01 -1.309026102E+02  1.950129269E+02  1.250000000E+02  0.00000E+00  9.000E+00
      25     1     1     2     0     0  5.282074505E+01 -3.495267946E+01  1.012045779E+02  1.728556840E+02  1.250000000E+02  0.00000E+00  9.000E+00
      21     1     1     2   512   502  7.183189475E-01  8.397427594E+01  2.319091914E+01  8.712068487E+01  1.581489940E-06  0.00000E+00  9.000E+00
#rwgt            1           1   4.9961988465554504E-002           4      199776           0
</event>
<event>
      5   9999  3.79277E-02  1.34134E+02 -1.00000E+00  1.18351E-01
      21    -1     0     0   502   501  0.000000000E+00  0.000000000E+00  5.678722752E+02  5.678722752E+02  0.000000000E+00  0.00000E+00  9.000E+00
      21    -1     0     0   511   502  0.000000000E+00  0.000000000E+00 -1.798905894E+02  1.798905894E+02  0.000000000E+00  0.00000E+00  9.000E+00
      25     1     1     2     0     0  3.756538742E+01 -1.338424595E+02  3.681628742E+02  4.129090266E+02  1.250000000E+02  0.00000E+00  9.000E+00
      25     1     1     2     0     0 -1.462235119E+02  5.519550571E+01  1.152741362E+01  2.004638136E+02  1.250000000E+02  0.00000E+00  9.000E+00
      21     1     1     2   511   501  1.086581245E+02  7.864695383E+01  8.291397968E+00  1.343900244E+02  4.495312604E-06  0.00000E+00  9.000E+00
#rwgt            1           1   2.1771191840601316E-002           4      199854           0
</event>
<event>
      5   9999  3.79277E-02  1.57517E+02 -1.00000E+00  1.15558E-01
      21    -1     0     0   502   501  0.000000000E+00  0.000000000E+00  3.448653722E+02  3.448653722E+02  0.000000000E+00  0.00000E+00  9.000E+00
      21    -1     0     0   512   502  0.000000000E+00  0.000000000E+00 -4.084119401E+02  4.084119401E+02  0.000000000E+00  0.00000E+00  9.000E+00
      25     1     1     2     0     0 -6.520001767E+01 -2.523740586E+02  1.697618076E+02  3.352428658E+02  1.250000000E+02  0.00000E+00  9.000E+00
      25     1     1     2     0     0  8.214553322E+01  9.577152719E+01 -6.934139949E+01  1.906654235E+02  1.250000000E+02  0.00000E+00  9.000E+00
      21     1     1     2   512   501 -1.694551555E+01  1.566025314E+02 -1.639669761E+02  2.273690229E+02  2.697398305E-06  0.00000E+00  9.000E+00
#rwgt            1           1   3.8540091868189900E-002           4      199937           0
</event>
<event>
      5   9999  3.79277E-02  2.64804E+01 -1.00000E+00  1.56902E-01
      21    -1     0     0   502   511  0.000000000E+00  0.000000000E+00  1.407751246E+03  1.407751246E+03  0.000000000E+00  0.00000E+00  9.000E+00
      21    -1     0     0   501   502  0.000000000E+00  0.000000000E+00 -1.944033071E+02  1.944033071E+02  0.000000000E+00  0.00000E+00  9.000E+00
      25     1     1     2     0     0 -9.212928148E+01  3.638239003E+01  1.445198488E+02  2.152265539E+02  1.250000000E+02  0.00000E+00  9.000E+00
      25     1     1     2     0     0  7.018537490E+01 -2.156084989E+01 -1.258393117E+02  1.919671572E+02  1.250000000E+02  0.00000E+00  9.000E+00
      21     1     1     2   501   511  2.194390657E+01 -1.482154014E+01  1.194667401E+03  1.194960842E+03  0.000000000E+00  0.00000E+00  9.000E+00
#rwgt            1           1   3.2606892528471043E-002           4      199993           0
</event>
<event>
      5   9999  3.79277E-02  4.91114E+01 -1.00000E+00  1.39521E-01
      21    -1     0     0   512   501  0.000000000E+00  0.000000000E+00  3.641242855E+02  3.641242855E+02  0.000000000E+00  0.00000E+00  9.000E+00
      21    -1     0     0   501   502  0.000000000E+00  0.000000000E+00 -1.410522824E+02  1.410522824E+02  0.000000000E+00  0.00000E+00  9.000E+00
      25     1     1     2     0     0  3.153014866E+01 -1.567446800E+02  3.047993545E+01  2.052244416E+02  1.250000000E+02  0.00000E+00  9.000E+00
      25     1     1     2     0     0  3.527139735E+00  1.223511328E+02  1.194005456E+02  2.118106010E+02  1.250000000E+02  0.00000E+00  9.000E+00
      21     1     1     2   512   502 -3.505728840E+01  3.439354721E+01  7.319152207E+01  8.814152519E+01  1.348699152E-06  0.00000E+00  9.000E+00
#rwgt            1           1  0.11695951375909631                4      200087           0
</event>
<event>
      5   9999  3.79277E-02  3.70363E+01 -1.00000E+00  1.46945E-01
      21    -1     0     0   502   501  0.000000000E+00  0.000000000E+00  8.178442463E+02  8.178442463E+02  0.000000000E+00  0.00000E+00  9.000E+00
      21    -1     0     0   511   502  0.000000000E+00  0.000000000E+00 -6.176314590E+01  6.176314590E+01  0.000000000E+00  0.00000E+00  9.000E+00
      25     1     1     2     0     0  1.568513934E+02 -6.626526347E+01  3.345892180E+02  3.956872371E+02  1.250000000E+02  0.00000E+00  9.000E+00
      25     1     1     2     0     0 -1.253950498E+02  8.581480818E+01  3.825218260E+02  4.301581653E+02  1.250000000E+02  0.00000E+00  9.000E+00
      21     1     1     2   511   501 -3.145634364E+01 -1.954954472E+01  3.897005627E+01  5.376198973E+01  0.000000000E+00  0.00000E+00  9.000E+00
#rwgt            1           1  0.18699299544688533                4      200196           0
</event>
<event>
      5   9999  3.79277E-02  7.56279E+01 -1.00000E+00  1.29542E-01
      21    -1     0     0   502   512  0.000000000E+00  0.000000000E+00  7.027634142E+01  7.027634142E+01  0.000000000E+00  0.00000E+00  9.000E+00
      21    -1     0     0   501   502  0.000000000E+00  0.000000000E+00 -1.165596763E+03  1.165596763E+03  0.000000000E+00  0.00000E+00  9.000E+00
      25     1     1     2     0     0 -6.846467619E+01 -2.039133500E+02 -7.002060399E+02  7.430892036E+02  1.250000000E+02  0.00000E+00  9.000E+00
      25     1     1     2     0     0  5.016551821E+01  1.305326554E+02 -3.669024928E+02  4.120652771E+02  1.250000000E+02  0.00000E+00  9.000E+00
      21     1     1     2   501   512  1.829915799E+01  7.338069459E+01 -2.821188866E+01  8.071862352E+01  1.936921693E-06  0.00000E+00  9.000E+00
#rwgt            1           1   3.6473763360806724E-002           4      200368           0
</event>
<event>
      5   9999  3.79277E-02  1.23098E+01 -1.00000E+00  1.85872E-01
      21    -1     0     0   502   501  0.000000000E+00  0.000000000E+00  1.078849500E+02  1.078849500E+02  0.000000000E+00  0.00000E+00  9.000E+00
      21    -1     0     0   511   502  0.000000000E+00  0.000000000E+00 -4.478026132E+02  4.478026132E+02  0.000000000E+00  0.00000E+00  9.000E+00
      25     1     1     2     0     0  4.609177704E+01  2.579822992E+01  3.098233902E+01  1.391937711E+02  1.250000000E+02  0.00000E+00  9.000E+00
      25     1     1     2     0     0 -4.179009565E+01 -1.426449999E+01 -1.717466552E+02  2.169603688E+02  1.250000000E+02  0.00000E+00  9.000E+00
      21     1     1     2   511   501 -4.301681383E+00 -1.153372993E+01 -1.991533470E+02  1.995334233E+02  2.697398305E-06  0.00000E+00  9.000E+00
#rwgt            1           1   3.7558078046903351E-002           4      200457           0
</event>
<event>
      5   9999  3.79277E-02  2.34946E+01 -1.00000E+00  1.60798E-01
      21    -1     0     0   502   501  0.000000000E+00  0.000000000E+00  4.220097808E+02  4.220097808E+02  0.000000000E+00  0.00000E+00  9.000E+00
       3    -1     0     0   501     0  0.000000000E+00  0.000000000E+00 -1.559433068E+03  1.559433068E+03  0.000000000E+00  0.00000E+00  9.000E+00
      25     1     1     2     0     0 -3.975598075E+01  1.567144788E+02  1.894452968E+02  2.786655457E+02  1.250000000E+02  0.00000E+00  9.000E+00
      25     1     1     2     0     0  2.033260730E+01 -1.434958954E+02  1.391145670E+02  2.366058952E+02  1.250000000E+02  0.00000E+00  9.000E+00
       3     1     1     2   502     0  1.942337345E+01 -1.321858345E+01 -1.465983151E+03  1.466171408E+03  0.000000000E+00  0.00000E+00  9.000E+00
#rwgt            1           1  0.18020089340622003                4      200633           0
</event>
<event>
      5   9999  3.79277E-02  7.66840E+01 -1.00000E+00  1.29246E-01
      21    -1     0     0   502   511  0.000000000E+00  0.000000000E+00  6.887107439E+02  6.887107439E+02  0.000000000E+00  0.00000E+00  9.000E+00
      21    -1     0     0   501   502  0.000000000E+00  0.000000000E+00 -1.331495646E+02  1.331495646E+02  0.000000000E+00  0.00000E+00  9.000E+00
      25     1     1     2     0     0  1.007086025E+01 -9.383488625E+01  4.696488977E+02  4.950772619E+02  1.250000000E+02  0.00000E+00  9.000E+00
      25     1     1     2     0     0 -1.785188584E+01  1.754667664E+01 -7.544314759E+01  1.481325224E+02  1.250000000E+02  0.00000E+00  9.000E+00
      21     1     1     2   501   511  7.781025592E+00  7.628820962E+01  1.613554291E+02  1.786505242E+02  1.907348633E-06  0.00000E+00  9.000E+00
#rwgt            1           1   5.2375580257629707E-002           4      200825           0
</event>
<event>
      5   9999  3.79277E-02  9.68101E+01 -1.00000E+00  1.24464E-01
      21    -1     0     0   512   501  0.000000000E+00  0.000000000E+00  1.142532165E+02  1.142532165E+02  0.000000000E+00  0.00000E+00  9.000E+00
      21    -1     0     0   501   502  0.000000000E+00  0.000000000E+00 -1.840444806E+03  1.840444806E+03  0.000000000E+00  0.00000E+00  9.000E+00
      25     1     1     2     0     0  6.682120424E+01 -1.584135983E+02 -1.654760895E+03  1.668358043E+03  1.250000000E+02  0.00000E+00  9.000E+00
      25     1     1     2     0     0  8.136463490E+00  9.714736840E+01  1.140083328E+01  1.589301489E+02  1.250000000E+02  0.00000E+00  9.000E+00
      21     1     1     2   512   502 -7.495766773E+01  6.126622988E+01 -8.283152847E+01  1.274098308E+02  2.861022949E-06  0.00000E+00  9.000E+00
#rwgt            1           1   4.5479111658543472E-002           4      200978           0
</event>
<event>
      5   9999  3.79277E-02  6.62074E+01 -1.00000E+00  1.32458E-01
      21    -1     0     0   511   501  0.000000000E+00  0.000000000E+00  5.215463314E+01  5.215463314E+01  0.000000000E+00  0.00000E+00  9.000E+00
      21    -1     0     0   501   502  0.000000000E+00  0.000000000E+00 -1.057897460E+03  1.057897460E+03  0.000000000E+00  0.00000E+00  9.000E+00
      25     1     1     2     0     0 -7.171880533E+01 -8.337945793E+01 -6.640656641E+02  6.846195493E+02  1.250000000E+02  0.00000E+00  9.000E+00
      25     1     1     2     0     0  2.532972146E+01  1.306178794E+02 -2.115423570E+02  2.794240398E+02  1.250000000E+02  0.00000E+00  9.000E+00
      21     1     1     2   511   502  4.638908387E+01 -4.723842148E+01 -1.301348053E+02  1.460085036E+02  2.697398305E-06  0.00000E+00  9.000E+00
#rwgt            1           1   4.1267014425920401E-002           4      201132           0
</event>
<event>
      5   9999  3.79277E-02  6.52548E+01 -1.00000E+00  1.32783E-01
      21    -1     0     0   502   501  0.000000000E+00  0.000000000E+00  1.240210968E+03  1.240210968E+03  0.000000000E+00  0.00000E+00  9.000E+00
      21    -1     0     0   512   502  0.000000000E+00  0.000000000E+00 -5.338677746E+01  5.338677746E+01  0.000000000E+00  0.00000E+00  9.000E+00
      25     1     1     2     0     0 -1.609813928E+01  1.484017089E+02  4.714092248E+02  5.100332092E+02  1.250000000E+02  0.00000E+00  9.000E+00
      25     1     1     2     0     0 -4.878282088E+01 -1.414270577E+02  6.838131459E+02  7.110603314E+02  1.250000000E+02  0.00000E+00  9.000E+00
      21     1     1     2   512   501  6.488096015E+01 -6.974651129E+00  3.160182026E+01  7.250420534E+01  3.371747881E-07  0.00000E+00  9.000E+00
#rwgt            1           1   3.7677961230382376E-002           4      201207           0
</event>
<event>
      5   9999  3.79277E-02  4.61449E+01 -1.00000E+00  1.41093E-01
      21    -1     0     0   511   501  0.000000000E+00  0.000000000E+00  1.000267790E+03  1.000267790E+03  0.000000000E+00  0.00000E+00  9.000E+00
      21    -1     0     0   501   502  0.000000000E+00  0.000000000E+00 -8.774845274E+01  8.774845274E+01  0.000000000E+00  0.00000E+00  9.000E+00
      25     1     1     2     0     0  2.942948740E+01 -1.732635439E+02  1.052069337E+02  2.399580156E+02  1.250000000E+02  0.00000E+00  9.000E+00
      25     1     1     2     0     0 -5.232961352E+01  1.332018792E+02  4.601056530E+02  4.977984944E+02  1.250000000E+02  0.00000E+00  9.000E+00
      21     1     1     2   511   502  2.290012612E+01  4.006166464E+01  3.472067502E+02  3.502597324E+02  3.814697266E-06  0.00000E+00  9.000E+00
#rwgt            1           1   4.4503146742885726E-002           4      201330           0
</event>
<event>
      5   9999  3.79277E-02  2.05004E+01 -1.00000E+00  1.65488E-01
      21    -1     0     0   512   501  0.000000000E+00  0.000000000E+00  3.990989395E+01  3.990989395E+01  0.000000000E+00  0.00000E+00  9.000E+00
      21    -1     0     0   501   502  0.000000000E+00  0.000000000E+00 -3.067616996E+03  3.067616996E+03  0.000000000E+00  0.00000E+00  9.000E+00
      25     1     1     2     0     0  8.837418067E+01  2.123416681E+02 -1.509272499E+03  1.531805293E+03  1.250000000E+02  0.00000E+00  9.000E+00
      25     1     1     2     0     0 -1.071294947E+02 -2.206184410E+02 -1.528355280E+03  1.552946904E+03  1.250000000E+02  0.00000E+00  9.000E+00
      21     1     1     2   512   502  1.875531403E+01  8.276772843E+00  9.920677295E+00  2.277469234E+01  1.643186659E-06  0.00000E+00  9.000E+00
#rwgt            1           1   3.3391863397832552E-002           4      201624           0
</event>
<event>
      5   9999  3.79277E-02  2.55036E+01 -1.00000E+00  1.58105E-01
      21    -1     0     0   502   501  0.000000000E+00  0.000000000E+00  7.746789735E+02  7.746789735E+02  0.000000000E+00  0.00000E+00  9.000E+00
      21    -1     0     0   511   502  0.000000000E+00  0.000000000E+00 -5.759789188E+01  5.759789188E+01  0.000000000E+00  0.00000E+00  9.000E+00
      25     1     1     2     0     0  1.531403623E+02 -3.628187426E+01  4.562346824E+02  4.985413026E+02  1.250000000E+02  0.00000E+00  9.000E+00
      25     1     1     2     0     0 -1.276380448E+02  3.653379319E+01  2.346753179E+02  2.971930238E+02  1.250000000E+02  0.00000E+00  9.000E+00
      21     1     1     2   511   501 -2.550231748E+01 -2.519189374E-01  2.617108126E+01  3.654253897E+01  3.371747881E-07  0.00000E+00  9.000E+00
#rwgt            1           1   4.2951297735741301E-002           4      201874           0
</event>
<event>
      5   9999  3.79277E-02  2.27358E+02 -1.00000E+00  1.09658E-01
      -1    -1     0     0     0   501  0.000000000E+00  0.000000000E+00  6.523929954E+02  6.523929954E+02  0.000000000E+00  0.00000E+00  9.000E+00
      21    -1     0     0   501   502  0.000000000E+00  0.000000000E+00 -2.560107050E+02  2.560107050E+02  0.000000000E+00  0.00000E+00  9.000E+00
      25     1     1     2     0     0  4.882599251E+01 -3.052722203E+02  3.022045072E+02  4.500307437E+02  1.250000000E+02  0.00000E+00  9.000E+00
      25     1     1     2     0     0 -9.449052722E+01  8.254710060E+01 -5.616676377E+01  1.858014771E+02  1.250000000E+02  0.00000E+00  9.000E+00
      -1     1     1     2     0   502  4.566453471E+01  2.227251197E+02  1.503445470E+02  2.725714796E+02  3.303624740E-06  0.00000E+00  9.000E+00
#rwgt            2           5   1.8397441841395326E-005           4      202131           0
</event>
<event>
      5   9999  3.79277E-02  6.27248E+01 -1.00000E+00  1.33681E-01
      21    -1     0     0   511   501  0.000000000E+00  0.000000000E+00  1.065941719E+03  1.065941719E+03  0.000000000E+00  0.00000E+00  9.000E+00
      21    -1     0     0   501   502  0.000000000E+00  0.000000000E+00 -1.967103451E+02  1.967103451E+02  0.000000000E+00  0.00000E+00  9.000E+00
      25     1     1     2     0     0 -1.375552443E+02  4.499469129E+00 -3.711113865E+01  1.895888369E+02  1.250000000E+02  0.00000E+00  9.000E+00
      25     1     1     2     0     0  1.754306643E+02  4.549909688E+01  6.523892399E+01  2.296240470E+02  1.250000000E+02  0.00000E+00  9.000E+00
      21     1     1     2   511   502 -3.787541999E+01 -4.999856601E+01  8.411035889E+02  8.434391806E+02  1.078959322E-05  0.00000E+00  9.000E+00
#rwgt            1           1   3.7905599061962537E-002           4      202450           0
</event>
<event>
      5   9999  3.79277E-02  3.00065E+01 -1.00000E+00  1.53033E-01
      21    -1     0     0   512   501  0.000000000E+00  0.000000000E+00  5.804250043E+02  5.804250043E+02  0.000000000E+00  0.00000E+00  9.000E+00
      21    -1     0     0   501   502  0.000000000E+00  0.000000000E+00 -1.028252875E+02  1.028252875E+02  0.000000000E+00  0.00000E+00  9.000E+00
      25     1     1     2     0     0  1.130196325E+02  1.023255236E+02  1.441741985E+02  2.442440370E+02  1.250000000E+02  0.00000E+00  9.000E+00
      25     1     1     2     0     0 -1.423949921E+02 -9.620353358E+01  1.680190925E+02  2.709001090E+02  1.250000000E+02  0.00000E+00  9.000E+00
      21     1     1     2   512   502  2.937535959E+01 -6.121990037E+00  1.654064259E+02  1.681061457E+02  1.907348633E-06  0.00000E+00  9.000E+00
#rwgt            1           1   4.2504719391960571E-002           4      202569           0
</event>
<event>
      5   9999  3.79277E-02  1.60344E+02 -1.00000E+00  1.15257E-01
      21    -1     0     0   511   501  0.000000000E+00  0.000000000E+00  1.365335207E+03  1.365335207E+03  0.000000000E+00  0.00000E+00  9.000E+00
      21    -1     0     0   501   502  0.000000000E+00  0.000000000E+00 -1.670803737E+02  1.670803737E+02  0.000000000E+00  0.00000E+00  9.000E+00
      25     1     1     2     0     0 -1.063364972E+02 -1.865818997E+02  5.623333695E+02  6.147878287E+02  1.250000000E+02  0.00000E+00  9.000E+00
      25     1     1     2     0     0  6.092358663E+01  3.403610175E+02  1.350057559E+02  3.916744308E+02  1.250000000E+02  0.00000E+00  9.000E+00
      21     1     1     2   511   502  4.541291059E+01 -1.537791178E+02  5.009157081E+02  5.259533213E+02  7.629394531E-06  0.00000E+00  9.000E+00
#rwgt            1           1  0.26573658650379484                4      202724           0
</event>
<event>
      5   9999  3.79277E-02  4.68592E+01 -1.00000E+00  1.40702E-01
      21    -1     0     0   512   501  0.000000000E+00  0.000000000E+00  2.828601417E+02  2.828601417E+02  0.000000000E+00  0.00000E+00  9.000E+00
      21    -1     0     0   501   502  0.000000000E+00  0.000000000E+00 -1.967170575E+02  1.967170575E+02  0.000000000E+00  0.00000E+00  9.000E+00
      25     1     1     2     0     0  9.395916997E+01  7.314801287E+01 -1.060126296E+02  2.025898197E+02  1.250000000E+02  0.00000E+00  9.000E+00
      25     1     1     2     0     0 -8.179370452E+01 -2.789558390E+01  1.368834057E+02  2.045249140E+02  1.250000000E+02  0.00000E+00  9.000E+00
      21     1     1     2   512   502 -1.216546545E+01 -4.525242898E+01  5.527230808E+01  7.246246558E+01  0.000000000E+00  0.00000E+00  9.000E+00
#rwgt            1           1   2.8316592261939721E-002           4      202797           0
</event>
<event>
      5   9999  3.79277E-02  1.32718E+02 -1.00000E+00  1.18540E-01
      21    -1     0     0   502   511  0.000000000E+00  0.000000000E+00  1.337601271E+03  1.337601271E+03  0.000000000E+00  0.00000E+00  9.000E+00
      21    -1     0     0   501   502  0.000000000E+00  0.000000000E+00 -9.106275811E+01  9.106275811E+01  0.000000000E+00  0.00000E+00  9.000E+00
      25     1     1     2     0     0  1.175125135E+02  9.477610923E+01  6.264683733E+02  6.564139886E+02  1.250000000E+02  0.00000E+00  9.000E+00
      25     1     1     2     0     0  1.469132530E+01 -1.064435442E+02  3.013251908E+01  1.675679917E+02  1.250000000E+02  0.00000E+00  9.000E+00
      21     1     1     2   501   511 -1.322038388E+02  1.166743493E+01  5.899376208E+02  6.046820491E+02  0.000000000E+00  0.00000E+00  9.000E+00
#rwgt            1           1   3.9663511118423693E-002           4      202961           0
</event>
<event>
      5   9999  3.79277E-02  3.75012E+01 -1.00000E+00  1.46599E-01
      21    -1     0     0   502   501  0.000000000E+00  0.000000000E+00  2.710879927E+02  2.710879927E+02  0.000000000E+00  0.00000E+00  9.000E+00
      -4    -1     0     0     0   502  0.000000000E+00  0.000000000E+00 -2.415400096E+02  2.415400096E+02  0.000000000E+00  0.00000E+00  9.000E+00
      25     1     1     2     0     0 -1.141371523E+02 -1.199747477E+02  1.179832512E+02  2.386760926E+02  1.250000000E+02  0.00000E+00  9.000E+00
      25     1     1     2     0     0  8.005142940E+01  1.043381337E+02 -1.259802992E+02  2.208861998E+02  1.250000000E+02  0.00000E+00  9.000E+00
      -4     1     1     2     0   501  3.408572289E+01  1.563661402E+01  3.754503103E+01  5.306570981E+01  1.066240300E-06  0.00000E+00  9.000E+00
#rwgt            1           1   6.7265817141748424E-002           4      203044           0
</event>
<event>
      5   9999  3.79277E-02  5.46872E+01 -1.00000E+00  1.36891E-01
      21    -1     0     0   502   501  0.000000000E+00  0.000000000E+00  4.772876667E+01  4.772876667E+01  0.000000000E+00  0.00000E+00  9.000E+00
      21    -1     0     0   501   511  0.000000000E+00  0.000000000E+00 -1.108847322E+03  1.108847322E+03  0.000000000E+00  0.00000E+00  9.000E+00
      25     1     1     2     0     0  7.603811672E+01 -5.069667663E+01 -2.297860895E+02  2.770895075E+02  1.250000000E+02  0.00000E+00  9.000E+00
      25     1     1     2     0     0 -1.162803045E+02  8.772711622E+01 -3.889103829E+02  4.336974084E+02  1.250000000E+02  0.00000E+00  9.000E+00
      21     1     1     2   502   511  4.024218774E+01 -3.703043959E+01 -4.424220825E+02  4.457891724E+02  5.394796609E-06  0.00000E+00  9.000E+00
#rwgt            1           1   7.0800586372100308E-002           4      203170           0
</event>
<event>
      5   9999 -3.79277E-02  1.53747E+02 -1.00000E+00  1.15971E-01
      21    -1     0     0   502   512  0.000000000E+00  0.000000000E+00  1.939617543E+03  1.939617543E+03  0.000000000E+00  0.00000E+00  9.000E+00
      21    -1     0     0   501   502  0.000000000E+00  0.000000000E+00 -2.046538290E+02  2.046538290E+02  0.000000000E+00  0.00000E+00  9.000E+00
      25     1     1     2     0     0 -2.279694613E+02  1.739658679E+02  3.137967626E+01  3.143944697E+02  1.250000000E+02  0.00000E+00  9.000E+00
      25     1     1     2     0     0  2.202404205E+02 -2.041338786E+01  2.134318189E+02  3.318142410E+02  1.250000000E+02  0.00000E+00  9.000E+00
      21     1     1     2   501   512  7.729040769E+00 -1.535524800E+02  1.490152218E+03  1.498062661E+03  3.737624730E-05  0.00000E+00  9.000E+00
#rwgt            1           1  -7.9699928286030577E-002           4      203251           0
</event>
<event>
      5   9999  3.79277E-02  2.18712E+02 -1.00000E+00  1.10252E-01
      21    -1     0     0   502   501  0.000000000E+00  0.000000000E+00  1.686458545E+02  1.686458545E+02  0.000000000E+00  0.00000E+00  9.000E+00
       2    -1     0     0   501     0  0.000000000E+00  0.000000000E+00 -3.038300461E+03  3.038300461E+03  0.000000000E+00  0.00000E+00  9.000E+00
      25     1     1     2     0     0 -1.535095680E+02  2.409521311E+02 -2.594094806E+02  4.056370244E+02  1.250000000E+02  0.00000E+00  9.000E+00
      25     1     1     2     0     0  2.979879735E+01 -6.059005952E+01  3.558119703E+01  1.464586809E+02  1.250000000E+02  0.00000E+00  9.000E+00
       2     1     1     2   502     0  1.237107707E+02 -1.803620716E+02 -2.645826323E+03  2.654850611E+03  6.823937920E-05  0.00000E+00  9.000E+00
#rwgt            1           1   3.6817463766224405E-002           4      203334           0
</event>
<event>
      5   9999 -3.79277E-02  4.71201E+01 -1.00000E+00  1.40562E-01
      21    -1     0     0   502   501  0.000000000E+00  0.000000000E+00  2.066903405E+02  2.066903405E+02  0.000000000E+00  0.00000E+00  9.000E+00
      21    -1     0     0   511   502  0.000000000E+00  0.000000000E+00 -1.037003372E+03  1.037003372E+03  0.000000000E+00  0.00000E+00  9.000E+00
      25     1     1     2     0     0  1.786614319E+02 -1.184208912E+02  5.271459428E+01  2.536675840E+02  1.250000000E+02  0.00000E+00  9.000E+00
      25     1     1     2     0     0 -1.315574682E+02  1.171888473E+02 -1.685532013E+02  2.739995895E+02  1.250000000E+02  0.00000E+00  9.000E+00
      21     1     1     2   511   501 -4.710396370E+01  1.232043825E+00 -7.144744248E+02  7.160265393E+02  1.078959322E-05  0.00000E+00  9.000E+00
#rwgt            1           1  -2.0234759106517241E-002           4      203392           0
</event>
<event>
      5   9999  3.79277E-02  1.76420E+02 -1.00000E+00  1.13668E-01
      21    -1     0     0   512   501  0.000000000E+00  0.000000000E+00  5.539283380E+02  5.539283380E+02  0.000000000E+00  0.00000E+00  9.000E+00
      21    -1     0     0   501   502  0.000000000E+00  0.000000000E+00 -3.843164975E+02  3.843164975E+02  0.000000000E+00  0.00000E+00  9.000E+00
      25     1     1     2     0     0 -1.766768051E+02  9.334695843E+01  1.531937488E+02  2.811079380E+02  1.250000000E+02  0.00000E+00  9.000E+00
      25     1     1     2     0     0  2.810838045E+02 -2.355558211E+02 -1.491726628E+02  4.151772312E+02  1.250000000E+02  0.00000E+00  9.000E+00
      21     1     1     2   512   502 -1.044069994E+02  1.422088627E+02  1.655907545E+02  2.419596663E+02  4.264961200E-06  0.00000E+00  9.000E+00
#rwgt            1           1   1.6210483452916168E-002           4      203677           0
</event>
<event>
      5   9999  3.79277E-02  5.61757E+01 -1.00000E+00  1.36250E-01
      21    -1     0     0   502   501  0.000000000E+00  0.000000000E+00  4.893352381E+01  4.893352381E+01  0.000000000E+00  0.00000E+00  9.000E+00
      21    -1     0     0   501   511  0.000000000E+00  0.000000000E+00 -8.067880435E+02  8.067880435E+02  0.000000000E+00  0.00000E+00  9.000E+00
      25     1     1     2     0     0 -3.098079144E+01  7.790616918E+01 -5.308893995E+02  5.518131343E+02  1.250000000E+02  0.00000E+00  9.000E+00
      25     1     1     2     0     0  2.955902217E+00 -2.922033045E+01 -9.271229774E+01  1.583765615E+02  1.250000000E+02  0.00000E+00  9.000E+00
      21     1     1     2   502   511  2.802488922E+01 -4.868583873E+01 -1.342528224E+02  1.455318715E+02  0.000000000E+00  0.00000E+00  9.000E+00
#rwgt            1           1   3.4620038616028248E-002           4      203770           0
</event>
<event>
      5   9999  3.79277E-02  6.67828E+00 -1.00000E+00  2.18483E-01
      21    -1     0     0   502   512  0.000000000E+00  0.000000000E+00  1.324042016E+03  1.324042016E+03  0.000000000E+00  0.00000E+00  9.000E+00
      21    -1     0     0   501   502  0.000000000E+00  0.000000000E+00 -9.429442795E+01  9.429442795E+01  0.000000000E+00  0.00000E+00  9.000E+00
      25     1     1     2     0     0  1.117328524E+02  2.063194914E+01  1.178786633E+01  1.693335803E+02  1.250000000E+02  0.00000E+00  9.000E+00
      25     1     1     2     0     0 -1.053556525E+02 -1.864934989E+01  4.209339592E+02  4.519491230E+02  1.250000000E+02  0.00000E+00  9.000E+00
      21     1     1     2   501   512 -6.377199838E+00 -1.982599255E+00  7.970257628E+02  7.970537410E+02  0.000000000E+00  0.00000E+00  9.000E+00
#rwgt            1           1  0.12202524407119755                4      203879           0
</event>
<event>
      5   9999  3.79277E-02  4.00180E+02 -1.00000E+00  1.01680E-01
      21    -1     0     0   502   501  0.000000000E+00  0.000000000E+00  5.776445004E+02  5.776445004E+02  0.000000000E+00  0.00000E+00  9.000E+00
       3    -1     0     0   501     0  0.000000000E+00  0.000000000E+00 -1.285533722E+03  1.285533722E+03  0.000000000E+00  0.00000E+00  9.000E+00
      25     1     1     2     0     0 -1.873594316E+02 -2.175780678E+02 -7.983543487E+02  8.575770742E+02  1.250000000E+02  0.00000E+00  9.000E+00
      25     1     1     2     0     0  3.055237561E+02 -1.647587905E+02  3.660420444E+02  5.197133853E+02  1.250000000E+02  0.00000E+00  9.000E+00
       3     1     1     2   502     0 -1.181643245E+02  3.823368583E+02 -2.755769176E+02  4.858877631E+02  6.607249480E-06  0.00000E+00  9.000E+00
#rwgt            2          14   1.5753725477366305E-005           4      204305           0
</event>
<event>
      5   9999  3.79277E-02  3.96585E+01 -1.00000E+00  1.45071E-01
      21    -1     0     0   502   501  0.000000000E+00  0.000000000E+00  2.277408692E+02  2.277408692E+02  0.000000000E+00  0.00000E+00  9.000E+00
      21    -1     0     0   511   502  0.000000000E+00  0.000000000E+00 -3.078482803E+02  3.078482803E+02  0.000000000E+00  0.00000E+00  9.000E+00
      25     1     1     2     0     0  1.455041610E+02 -6.519049011E+01 -1.403384580E+02  2.464571842E+02  1.250000000E+02  0.00000E+00  9.000E+00
      25     1     1     2     0     0 -1.098419185E+02  4.784100369E+01  1.247459614E+02  2.134023514E+02  1.250000000E+02  0.00000E+00  9.000E+00
      21     1     1     2   511   501 -3.566224242E+01  1.734948642E+01 -6.451491445E+01  7.572961376E+01  9.536743164E-07  0.00000E+00  9.000E+00
#rwgt            1           1   4.2983194761861382E-002           4      204339           0
</event>
<event>
      5   9999  3.79277E-02  4.21162E+01 -1.00000E+00  1.43465E-01
      21    -1     0     0   512   501  0.000000000E+00  0.000000000E+00  2.202965464E+02  2.202965464E+02  0.000000000E+00  0.00000E+00  9.000E+00
      21    -1     0     0   501   502  0.000000000E+00  0.000000000E+00 -3.620520234E+02  3.620520234E+02  0.000000000E+00  0.00000E+00  9.000E+00
      25     1     1     2     0     0  7.557841732E+01 -1.484416512E+02  6.597030088E+01  2.184584665E+02  1.250000000E+02  0.00000E+00  9.000E+00
      25     1     1     2     0     0 -1.176214016E+02  1.509239430E+02 -2.227755261E+02  3.191657339E+02  1.250000000E+02  0.00000E+00  9.000E+00
      21     1     1     2   512   502  4.204298425E+01 -2.482291751E+00  1.504974816E+01  4.472436938E+01  5.057621821E-07  0.00000E+00  9.000E+00
#rwgt            1           1   1.1569571816991699E-002           4      204541           0
</event>
<event>
      5   9999  3.79277E-02  8.49996E+01 -1.00000E+00  1.27088E-01
       1    -1     0     0   502     0  0.000000000E+00  0.000000000E+00  1.421253285E+03  1.421253285E+03  0.000000000E+00  0.00000E+00  9.000E+00
      21    -1     0     0   501   502  0.000000000E+00  0.000000000E+00 -1.440940967E+03  1.440940967E+03  0.000000000E+00  0.00000E+00  9.000E+00
      25     1     1     2     0     0  1.982379509E+02 -6.290344053E+01 -2.260218514E+02  3.316112262E+02  1.250000000E+02  0.00000E+00  9.000E+00
      25     1     1     2     0     0 -2.192531901E+02  1.452641483E+02 -1.142523490E+03  1.179049855E+03  1.250000000E+02  0.00000E+00  9.000E+00
       1     1     1     2   501     0  2.101523920E+01 -8.236070774E+01  1.348857660E+03  1.351533171E+03  2.157918644E-05  0.00000E+00  9.000E+00
#rwgt            1           1   3.2883166611313755E-002           4      204662           0
</event>
<event>
      5   9999  3.79277E-02  8.79177E+01 -1.00000E+00  1.26397E-01
      21    -1     0     0   502   501  0.000000000E+00  0.000000000E+00  8.710118466E+01  8.710118466E+01  0.000000000E+00  0.00000E+00  9.000E+00
      -2    -1     0     0     0   502  0.000000000E+00  0.000000000E+00 -1.414386598E+03  1.414386598E+03  0.000000000E+00  0.00000E+00  9.000E+00
      25     1     1     2     0     0 -2.535697064E+02 -1.055436009E+02 -5.812062818E+02  6.548761636E+02  1.250000000E+02  0.00000E+00  9.000E+00
      25     1     1     2     0     0  2.110498131E+02  2.859175109E+01 -2.844774009E+02  3.767119635E+02  1.250000000E+02  0.00000E+00  9.000E+00
      -2     1     1     2     0   501  4.251989330E+01  7.695184984E+01 -4.616017303E+02  4.698996552E+02  0.000000000E+00  0.00000E+00  9.000E+00
#rwgt            2           9   1.7843306679782936E-005           4      204826           0
</event>
<event>
      5   9999  3.79277E-02  7.67325E+01 -1.00000E+00  1.29232E-01
      21    -1     0     0   502   501  0.000000000E+00  0.000000000E+00  8.477943876E+01  8.477943876E+01  0.000000000E+00  0.00000E+00  9.000E+00
       1    -1     0     0   501     0  0.000000000E+00  0.000000000E+00 -5.777459732E+02  5.777459732E+02  0.000000000E+00  0.00000E+00  9.000E+00
      25     1     1     2     0     0  1.466442161E+02 -2.737277286E+01 -2.830128975E+02  3.434750281E+02  1.250000000E+02  0.00000E+00  9.000E+00
      25     1     1     2     0     0 -9.743372174E+01 -3.150164984E+01 -1.229595385E+02  2.030510581E+02  1.250000000E+02  0.00000E+00  9.000E+00
       1     1     1     2   502     0 -4.921049439E+01  5.887442270E+01 -8.699409844E+01  1.159993257E+02  9.536743164E-07  0.00000E+00  9.000E+00
#rwgt            1           1   3.2449846852997788E-002           4      204890           0
</event>
<event>
      5   9999  3.79277E-02  2.43952E+01 -1.00000E+00  1.59552E-01
      21    -1     0     0   511   501  0.000000000E+00  0.000000000E+00  1.148172738E+02  1.148172738E+02  0.000000000E+00  0.00000E+00  9.000E+00
      21    -1     0     0   501   502  0.000000000E+00  0.000000000E+00 -3.367887952E+02  3.367887952E+02  0.000000000E+00  0.00000E+00  9.000E+00
      25     1     1     2     0     0 -1.167588128E+02  3.194017819E+01 -1.365318935E+02  2.211758425E+02  1.250000000E+02  0.00000E+00  9.000E+00
      25     1     1     2     0     0  1.309082324E+02 -5.181270625E+01 -8.349971572E+01  2.059580646E+02  1.250000000E+02  0.00000E+00  9.000E+00
      21     1     1     2   511   502 -1.414941960E+01  1.987252806E+01 -1.939912201E+00  2.447216185E+01  7.935480449E-07  0.00000E+00  9.000E+00
#rwgt            2          11   2.2972292593673158E-003           4      205037           0
</event>
<event>
      5   9999  3.79277E-02  5.42663E+00 -1.00000E+00  2.32467E-01
      21    -1     0     0   502   501  0.000000000E+00  0.000000000E+00  8.521146638E+01  8.521146638E+01  0.000000000E+00  0.00000E+00  9.000E+00
      21    -1     0     0   512   502  0.000000000E+00  0.000000000E+00 -4.992472224E+02  4.992472224E+02  0.000000000E+00  0.00000E+00  9.000E+00
      25     1     1     2     0     0 -3.498989637E+01  1.122787376E+02 -6.206145444E+01  1.825032380E+02  1.250000000E+02  0.00000E+00  9.000E+00
      25     1     1     2     0     0  3.595286177E+01 -1.176192427E+02 -2.840913628E+02  3.338559524E+02  1.250000000E+02  0.00000E+00  9.000E+00
      21     1     1     2   512   501 -9.629653927E-01  5.340505115E+00 -6.788293880E+01  6.809949836E+01  1.348699152E-06  0.00000E+00  9.000E+00
#rwgt            1           1  0.13514781874054158                4      205162           0
</event>
<event>
      5   9999  3.79277E-02  1.29976E+02 -1.00000E+00  1.18914E-01
      21    -1     0     0   502   501  0.000000000E+00  0.000000000E+00  4.114708880E+02  4.114708880E+02  0.000000000E+00  0.00000E+00  9.000E+00
      21    -1     0     0   511   502  0.000000000E+00  0.000000000E+00 -1.898026940E+02  1.898026940E+02  0.000000000E+00  0.00000E+00  9.000E+00
      25     1     1     2     0     0  2.228685897E+02  2.068025665E+01  1.612717021E+02  3.028723215E+02  1.250000000E+02  0.00000E+00  9.000E+00
      25     1     1     2     0     0 -9.295763190E+01 -1.655948325E+01  6.183799896E+01  1.684169704E+02  1.250000000E+02  0.00000E+00  9.000E+00
      21     1     1     2   511   501 -1.299109578E+02 -4.120773403E+00 -1.441506990E+00  1.299842901E+02  1.854341595E-06  0.00000E+00  9.000E+00
#rwgt            1           1  0.15934781748629129                4      205603           0
</event>
<event>
      5   9999  3.79277E-02  5.95831E+01 -1.00000E+00  1.34865E-01
      21    -1     0     0   502   501  0.000000000E+00  0.000000000E+00  6.182774199E+01  6.182774199E+01  0.000000000E+00  0.00000E+00  9.000E+00
      21    -1     0     0   501   512  0.000000000E+00  0.000000000E+00 -7.431740847E+02  7.431740847E+02  0.000000000E+00  0.00000E+00  9.000E+00
      25     1     1     2     0     0 -7.059474184E+01  1.051681999E+02 -1.741608899E+02  2.489999667E+02  1.250000000E+02  0.00000E+00  9.000E+00
      25     1     1     2     0     0  1.132881652E+01 -9.902815424E+01 -2.941348040E+02  3.347763437E+02  1.250000000E+02  0.00000E+00  9.000E+00
      21     1     1     2   502   512  5.926592533E+01 -6.140045700E+00 -2.130506488E+02  2.212255162E+02  0.000000000E+00  0.00000E+00  9.000E+00
#rwgt            1           1   3.8773669504537658E-002           4      205641           0
</event>
<event>
      5   9999  3.79277E-02  2.40115E+02 -1.00000E+00  1.08832E-01
      21    -1     0     0   502   501  0.000000000E+00  0.000000000E+00  1.748845148E+02  1.748845148E+02  0.000000000E+00  0.00000E+00  9.000E+00
      21    -1     0     0   511   502  0.000000000E+00  0.000000000E+00 -9.688829087E+02  9.688829087E+02  0.000000000E+00  0.00000E+00  9.000E+00
      25     1     1     2     0     0 -1.190721646E+02 -8.795071390E+01  2.419312839E+01  1.952532097E+02  1.250000000E+02  0.00000E+00  9.000E+00
      25     1     1     2     0     0  1.726355351E+01 -1.295127939E+02 -1.388375190E+02  2.279746713E+02  1.250000000E+02  0.00000E+00  9.000E+00
      21     1     1     2   511   501  1.018086110E+02  2.174635078E+02 -6.793540033E+02  7.205395425E+02  1.078959322E-05  0.00000E+00  9.000E+00
#rwgt            2          11   8.5646838534774849E-004           4      205723           0
</event>
<event>
      5   9999  3.79277E-02  6.33967E+01 -1.00000E+00  1.33438E-01
       1    -1     0     0   502     0  0.000000000E+00  0.000000000E+00  1.707364848E+02  1.707364848E+02  0.000000000E+00  0.00000E+00  9.000E+00
      21    -1     0     0   501   502  0.000000000E+00  0.000000000E+00 -3.644544277E+02  3.644544277E+02  0.000000000E+00  0.00000E+00  9.000E+00
      25     1     1     2     0     0  1.507079408E+02  3.355157790E+01 -8.369540709E+01  2.155655654E+02  1.250000000E+02  0.00000E+00  9.000E+00
      25     1     1     2     0     0 -1.020783111E+02 -7.422470374E+01 -1.598667795E+02  2.389804917E+02  1.250000000E+02  0.00000E+00  9.000E+00
       1     1     1     2   501     0 -4.862962972E+01  4.067312584E+01  4.984424370E+01  8.064485527E+01  6.743495762E-07  0.00000E+00  9.000E+00
#rwgt            1           1   4.5639995146850951E-002           4      205863           0
</event>
<event>
      5   9999  3.79277E-02  2.60072E+02 -1.00000E+00  1.07647E-01
      21    -1     0     0   502   511  0.000000000E+00  0.000000000E+00  1.074839753E+02  1.074839753E+02  0.000000000E+00  0.00000E+00  9.000E+00
      21    -1     0     0   501   502  0.000000000E+00  0.000000000E+00 -1.339467218E+03  1.339467218E+03  0.000000000E+00  0.00000E+00  9.000E+00
      25     1     1     2     0     0  1.291032185E+01 -4.204722103E+01 -4.503609341E+02  4.694513992E+02  1.250000000E+02  0.00000E+00  9.000E+00
      25     1     1     2     0     0 -2.594438518E+02  1.248652083E+02 -5.278599222E+02  6.141364099E+02  1.250000000E+02  0.00000E+00  9.000E+00
      21     1     1     2   501   511  2.465335299E+02 -8.281798724E+01 -2.537623866E+02  3.633633845E+02  5.394796609E-06  0.00000E+00  9.000E+00
#rwgt            1           1   3.5573301824276503E-002           4      206085           0
</event>
<event>
      5   9999  3.79277E-02  6.21998E+01 -1.00000E+00  1.33873E-01
       1    -1     0     0   502     0  0.000000000E+00  0.000000000E+00  2.205788022E+03  2.205788022E+03  0.000000000E+00  0.00000E+00  9.000E+00
      21    -1     0     0   501   502  0.000000000E+00  0.000000000E+00 -4.636413862E+01  4.636413862E+01  0.000000000E+00  0.00000E+00  9.000E+00
      25     1     1     2     0     0  1.237796789E+02  1.221364123E+01  1.655815942E+02  2.418942874E+02  1.250000000E+02  0.00000E+00  9.000E+00
      25     1     1     2     0     0 -1.272810977E+02  4.988752995E+01  1.227889818E+03  1.241784059E+03  1.250000000E+02  0.00000E+00  9.000E+00
       1     1     1     2   501     0  3.501418878E+00 -6.210117118E+01  7.659524710E+02  7.684738143E+02  1.078959322E-05  0.00000E+00  9.000E+00
#rwgt            2          17   1.9502732178666219E-004           4      206463           0
</event>
<event>
      5   9999  3.79277E-02  3.38305E+01 -1.00000E+00  1.49501E-01
      21    -1     0     0   502   511  0.000000000E+00  0.000000000E+00  7.426289372E+01  7.426289372E+01  0.000000000E+00  0.00000E+00  9.000E+00
      21    -1     0     0   501   502  0.000000000E+00  0.000000000E+00 -8.596773906E+02  8.596773906E+02  0.000000000E+00  0.00000E+00  9.000E+00
      25     1     1     2     0     0 -7.157588850E+01 -1.120914868E+02 -8.684256063E+01  2.021243171E+02  1.250000000E+02  0.00000E+00  9.000E+00
      25     1     1     2     0     0  3.975166482E+01  1.006144745E+02 -6.605511129E+02  6.809230795E+02  1.250000000E+02  0.00000E+00  9.000E+00
      21     1     1     2   501   511  3.182422368E+01  1.147701221E+01 -3.802082333E+01  5.089288780E+01  4.768371582E-07  0.00000E+00  9.000E+00
#rwgt            1           1   4.7898563567470687E-002           4      206497           0
</event>
<event>
      5   9999  3.79277E-02  4.78225E+01 -1.00000E+00  1.40188E-01
      21    -1     0     0   502   501  0.000000000E+00  0.000000000E+00  5.717745236E+02  5.717745236E+02  0.000000000E+00  0.00000E+00  9.000E+00
      21    -1     0     0   501   512  0.000000000E+00  0.000000000E+00 -8.853318469E+01  8.853318469E+01  0.000000000E+00  0.00000E+00  9.000E+00
      25     1     1     2     0     0 -1.718701696E+02  1.203762420E+01  1.686297279E+02  2.715607570E+02  1.250000000E+02  0.00000E+00  9.000E+00
      25     1     1     2     0     0  1.267529544E+02  3.818740963E+00  2.694569561E+02  3.229751468E+02  1.250000000E+02  0.00000E+00  9.000E+00
      21     1     1     2   502   512  4.511721512E+01 -1.585636517E+01  4.515465484E+01  6.577180453E+01  1.168007728E-06  0.00000E+00  9.000E+00
#rwgt            1           1   3.6998360239602839E-002           4      206683           0
</event>
<event>
      5   9999  3.79277E-02  7.87129E+01 -1.00000E+00  1.28691E-01
      21    -1     0     0   511   501  0.000000000E+00  0.000000000E+00  1.446953119E+03  1.446953119E+03  0.000000000E+00  0.00000E+00  9.000E+00
      21    -1     0     0   501   502  0.000000000E+00  0.000000000E+00 -4.884758439E+01  4.884758439E+01  0.000000000E+00  0.00000E+00  9.000E+00
      25     1     1     2     0     0 -1.580491564E+02  6.459583116E+01  3.942365676E+02  4.474367312E+02  1.250000000E+02  0.00000E+00  9.000E+00
      25     1     1     2     0     0  1.833205384E+02  9.950031006E+00  7.828399928E+02  8.137375973E+02  1.250000000E+02  0.00000E+00  9.000E+00
      21     1     1     2   511   502 -2.527138199E+01 -7.454586217E+01  2.210289738E+02  2.346263744E+02  0.000000000E+00  0.00000E+00  9.000E+00
#rwgt            1           1   2.7672224312234733E-002           4      206809           0
</event>
<event>
      5   9999  3.79277E-02  1.52485E+02  7.55638E-03  1.16111E-01
       2    -1     0     0   501     0  0.000000000E+00  0.000000000E+00  4.054128806E+02  4.054128806E+02  0.000000000E+00  0.00000E+00  9.000E+00
      -2    -1     0     0     0   502  0.000000000E+00  0.000000000E+00 -1.504269325E+02  1.504269325E+02  0.000000000E+00  0.00000E+00  9.000E+00
      25     1     1     2     0     0 -3.464147557E+01  4.236597916E+01  5.162128527E+01  1.458926493E+02  1.250000000E+02  0.00000E+00  9.000E+00
      25     1     1     2     0     0  2.478603729E+01  1.098002676E+02  1.688096589E+01  1.690574264E+02  1.250000000E+02  0.00000E+00  9.000E+00
      21     1     1     2   501   502  9.855438277E+00 -1.521662468E+02  1.864836970E+02  2.408897374E+02  2.697398305E-06  0.00000E+00  9.000E+00
#rwgt            3           7   1.0981709747743687E-003           4      207044           0
</event>
<event>
      5   9999  3.79277E-02  1.27428E+02 -1.00000E+00  1.19271E-01
       2    -1     0     0   502     0  0.000000000E+00  0.000000000E+00  7.837099185E+02  7.837099185E+02  0.000000000E+00  0.00000E+00  9.000E+00
      21    -1     0     0   501   502  0.000000000E+00  0.000000000E+00 -1.284399919E+03  1.284399919E+03  0.000000000E+00  0.00000E+00  9.000E+00
      25     1     1     2     0     0  7.398217036E+01  6.640662031E+01 -9.139834153E+02  9.278328967E+02  1.250000000E+02  0.00000E+00  9.000E+00
      25     1     1     2     0     0 -1.089184692E+02 -1.889523783E+02 -3.138169178E+02  4.020849314E+02  1.250000000E+02  0.00000E+00  9.000E+00
       2     1     1     2   501     0  3.493629886E+01  1.225457580E+02  7.271103323E+02  7.381920097E+02  0.000000000E+00  0.00000E+00  9.000E+00
#rwgt            1           1   4.1024829614722980E-002           4      207153           0
</event>
<event>
      5   9999  3.79277E-02  1.25089E+02 -1.00000E+00  1.19608E-01
      21    -1     0     0   502   501  0.000000000E+00  0.000000000E+00  5.174282531E+02  5.174282531E+02  0.000000000E+00  0.00000E+00  9.000E+00
      21    -1     0     0   511   502  0.000000000E+00  0.000000000E+00 -6.038839543E+02  6.038839543E+02  0.000000000E+00  0.00000E+00  9.000E+00
      25     1     1     2     0     0 -4.025501722E+01 -1.898798476E+02  1.465846059E+02  2.734718809E+02  1.250000000E+02  0.00000E+00  9.000E+00
      25     1     1     2     0     0  2.582413849E+00  3.091606552E+02  2.055617566E+02  3.917494293E+02  1.250000000E+02  0.00000E+00  9.000E+00
      21     1     1     2   511   501  3.767260337E+01 -1.192808076E+02 -4.386020638E+02  4.560908972E+02  5.394796609E-06  0.00000E+00  9.000E+00
#rwgt            1           1   3.0785196118023023E-002           4      207222           0
</event>
<event>
      5   9999  3.79277E-02  1.71521E+01 -1.00000E+00  1.72068E-01
      21    -1     0     0   502   512  0.000000000E+00  0.000000000E+00  7.727820904E+02  7.727820904E+02  0.000000000E+00  0.00000E+00  9.000E+00
      21    -1     0     0   501   502  0.000000000E+00  0.000000000E+00 -1.905549752E+02  1.905549752E+02  0.000000000E+00  0.00000E+00  9.000E+00
      25     1     1     2     0     0 -7.564607688E+00 -3.186112269E+02  9.008106368E+01  3.539914339E+02  1.250000000E+02  0.00000E+00  9.000E+00
      25     1     1     2     0     0 -9.584745961E+00  3.183029343E+02  4.706101078E+02  5.818139727E+02  1.250000000E+02  0.00000E+00  9.000E+00
      21     1     1     2   501   512  1.714935365E+01  3.082926819E-01  2.153594373E+01  2.753165900E+01  3.371747881E-07  0.00000E+00  9.000E+00
#rwgt            1           1   3.6101755990817143E-002           4      207340           0
</event>
<event>
      5   9999  3.79277E-02  5.59310E+01 -1.00000E+00  1.36354E-01
      21    -1     0     0   502   501  0.000000000E+00  0.000000000E+00  5.736332041E+02  5.736332041E+02  0.000000000E+00  0.00000E+00  9.000E+00
      21    -1     0     0   501   511  0.000000000E+00  0.000000000E+00 -4.379488902E+02  4.379488902E+02  0.000000000E+00  0.00000E+00  9.000E+00
      25     1     1     2     0     0 -2.833668903E+01 -3.317040025E+02  1.484271614E+02  3.853389877E+02  1.250000000E+02  0.00000E+00  9.000E+00
      25     1     1     2     0     0  6.542936197E+01  3.735657479E+02  1.708384733E+02  4.343306959E+02  1.250000000E+02  0.00000E+00  9.000E+00
      21     1     1     2   502   511 -3.709267293E+01 -4.186174541E+01 -1.835813207E+02  1.919124108E+02  0.000000000E+00  0.00000E+00  9.000E+00
#rwgt            1           1   4.2139625808467793E-002           4      207588           0
</event>
<event>
      5   9999  3.79277E-02  3.84212E+01 -1.00000E+00  1.45933E-01
      21    -1     0     0   502   512  0.000000000E+00  0.000000000E+00  2.464885971E+02  2.464885971E+02  0.000000000E+00  0.00000E+00  9.000E+00
      21    -1     0     0   501   502  0.000000000E+00  0.000000000E+00 -1.549285639E+03  1.549285639E+03  0.000000000E+00  0.00000E+00  9.000E+00
      25     1     1     2     0     0 -1.104473537E+02  1.485399660E+02 -3.609406937E+02  4.244595667E+02  1.250000000E+02  0.00000E+00  9.000E+00
      25     1     1     2     0     0  1.476833115E+02 -1.390704254E+02 -1.142470798E+03  1.167054184E+03  1.250000000E+02  0.00000E+00  9.000E+00
      21     1     1     2   501   512 -3.723595773E+01 -9.469540613E+00  2.006144495E+02  2.042604859E+02  4.672030912E-06  0.00000E+00  9.000E+00
#rwgt            1           1   3.3217117054334770E-002           4      207775           0
</event>
<event>
      5   9999  3.79277E-02  8.19091E+01 -1.00000E+00  1.27856E-01
      21    -1     0     0   502   501  0.000000000E+00  0.000000000E+00  5.684945321E+02  5.684945321E+02  0.000000000E+00  0.00000E+00  9.000E+00
       2    -1     0     0   501     0  0.000000000E+00  0.000000000E+00 -9.958772970E+02  9.958772970E+02  0.000000000E+00  0.00000E+00  9.000E+00
      25     1     1     2     0     0  8.659117411E+01 -8.348754288E+01  3.913720625E+02  4.280949574E+02  1.250000000E+02  0.00000E+00  9.000E+00
      25     1     1     2     0     0 -1.571403715E+02  1.251037023E+02  6.767800189E+01  2.460677643E+02  1.250000000E+02  0.00000E+00  9.000E+00
       2     1     1     2   502     0  7.054919744E+01 -4.161615938E+01 -8.864328293E+02  8.902091074E+02  1.078959322E-05  0.00000E+00  9.000E+00
#rwgt            1           1   3.9432814721255205E-002           4      208042           0
</event>
<event>
      5   9999  3.79277E-02  6.05436E+01 -1.00000E+00  1.34494E-01
      21    -1     0     0   502   501  0.000000000E+00  0.000000000E+00  9.776159935E+02  9.776159935E+02  0.000000000E+00  0.00000E+00  9.000E+00
      21    -1     0     0   501   511  0.000000000E+00  0.000000000E+00 -8.819393154E+02  8.819393154E+02  0.000000000E+00  0.00000E+00  9.000E+00
      25     1     1     2     0     0 -2.698585820E+02  5.440453761E+01  7.010999635E+02  7.635114058E+02  1.250000000E+02  0.00000E+00  9.000E+00
      25     1     1     2     0     0  2.535251638E+02 -1.127033527E+02  1.492569234E+02  3.389390558E+02  1.250000000E+02  0.00000E+00  9.000E+00
      21     1     1     2   502   511  1.633341824E+01  5.829881510E+01 -7.546802088E+02  7.571048473E+02  1.525878906E-05  0.00000E+00  9.000E+00
#rwgt            1           1   3.3370824733844520E-002           4      208110           0
</event>
<event>
      5   9999  3.79277E-02  1.91256E+01 -1.00000E+00  1.67987E-01
      21    -1     0     0   502   501  0.000000000E+00  0.000000000E+00  7.447557595E+02  7.447557595E+02  0.000000000E+00  0.00000E+00  9.000E+00
      21    -1     0     0   501   512  0.000000000E+00  0.000000000E+00 -1.188489291E+02  1.188489291E+02  0.000000000E+00  0.00000E+00  9.000E+00
      25     1     1     2     0     0  1.081947441E+01 -7.285853661E+01  3.315957511E+00  1.451255421E+02  1.250000000E+02  0.00000E+00  9.000E+00
      25     1     1     2     0     0 -1.309859637E+01  9.184789179E+01  6.591162067E+02  6.772494240E+02  1.250000000E+02  0.00000E+00  9.000E+00
      21     1     1     2   502   512  2.279121963E+00 -1.898935518E+01 -3.652533385E+01  4.122972253E+01  6.743495762E-07  0.00000E+00  9.000E+00
#rwgt            1           1   4.6083265876973534E-002           4      208203           0
</event>
<event>
      5   9999  3.79277E-02  4.80603E+01 -1.00000E+00  1.40063E-01
      21    -1     0     0   502   501  0.000000000E+00  0.000000000E+00  6.419446240E+01  6.419446240E+01  0.000000000E+00  0.00000E+00  9.000E+00
      -1    -1     0     0     0   502  0.000000000E+00  0.000000000E+00 -1.737204990E+03  1.737204990E+03  0.000000000E+00  0.00000E+00  9.000E+00
      25     1     1     2     0     0 -1.909510760E+02 -1.680749634E+02 -1.009323330E+03  1.048365438E+03  1.250000000E+02  0.00000E+00  9.000E+00
      25     1     1     2     0     0  2.166743351E+02  1.274781434E+02 -4.236647783E+02  5.082472714E+02  1.250000000E+02  0.00000E+00  9.000E+00
      -1     1     1     2     0   501 -2.572325908E+01  4.059682001E+01 -2.400224193E+02  2.447867432E+02  2.697398305E-06  0.00000E+00  9.000E+00
#rwgt            1           1   2.8402030976005070E-002           4      208404           0
</event>
<event>
      5   9999  3.79277E-02  1.89598E+01 -1.00000E+00  1.68306E-01
      21    -1     0     0   502   501  0.000000000E+00  0.000000000E+00  5.259878740E+01  5.259878740E+01  0.000000000E+00  0.00000E+00  9.000E+00
      21    -1     0     0   501   511  0.000000000E+00  0.000000000E+00 -1.342949202E+03  1.342949202E+03  0.000000000E+00  0.00000E+00  9.000E+00
      25     1     1     2     0     0  2.382477230E+01  1.394935131E+02 -2.073543762E+02  2.804405415E+02  1.250000000E+02  0.00000E+00  9.000E+00
      25     1     1     2     0     0 -3.885963994E+01 -1.279423936E+02 -5.109437287E+02  5.427410263E+02  1.250000000E+02  0.00000E+00  9.000E+00
      21     1     1     2   502   511  1.503486764E+01 -1.155111954E+01 -5.720523094E+02  5.723664214E+02  7.629394531E-06  0.00000E+00  9.000E+00
#rwgt            1           1   3.6859789440947303E-002           4      208533           0
</event>
<event>
      5   9999  3.79277E-02  1.00339E+02 -1.00000E+00  1.23762E-01
      21    -1     0     0   502   501  0.000000000E+00  0.000000000E+00  7.347534630E+01  7.347534630E+01  0.000000000E+00  0.00000E+00  9.000E+00
      21    -1     0     0   501   512  0.000000000E+00  0.000000000E+00 -7.602915019E+02  7.602915019E+02  0.000000000E+00  0.00000E+00  9.000E+00
      25     1     1     2     0     0  4.829789456E+01 -8.605873418E+01 -2.502220581E+02  2.966055810E+02  1.250000000E+02  0.00000E+00  9.000E+00
      25     1     1     2     0     0  5.041226705E+01  1.040621868E+02 -1.290324653E+02  2.136462321E+02  1.250000000E+02  0.00000E+00  9.000E+00
      21     1     1     2   502   512 -9.871016161E+01 -1.800345260E+01 -3.075616322E+02  3.235150351E+02  0.000000000E+00  0.00000E+00  9.000E+00
#rwgt            1           1   3.8660871720040735E-002           4      208751           0
</event>
<event>
      5   9999  3.79277E-02  3.84204E+01 -1.00000E+00  1.45934E-01
      21    -1     0     0   502   511  0.000000000E+00  0.000000000E+00  2.017691266E+03  2.017691266E+03  0.000000000E+00  0.00000E+00  9.000E+00
      21    -1     0     0   501   502  0.000000000E+00  0.000000000E+00 -2.566430152E+01  2.566430152E+01  0.000000000E+00  0.00000E+00  9.000E+00
      25     1     1     2     0     0 -1.244246712E+02 -8.454344865E+01  8.125587692E+02  8.357666223E+02  1.250000000E+02  0.00000E+00  9.000E+00
      25     1     1     2     0     0  1.112502125E+02  1.206344252E+02  7.995382543E+02  8.257213177E+02  1.250000000E+02  0.00000E+00  9.000E+00
      21     1     1     2   501   511  1.317445873E+01 -3.609097652E+01  3.799299407E+02  3.818676273E+02  5.394796609E-06  0.00000E+00  9.000E+00
#rwgt            1           1   4.0207940516118798E-002           4      208816           0
</event>
<event>
      5   9999  3.79277E-02  6.73694E+01 -1.00000E+00  1.32069E-01
      21    -1     0     0   512   501  0.000000000E+00  0.000000000E+00  3.485028356E+02  3.485028356E+02  0.000000000E+00  0.00000E+00  9.000E+00
      21    -1     0     0   501   502  0.000000000E+00  0.000000000E+00 -3.561030636E+02  3.561030636E+02  0.000000000E+00  0.00000E+00  9.000E+00
      25     1     1     2     0     0  3.080808785E+01  3.139050951E+02 -5.751501761E+01  3.441199271E+02  1.250000000E+02  0.00000E+00  9.000E+00
      25     1     1     2     0     0 -5.727301288E+01 -2.519515128E+02  2.302877774E+01  2.879498002E+02  1.250000000E+02  0.00000E+00  9.000E+00
      21     1     1     2   512   502  2.646492503E+01 -6.195358224E+01  2.688601187E+01  7.253617196E+01  8.920806376E-07  0.00000E+00  9.000E+00
#rwgt            1           1   3.4784807291637208E-002           4      208892           0
</event>
<event>
      5   9999  3.79277E-02  1.21218E+01 -1.00000E+00  1.86568E-01
      21    -1     0     0   502   501  0.000000000E+00  0.000000000E+00  1.433396131E+03  1.433396131E+03  0.000000000E+00  0.00000E+00  9.000E+00
       3    -1     0     0   501     0  0.000000000E+00  0.000000000E+00 -4.744663345E+01  4.744663345E+01  0.000000000E+00  0.00000E+00  9.000E+00
      25     1     1     2     0     0 -3.013480033E-01  1.594123728E+02  3.441257531E+02  3.993243411E+02  1.250000000E+02  0.00000E+00  9.000E+00
      25     1     1     2     0     0  9.638720117E+00 -1.671422709E+02  1.047499453E+03  1.068133675E+03  1.250000000E+02  0.00000E+00  9.000E+00
       3     1     1     2   502     0 -9.337372113E+00  7.729898051E+00 -5.675708022E+00  1.338474891E+01  5.057621821E-07  0.00000E+00  9.000E+00
#rwgt            1           1   3.6939320624794665E-002           4      209049           0
</event>
<event>
      5   9999  3.79277E-02  8.16875E+01 -1.00000E+00  1.27912E-01
      21    -1     0     0   511   501  0.000000000E+00  0.000000000E+00  1.334187612E+02  1.334187612E+02  0.000000000E+00  0.00000E+00  9.000E+00
      21    -1     0     0   501   502  0.000000000E+00  0.000000000E+00 -6.498266017E+02  6.498266017E+02  0.000000000E+00  0.00000E+00  9.000E+00
      25     1     1     2     0     0 -1.892301861E+02 -1.757153376E+01 -2.087782191E+02  3.087558371E+02  1.250000000E+02  0.00000E+00  9.000E+00
      25     1     1     2     0     0  1.367356888E+02 -4.501587178E+01 -3.374056032E+02  3.875443438E+02  1.250000000E+02  0.00000E+00  9.000E+00
      21     1     1     2   511   502  5.249449731E+01  6.258740555E+01  2.977598182E+01  8.694518201E+01  1.305872339E-06  0.00000E+00  9.000E+00
#rwgt            1           1   4.1568641886301785E-002           4      209435           0
</event>
<event>
      5   9999  3.79277E-02  5.04396E+00 -1.00000E+00  2.37854E-01
      21    -1     0     0   512   501  0.000000000E+00  0.000000000E+00  7.911014135E+02  7.911014135E+02  0.000000000E+00  0.00000E+00  9.000E+00
      21    -1     0     0   501   502  0.000000000E+00  0.000000000E+00 -3.917248548E+01  3.917248548E+01  0.000000000E+00  0.00000E+00  9.000E+00
      25     1     1     2     0     0  7.770759081E+01 -9.379685615E+01  3.619551282E+02  4.018368260E+02  1.250000000E+02  0.00000E+00  9.000E+00
      25     1     1     2     0     0 -7.276890077E+01  9.277174339E+01  3.720071228E+02  4.097758030E+02  1.250000000E+02  0.00000E+00  9.000E+00
      21     1     1     2   512   502 -4.938690044E+00  1.025112758E+00  1.796667704E+01  1.866127003E+01  2.384185791E-07  0.00000E+00  9.000E+00
#rwgt            1           1   3.2403537392896670E-002           4      209516           0
</event>
<event>
      5   9999  3.79277E-02  5.42260E+01 -1.00000E+00  1.37094E-01
      21    -1     0     0   502   501  0.000000000E+00  0.000000000E+00  6.615604969E+02  6.615604969E+02  0.000000000E+00  0.00000E+00  9.000E+00
      21    -1     0     0   511   502  0.000000000E+00  0.000000000E+00 -2.341935309E+02  2.341935309E+02  0.000000000E+00  0.00000E+00  9.000E+00
      25     1     1     2     0     0 -3.022845142E+02 -1.584567684E+01  1.650820162E+02  3.667479858E+02  1.250000000E+02  0.00000E+00  9.000E+00
      25     1     1     2     0     0  3.297353236E+02 -3.091879761E+01  2.991280143E+02  4.634478662E+02  1.250000000E+02  0.00000E+00  9.000E+00
      21     1     1     2   511   501 -2.745080941E+01  4.676447445E+01 -3.684306463E+01  6.555817584E+01  8.259061849E-07  0.00000E+00  9.000E+00
#rwgt            1           1   3.1594972173970552E-002           4      209984           0
</event>
<event>
      5   9999  3.79277E-02  6.27336E+01 -1.00000E+00  1.33678E-01
      21    -1     0     0   502   501  0.000000000E+00  0.000000000E+00  9.141260737E+02  9.141260737E+02  0.000000000E+00  0.00000E+00  9.000E+00
      21    -1     0     0   512   502  0.000000000E+00  0.000000000E+00 -6.531723141E+01  6.531723141E+01  0.000000000E+00  0.00000E+00  9.000E+00
      25     1     1     2     0     0 -9.588159788E+01 -6.201667807E+01  1.130654874E+02  2.035881962E+02  1.250000000E+02  0.00000E+00  9.000E+00
      25     1     1     2     0     0  7.099286212E+01  4.431507328E+00  6.688892262E+02  6.841764551E+02  1.250000000E+02  0.00000E+00  9.000E+00
      21     1     1     2   512   501  2.488873577E+01  5.758517074E+01  6.685412866E+01  9.167865388E+01  0.000000000E+00  0.00000E+00  9.000E+00
#rwgt            2          11   2.4832133753374766E-003           4      210121           0
</event>
<event>
      5   9999  3.79277E-02  6.16112E+01 -1.00000E+00  1.34091E-01
      21    -1     0     0   502   511  0.000000000E+00  0.000000000E+00  5.006419560E+02  5.006419560E+02  0.000000000E+00  0.00000E+00  9.000E+00
      21    -1     0     0   501   502  0.000000000E+00  0.000000000E+00 -2.070526252E+02  2.070526252E+02  0.000000000E+00  0.00000E+00  9.000E+00
      25     1     1     2     0     0  1.248772151E+02  1.854251926E+02 -5.091971343E+01  2.611410311E+02  1.250000000E+02  0.00000E+00  9.000E+00
      25     1     1     2     0     0 -1.210154429E+02 -1.239351662E+02  2.146863101E+02  3.028528926E+02  1.250000000E+02  0.00000E+00  9.000E+00
      21     1     1     2   501   511 -3.861772237E+00 -6.149002645E+01  1.298227342E+02  1.437006574E+02  1.907348633E-06  0.00000E+00  9.000E+00
#rwgt            1           1   2.8365555750569500E-002           4      210231           0
</event>
<event>
      5   9999  3.79277E-02  5.17798E+01 -1.00000E+00  1.38214E-01
      21    -1     0     0   512   501  0.000000000E+00  0.000000000E+00  3.346251533E+02  3.346251533E+02  0.000000000E+00  0.00000E+00  9.000E+00
      21    -1     0     0   501   502  0.000000000E+00  0.000000000E+00 -1.569734370E+02  1.569734370E+02  0.000000000E+00  0.00000E+00  9.000E+00
      25     1     1     2     0     0  3.115136339E+01  7.011281492E+01 -6.475488940E+01  1.603259491E+02  1.250000000E+02  0.00000E+00  9.000E+00
      25     1     1     2     0     0 -8.290324891E+01 -6.841132115E+01  2.198458973E+02  2.747913320E+02  1.250000000E+02  0.00000E+00  9.000E+00
      21     1     1     2   512   502  5.175188552E+01 -1.701493763E+00  2.256070830E+01  5.648130925E+01  1.118282261E-06  0.00000E+00  9.000E+00
#rwgt            1           1   4.5926677487406968E-002           4      210325           0
</event>
<event>
      5   9999  3.79277E-02  1.81760E+01 -1.00000E+00  1.69870E-01
      21    -1     0     0   502   501  0.000000000E+00  0.000000000E+00  2.320846773E+01  2.320846773E+01  0.000000000E+00  0.00000E+00  9.000E+00
      21    -1     0     0   511   502  0.000000000E+00  0.000000000E+00 -2.070515957E+03  2.070515957E+03  0.000000000E+00  0.00000E+00  9.000E+00
      25     1     1     2     0     0 -8.196511669E+01 -9.738945884E+01 -4.716745417E+02  5.042864863E+02  1.250000000E+02  0.00000E+00  9.000E+00
      25     1     1     2     0     0  8.532983941E+01  1.152513152E+02 -1.469105841E+03  1.481371331E+03  1.250000000E+02  0.00000E+00  9.000E+00
      21     1     1     2   511   501 -3.364722714E+00 -1.786185639E+01 -1.065271065E+02  1.080666077E+02  2.336015456E-06  0.00000E+00  9.000E+00
#rwgt            1           1  0.12824671657338335                4      210444           0
</event>
<event>
      5   9999  3.79277E-02  2.66775E+01 -1.00000E+00  1.56667E-01
      21    -1     0     0   502   512  0.000000000E+00  0.000000000E+00  8.385932128E+02  8.385932128E+02  0.000000000E+00  0.00000E+00  9.000E+00
      21    -1     0     0   501   502  0.000000000E+00  0.000000000E+00 -1.398896041E+02  1.398896041E+02  0.000000000E+00  0.00000E+00  9.000E+00
      25     1     1     2     0     0  1.237102603E+02 -1.461867450E+02  3.088191299E+02  3.842773060E+02  1.250000000E+02  0.00000E+00  9.000E+00
      25     1     1     2     0     0 -1.435269902E+02  1.640469714E+02  5.367404399E+01  2.569383364E+02  1.250000000E+02  0.00000E+00  9.000E+00
      21     1     1     2   501   512  1.981672985E+01 -1.786022640E+01  3.362104349E+02  3.372671745E+02  5.394796609E-06  0.00000E+00  9.000E+00
#rwgt            1           1   3.8734288905946268E-002           4      210646           0
</event>
<event>
      5   9999  3.79277E-02  7.70664E+01 -1.00000E+00  1.29140E-01
      21    -1     0     0   511   501  0.000000000E+00  0.000000000E+00  1.792886109E+02  1.792886109E+02  0.000000000E+00  0.00000E+00  9.000E+00
      21    -1     0     0   501   502  0.000000000E+00  0.000000000E+00 -1.249378568E+03  1.249378568E+03  0.000000000E+00  0.00000E+00  9.000E+00
      25     1     1     2     0     0  2.542705402E+02 -2.865846704E+02 -6.430524387E+02  7.588977005E+02  1.250000000E+02  0.00000E+00  9.000E+00
      25     1     1     2     0     0 -2.027238679E+02  3.438749306E+02 -4.193740077E+02  5.923229633E+02  1.250000000E+02  0.00000E+00  9.000E+00
      21     1     1     2   511   502 -5.154667232E+01 -5.729026021E+01 -7.663510957E+00  7.744651537E+01  1.177097419E-06  0.00000E+00  9.000E+00
#rwgt            1           1   3.2614432503022102E-002           4      210906           0
</event>
<event>
      5   9999  3.79277E-02  2.98884E+01 -1.00000E+00  1.53152E-01
      21    -1     0     0   512   501  0.000000000E+00  0.000000000E+00  1.112349719E+02  1.112349719E+02  0.000000000E+00  0.00000E+00  9.000E+00
      21    -1     0     0   501   502  0.000000000E+00  0.000000000E+00 -1.339157262E+03  1.339157262E+03  0.000000000E+00  0.00000E+00  9.000E+00
      25     1     1     2     0     0 -9.252770855E+01 -2.125638569E+02 -5.984267846E+02  6.538229016E+02  1.250000000E+02  0.00000E+00  9.000E+00
      25     1     1     2     0     0  6.565071758E+01  2.256383019E+02 -6.842451189E+02  7.341927830E+02  1.250000000E+02  0.00000E+00  9.000E+00
      21     1     1     2   512   502  2.687699096E+01 -1.307444495E+01  5.474961324E+01  6.237654931E+01  6.743495762E-07  0.00000E+00  9.000E+00
#rwgt            1           1   2.6825044620428246E-002           4      211165           0
</event>
<event>
      5   9999  3.79277E-02  7.49011E+01 -1.00000E+00  1.29749E-01
      21    -1     0     0   502   511  0.000000000E+00  0.000000000E+00  1.189149233E+02  1.189149233E+02  0.000000000E+00  0.00000E+00  9.000E+00
      21    -1     0     0   501   502  0.000000000E+00  0.000000000E+00 -8.996445442E+02  8.996445442E+02  0.000000000E+00  0.00000E+00  9.000E+00
      25     1     1     2     0     0 -5.792552839E+01  2.067753303E+02 -6.664262617E+02  7.112386142E+02  1.250000000E+02  0.00000E+00  9.000E+00
      25     1     1     2     0     0 -1.871615459E+00 -1.616701925E+02 -5.459526806E+01  2.115334427E+02  1.250000000E+02  0.00000E+00  9.000E+00
      21     1     1     2   501   511  5.979714385E+01 -4.510513782E+01 -5.970809116E+01  9.578741055E+01  1.507891493E-06  0.00000E+00  9.000E+00
#rwgt            1           1   4.5536123916257346E-002           4      211281           0
</event>
<event>
      5   9999  3.79277E-02  5.47359E+01 -1.00000E+00  1.36870E-01
      21    -1     0     0   502   501  0.000000000E+00  0.000000000E+00  8.354156853E+02  8.354156853E+02  0.000000000E+00  0.00000E+00  9.000E+00
      21    -1     0     0   501   512  0.000000000E+00  0.000000000E+00 -8.147163618E+02  8.147163618E+02  0.000000000E+00  0.00000E+00  9.000E+00
      25     1     1     2     0     0 -1.325307789E+02  2.208229137E+02  3.261211227E+02  4.339437212E+02  1.250000000E+02  0.00000E+00  9.000E+00
      25     1     1     2     0     0  1.794441505E+02 -1.926243617E+02  4.076014955E+02  5.010671881E+02  1.250000000E+02  0.00000E+00  9.000E+00
      21     1     1     2   502   512 -4.691337162E+01 -2.819855200E+01 -7.130232947E+02  7.151211377E+02  1.078959322E-05  0.00000E+00  9.000E+00
#rwgt            1           1   3.5574196168429661E-002           4      211370           0
</event>
<event>
      5   9999  3.79277E-02  6.93211E+00 -1.00000E+00  2.16154E-01
      21    -1     0     0   502   501  0.000000000E+00  0.000000000E+00  1.917207862E+02  1.917207862E+02  0.000000000E+00  0.00000E+00  9.000E+00
      21    -1     0     0   501   511  0.000000000E+00  0.000000000E+00 -4.312415080E+02  4.312415080E+02  0.000000000E+00  0.00000E+00  9.000E+00
      25     1     1     2     0     0 -1.354260422E+02 -1.747949089E+02 -8.087385005E+01  2.665690393E+02  1.250000000E+02  0.00000E+00  9.000E+00
      25     1     1     2     0     0  1.289471622E+02  1.772603279E+02 -6.245301574E+01  2.599499445E+02  1.250000000E+02  0.00000E+00  9.000E+00
      21     1     1     2   502   511  6.478879950E+00 -2.465419035E+00 -9.619385602E+01  9.644331035E+01  1.348699152E-06  0.00000E+00  9.000E+00
#rwgt            1           1   3.9802141129027045E-002           4      211571           0
</event>
<event>
      5   9999  3.79277E-02  1.43067E+02 -1.00000E+00  1.17214E-01
      21    -1     0     0   502   501  0.000000000E+00  0.000000000E+00  5.795677512E+02  5.795677512E+02  0.000000000E+00  0.00000E+00  9.000E+00
      21    -1     0     0   501   512  0.000000000E+00  0.000000000E+00 -6.301600673E+02  6.301600673E+02  0.000000000E+00  0.00000E+00  9.000E+00
      25     1     1     2     0     0  8.650580232E+01 -1.113432528E+02  2.536483589E+02  3.159795306E+02  1.250000000E+02  0.00000E+00  9.000E+00
      25     1     1     2     0     0 -1.738469667E+02 -1.969525531E+00  2.454609193E+02  3.257341090E+02  1.250000000E+02  0.00000E+00  9.000E+00
      21     1     1     2   502   512  8.734116437E+01  1.133127784E+02 -5.497015942E+02  5.680141789E+02  7.629394531E-06  0.00000E+00  9.000E+00
#rwgt            1           1   3.8113427080290321E-002           4      211865           0
</event>
<event>
      5   9999  3.79277E-02  9.25417E+01 -1.00000E+00  1.25361E-01
      -4    -1     0     0     0   501  0.000000000E+00  0.000000000E+00  3.199637550E+02  3.199637550E+02  0.000000000E+00  0.00000E+00  9.000E+00
      21    -1     0     0   501   502  0.000000000E+00  0.000000000E+00 -3.240790929E+02  3.240790929E+02  0.000000000E+00  0.00000E+00  9.000E+00
      25     1     1     2     0     0 -5.041955371E+01 -1.165842270E+02 -2.060354026E+02  2.724143911E+02  1.250000000E+02  0.00000E+00  9.000E+00
      25     1     1     2     0     0 -3.214002221E+01  1.583918288E+02  8.201387662E+01  2.201640943E+02  1.250000000E+02  0.00000E+00  9.000E+00
      -4     1     1     2     0   502  8.255957592E+01 -4.180760180E+01  1.199061881E+02  1.514643624E+02  0.000000000E+00  0.00000E+00  9.000E+00
#rwgt            1           1   3.3221809490235524E-002           4      211911           0
</event>
<event>
      5   9999  3.79277E-02  4.00466E+01 -1.00000E+00  1.44809E-01
      21    -1     0     0   502   511  0.000000000E+00  0.000000000E+00  3.478261845E+02  3.478261845E+02  0.000000000E+00  0.00000E+00  9.000E+00
      21    -1     0     0   501   502  0.000000000E+00  0.000000000E+00 -6.335794202E+02  6.335794202E+02  0.000000000E+00  0.00000E+00  9.000E+00
      25     1     1     2     0     0  1.383682798E+02 -5.940127110E+01 -4.545897816E+02  4.949254099E+02  1.250000000E+02  0.00000E+00  9.000E+00
      25     1     1     2     0     0 -1.395118849E+02  9.943152125E+01 -8.575698630E+01  2.287563204E+02  1.250000000E+02  0.00000E+00  9.000E+00
      21     1     1     2   501   511  1.143605124E+00 -4.003025015E+01  2.545935322E+02  2.577238743E+02  3.814697266E-06  0.00000E+00  9.000E+00
#rwgt            1           1   3.9277776742291375E-002           4      211942           0
</event>
<event>
      5   9999  3.79277E-02  8.66389E+01 -1.00000E+00  1.26696E-01
      21    -1     0     0   512   501  0.000000000E+00  0.000000000E+00  1.764741341E+02  1.764741341E+02  0.000000000E+00  0.00000E+00  9.000E+00
      21    -1     0     0   501   502  0.000000000E+00  0.000000000E+00 -1.007208657E+03  1.007208657E+03  0.000000000E+00  0.00000E+00  9.000E+00
      25     1     1     2     0     0 -2.958144937E+02 -3.721939334E+01 -6.227733027E+02  7.016858873E+02  1.250000000E+02  0.00000E+00  9.000E+00
      25     1     1     2     0     0  2.536049890E+02 -3.844208833E+01 -2.556394359E+02  3.831054760E+02  1.250000000E+02  0.00000E+00  9.000E+00
      21     1     1     2   512   502  4.220950475E+01  7.566148168E+01  4.767821612E+01  9.889142730E+01  6.743495762E-07  0.00000E+00  9.000E+00
#rwgt            1           1   1.4631899666224463E-002           4      212105           0
</event>
<event>
      5   9999  3.79277E-02  9.25023E+00 -1.00000E+00  1.99753E-01
      21    -1     0     0   511   501  0.000000000E+00  0.000000000E+00  7.845457942E+02  7.845457942E+02  0.000000000E+00  0.00000E+00  9.000E+00
      21    -1     0     0   501   502  0.000000000E+00  0.000000000E+00 -6.239789301E+01  6.239789301E+01  0.000000000E+00  0.00000E+00  9.000E+00
      25     1     1     2     0     0 -1.663485225E+02 -4.658966311E+01  3.075566461E+02  3.742439288E+02  1.250000000E+02  0.00000E+00  9.000E+00
      25     1     1     2     0     0  1.734486182E+02  4.066046281E+01  3.935709394E+02  4.497341222E+02  1.250000000E+02  0.00000E+00  9.000E+00
      21     1     1     2   511   502 -7.100095657E+00  5.929200303E+00  2.102031573E+01  2.296563624E+01  3.371747881E-07  0.00000E+00  9.000E+00
#rwgt            1           1   4.2820595606523813E-002           4      212288           0
</event>
<event>
      5   9999  3.79277E-02  1.00563E+01 -1.00000E+00  1.95475E-01
      21    -1     0     0   502   501  0.000000000E+00  0.000000000E+00  4.148490931E+02  4.148490931E+02  0.000000000E+00  0.00000E+00  9.000E+00
       1    -1     0     0   501     0  0.000000000E+00  0.000000000E+00 -1.383743160E+02  1.383743160E+02  0.000000000E+00  0.00000E+00  9.000E+00
      25     1     1     2     0     0 -1.326581029E+02  2.405111429E+01  2.900093662E+02  3.433759759E+02  1.250000000E+02  0.00000E+00  9.000E+00
      25     1     1     2     0     0  1.313363881E+02 -1.408200717E+01  1.215030247E+01  1.822640382E+02  1.250000000E+02  0.00000E+00  9.000E+00
       1     1     1     2   502     0  1.321714767E+00 -9.969107128E+00 -2.568489155E+01  2.758339502E+01  4.768371582E-07  0.00000E+00  9.000E+00
#rwgt            1           1  0.18442684646279772                4      212674           0
</event>
<event>
      5   9999  3.79277E-02  6.11562E+01 -1.00000E+00  1.34262E-01
      21    -1     0     0   511   501  0.000000000E+00  0.000000000E+00  2.251548696E+02  2.251548696E+02  0.000000000E+00  0.00000E+00  9.000E+00
      21    -1     0     0   501   502  0.000000000E+00  0.000000000E+00 -5.370856402E+02  5.370856402E+02  0.000000000E+00  0.00000E+00  9.000E+00
      25     1     1     2     0     0 -1.089607166E+02  2.589835929E+02 -2.734681840E+02  4.115273829E+02  1.250000000E+02  0.00000E+00  9.000E+00
      25     1     1     2     0     0  1.340640529E+02 -2.032170765E+02 -6.917620458E+01  2.822776962E+02  1.250000000E+02  0.00000E+00  9.000E+00
      21     1     1     2   511   502 -2.510333631E+01 -5.576651641E+01  3.071361808E+01  6.843543075E+01  1.390207266E-06  0.00000E+00  9.000E+00
#rwgt            1           1   1.4728567377832714E-002           4      213027           0
</event>
<event>
      5   9999  3.79277E-02  2.98177E+01 -1.00000E+00  1.53224E-01
      21    -1     0     0   502   501  0.000000000E+00  0.000000000E+00  1.519939285E+03  1.519939285E+03  0.000000000E+00  0.00000E+00  9.000E+00
      21    -1     0     0   501   512  0.000000000E+00  0.000000000E+00 -6.150435431E+01  6.150435431E+01  0.000000000E+00  0.00000E+00  9.000E+00
      25     1     1     2     0     0  8.463239865E+01 -1.152640647E+02  5.312677110E+02  5.641975082E+02  1.250000000E+02  0.00000E+00  9.000E+00
      25     1     1     2     0     0 -5.611815915E+01  1.065443364E+02  9.584441178E+02  9.740334031E+02  1.250000000E+02  0.00000E+00  9.000E+00
      21     1     1     2   502   512 -2.851423950E+01  8.719728222E+00 -3.127689806E+01  4.321272807E+01  1.719260824E-06  0.00000E+00  9.000E+00
#rwgt            1           1   4.6786247332305506E-002           4      213188           0
</event>
<event>
      5   9999  3.79277E-02  1.77074E+01 -1.00000E+00  1.70853E-01
      21    -1     0     0   502   501  0.000000000E+00  0.000000000E+00  4.591513732E+02  4.591513732E+02  0.000000000E+00  0.00000E+00  9.000E+00
      21    -1     0     0   501   511  0.000000000E+00  0.000000000E+00 -1.070884623E+02  1.070884623E+02  0.000000000E+00  0.00000E+00  9.000E+00
      25     1     1     2     0     0  1.516786089E+02  5.998026808E+01  2.121309044E+02  2.953448045E+02  1.250000000E+02  0.00000E+00  9.000E+00
      25     1     1     2     0     0 -1.559391762E+02 -7.716743776E+01  1.299809373E+02  2.505830884E+02  1.250000000E+02  0.00000E+00  9.000E+00
      21     1     1     2   502   511  4.260567242E+00  1.718716969E+01  9.951069177E+00  2.031194262E+01  3.153981341E-07  0.00000E+00  9.000E+00
#rwgt            1           1   4.1045192435438624E-002           4      213355           0
</event>
<event>
      5   9999  3.79277E-02  5.12281E+01 -1.00000E+00  1.38477E-01
      21    -1     0     0   512   501  0.000000000E+00  0.000000000E+00  2.594778313E+02  2.594778313E+02  0.000000000E+00  0.00000E+00  9.000E+00
      21    -1     0     0   501   502  0.000000000E+00  0.000000000E+00 -2.525925893E+02  2.525925893E+02  0.000000000E+00  0.00000E+00  9.000E+00
      25     1     1     2     0     0  4.769400444E+01 -3.149619849E+01  1.176337082E+02  1.809127355E+02  1.250000000E+02  0.00000E+00  9.000E+00
      25     1     1     2     0     0 -5.113490898E+01 -1.961617202E+01 -1.917258664E+02  2.353367396E+02  1.250000000E+02  0.00000E+00  9.000E+00
      21     1     1     2   512   502  3.440904546E+00  5.111237051E+01  8.097740022E+01  9.582094547E+01  9.536743164E-07  0.00000E+00  9.000E+00
#rwgt            1           1   4.5321624809549647E-002           4      213587           0
</event>
<event>
      5   9999  3.79277E-02  1.34477E+01 -1.00000E+00  1.81973E-01
      21    -1     0     0   511   501  0.000000000E+00  0.000000000E+00  5.009518243E+02  5.009518243E+02  0.000000000E+00  0.00000E+00  9.000E+00
      21    -1     0     0   501   502  0.000000000E+00  0.000000000E+00 -1.164851374E+02  1.164851374E+02  0.000000000E+00  0.00000E+00  9.000E+00
      25     1     1     2     0     0  4.301313310E+01 -1.055984856E+02 -2.049004975E+01  1.704289058E+02  1.250000000E+02  0.00000E+00  9.000E+00
      25     1     1     2     0     0 -3.620150197E+01  1.171933754E+02  3.847953850E+02  4.227733723E+02  1.250000000E+02  0.00000E+00  9.000E+00
      21     1     1     2   511   502 -6.811631139E+00 -1.159488984E+01  2.016135168E+01  2.423468363E+01  4.129530925E-07  0.00000E+00  9.000E+00
#rwgt            1           1   4.4447294349500850E-002           4      213676           0
</event>
<event>
      5   9999  3.79277E-02  2.68279E+01 -1.00000E+00  1.56489E-01
      21    -1     0     0   502   501  0.000000000E+00  0.000000000E+00  1.053182180E+03  1.053182180E+03  0.000000000E+00  0.00000E+00  9.000E+00
      21    -1     0     0   501   512  0.000000000E+00  0.000000000E+00 -7.201675448E+01  7.201675448E+01  0.000000000E+00  0.00000E+00  9.000E+00
      25     1     1     2     0     0 -3.541030384E+01  1.962511669E+02  2.758265895E+02  3.625930468E+02  1.250000000E+02  0.00000E+00  9.000E+00
      25     1     1     2     0     0  6.194390568E+01 -2.002139717E+02  6.895991427E+02  7.315016470E+02  1.250000000E+02  0.00000E+00  9.000E+00
      21     1     1     2   502   512 -2.653360184E+01  3.962804851E+00  1.573969349E+01  3.110424087E+01  1.685873940E-07  0.00000E+00  9.000E+00
#rwgt            1           1   3.1760195798605034E-002           4      213980           0
</event>
<event>
      5   9999  3.79277E-02  8.58073E+01 -1.00000E+00  1.26894E-01
      21    -1     0     0   502   501  0.000000000E+00  0.000000000E+00  2.587074935E+02  2.587074935E+02  0.000000000E+00  0.00000E+00  9.000E+00
       2    -1     0     0   501     0  0.000000000E+00  0.000000000E+00 -1.439792965E+03  1.439792965E+03  0.000000000E+00  0.00000E+00  9.000E+00
      25     1     1     2     0     0  5.153066068E+01  1.650307763E+02  7.244518495E+01  2.253083907E+02  1.250000000E+02  0.00000E+00  9.000E+00
      25     1     1     2     0     0 -1.280938813E+02 -1.262884696E+02 -2.337486259E+00  2.190600005E+02  1.250000000E+02  0.00000E+00  9.000E+00
       2     1     1     2   502     0  7.656322060E+01 -3.874230669E+01 -1.251193171E+03  1.254132068E+03  1.525878906E-05  0.00000E+00  9.000E+00
#rwgt            1           1   4.2303334094144128E-002           4      214251           0
</event>
<event>
      5   9999  3.79277E-02  1.64181E+02 -1.00000E+00  1.14860E-01
      -5    -1     0     0     0   501  0.000000000E+00  0.000000000E+00  4.969125533E+02  4.969125533E+02  0.000000000E+00  0.00000E+00  9.000E+00
      21    -1     0     0   501   502  0.000000000E+00  0.000000000E+00 -5.461045162E+02  5.461045162E+02  0.000000000E+00  0.00000E+00  9.000E+00
      25     1     1     2     0     0 -2.068848620E+01  2.122881434E+02 -2.757597717E+02  3.703548582E+02  1.250000000E+02  0.00000E+00  9.000E+00
      25     1     1     2     0     0 -8.069742531E+01 -8.315117067E+01 -1.716673589E+02  2.419108797E+02  1.250000000E+02  0.00000E+00  9.000E+00
      -5     1     1     2     0   502  1.013859115E+02 -1.291369727E+02  3.982351677E+02  4.307513315E+02  5.394796609E-06  0.00000E+00  9.000E+00
#rwgt            1           1   4.6116099637886800E-002           4      214316           0
</event>
<event>
      5   9999  3.79277E-02  1.92013E+02 -1.00000E+00  1.12296E-01
      21    -1     0     0   502   501  0.000000000E+00  0.000000000E+00  3.662562408E+03  3.662562408E+03  0.000000000E+00  0.00000E+00  9.000E+00
      21    -1     0     0   501   511  0.000000000E+00  0.000000000E+00 -6.160090222E+01  6.160090222E+01  0.000000000E+00  0.00000E+00  9.000E+00
      25     1     1     2     0     0  6.766496158E+01  9.508093362E+01  1.019706883E+03  1.033946835E+03  1.250000000E+02  0.00000E+00  9.000E+00
      25     1     1     2     0     0 -2.534969111E+02 -1.434064838E+02  2.416537771E+03  2.437233247E+03  1.250000000E+02  0.00000E+00  9.000E+00
      21     1     1     2   502   511  1.858319495E+02  4.832555020E+01  1.647168524E+02  2.529832281E+02  7.629394531E-06  0.00000E+00  9.000E+00
#rwgt            2          11   1.0569738584697123E-003           4      214391           0
</event>
<event>
      5   9999  3.79277E-02  5.36890E+01 -1.00000E+00  1.37334E-01
      21    -1     0     0   502   512  0.000000000E+00  0.000000000E+00  2.795422028E+02  2.795422028E+02  0.000000000E+00  0.00000E+00  9.000E+00
      21    -1     0     0   501   502  0.000000000E+00  0.000000000E+00 -4.525802045E+02  4.525802045E+02  0.000000000E+00  0.00000E+00  9.000E+00
      25     1     1     2     0     0  6.537349260E+01  1.863247711E+02  1.289119664E+02  2.668968133E+02  1.250000000E+02  0.00000E+00  9.000E+00
      25     1     1     2     0     0 -7.970761237E+01 -1.345846487E+02 -3.433233085E+02  3.974446191E+02  1.250000000E+02  0.00000E+00  9.000E+00
      21     1     1     2   501   512  1.433411976E+01 -5.174012242E+01  4.137334038E+01  6.778097485E+01  4.768371582E-07  0.00000E+00  9.000E+00
#rwgt            1           1   4.5416697480777257E-002           4      214441           0
</event>
<event>
      5   9999  3.79277E-02  2.04495E+01 -1.00000E+00  1.65577E-01
      21    -1     0     0   502   501  0.000000000E+00  0.000000000E+00  1.658895549E+02  1.658895549E+02  0.000000000E+00  0.00000E+00  9.000E+00
      21    -1     0     0   511   502  0.000000000E+00  0.000000000E+00 -3.056928022E+02  3.056928022E+02  0.000000000E+00  0.00000E+00  9.000E+00
      25     1     1     2     0     0  6.270771966E+01 -3.041503350E+01 -1.856545753E+02  2.344140646E+02  1.250000000E+02  0.00000E+00  9.000E+00
      25     1     1     2     0     0 -4.255542968E+01  3.388870071E+01  1.066097551E+02  1.730608232E+02  1.250000000E+02  0.00000E+00  9.000E+00
      21     1     1     2   511   501 -2.015228998E+01 -3.473667211E+00 -6.075842712E+01  6.410746931E+01  1.168007728E-06  0.00000E+00  9.000E+00
#rwgt            1           1   2.8798005968648618E-002           4      214538           0
</event>
<event>
      5   9999  3.79277E-02  1.30026E+02 -1.00000E+00  1.18907E-01
      21    -1     0     0   502   501  0.000000000E+00  0.000000000E+00  7.287993487E+02  7.287993487E+02  0.000000000E+00  0.00000E+00  9.000E+00
      21    -1     0     0   501   512  0.000000000E+00  0.000000000E+00 -2.503045806E+02  2.503045806E+02  0.000000000E+00  0.00000E+00  9.000E+00
      25     1     1     2     0     0 -1.902912194E+02 -3.126816897E+01  3.423725876E+02  4.123498943E+02  1.250000000E+02  0.00000E+00  9.000E+00
      25     1     1     2     0     0  1.611379507E+02 -9.544780477E+01  2.888040449E+02  3.662082726E+02  1.250000000E+02  0.00000E+00  9.000E+00
      21     1     1     2   502   512  2.915326868E+01  1.267159737E+02 -1.526818644E+02  2.005457624E+02  5.394796609E-06  0.00000E+00  9.000E+00
#rwgt            1           1   3.6817755653424752E-002           4      214727           0
</event>
<event>
      5   9999  3.79277E-02  1.35079E+01 -1.00000E+00  1.81780E-01
      21    -1     0     0   502   501  0.000000000E+00  0.000000000E+00  2.631618630E+02  2.631618630E+02  0.000000000E+00  0.00000E+00  9.000E+00
      21    -1     0     0   501   511  0.000000000E+00  0.000000000E+00 -2.283196809E+02  2.283196809E+02  0.000000000E+00  0.00000E+00  9.000E+00
      25     1     1     2     0     0 -1.069413613E+02  2.926132836E+01  1.735407830E+02  2.409026431E+02  1.250000000E+02  0.00000E+00  9.000E+00
      25     1     1     2     0     0  1.166385549E+02 -1.985770764E+01 -7.901628154E+01  1.893870476E+02  1.250000000E+02  0.00000E+00  9.000E+00
      21     1     1     2   502   511 -9.697193580E+00 -9.403620725E+00 -5.968231935E+01  6.119185313E+01  6.743495762E-07  0.00000E+00  9.000E+00
#rwgt            1           1   3.7403171385034739E-002           4      214785           0
</event>
<event>
      5   9999  3.79277E-02  1.12875E+02 -1.00000E+00  1.21508E-01
      21    -1     0     0   502   501  0.000000000E+00  0.000000000E+00  4.301440764E+02  4.301440764E+02  0.000000000E+00  0.00000E+00  9.000E+00
      -3    -1     0     0     0   502  0.000000000E+00  0.000000000E+00 -2.073452832E+02  2.073452832E+02  0.000000000E+00  0.00000E+00  9.000E+00
      25     1     1     2     0     0 -7.100267866E+01  1.729385364E+01 -7.133855557E+01  1.614145200E+02  1.250000000E+02  0.00000E+00  9.000E+00
      25     1     1     2     0     0 -3.385377765E+01  2.448907650E+01  3.318515992E+02  3.570662081E+02  1.250000000E+02  0.00000E+00  9.000E+00
      -3     1     1     2     0   501  1.048564563E+02 -4.178293014E+01 -3.771425039E+01  1.190086315E+02  1.348699152E-06  0.00000E+00  9.000E+00
#rwgt            1           1   3.0373317792943281E-002           4      215007           0
</event>
<event>
      5   9999  3.79277E-02  3.30227E+01 -1.00000E+00  1.50199E-01
      21    -1     0     0   502   501  0.000000000E+00  0.000000000E+00  2.040892964E+03  2.040892964E+03  0.000000000E+00  0.00000E+00  9.000E+00
      21    -1     0     0   511   502  0.000000000E+00  0.000000000E+00 -4.674649430E+01  4.674649430E+01  0.000000000E+00  0.00000E+00  9.000E+00
      25     1     1     2     0     0  1.101195920E+02 -2.253506953E+01  1.774204713E+03  1.782150812E+03  1.250000000E+02  0.00000E+00  9.000E+00
      25     1     1     2     0     0 -7.711664622E+01  2.139297010E+01  2.274777823E+02  2.716169688E+02  1.250000000E+02  0.00000E+00  9.000E+00
      21     1     1     2   511   501 -3.300294575E+01  1.142099430E+00 -7.536025853E+00  3.387167703E+01  1.708897494E-06  0.00000E+00  9.000E+00
#rwgt            1           1  0.13930471272378014                4      215174           0
</event>
<event>
      5   9999  3.79277E-02  8.48909E+00 -1.00000E+00  2.04357E-01
      21    -1     0     0   502   501  0.000000000E+00  0.000000000E+00  7.331200722E+02  7.331200722E+02  0.000000000E+00  0.00000E+00  9.000E+00
       3    -1     0     0   501     0  0.000000000E+00  0.000000000E+00 -1.485522110E+02  1.485522110E+02  0.000000000E+00  0.00000E+00  9.000E+00
      25     1     1     2     0     0  2.451471854E+00 -1.394673274E+02  4.225982859E+02  4.622460993E+02  1.250000000E+02  0.00000E+00  9.000E+00
      25     1     1     2     0     0  5.192416123E-01  1.474196592E+02  2.583630011E+02  3.226596750E+02  1.250000000E+02  0.00000E+00  9.000E+00
       3     1     1     2   502     0 -2.970713466E+00 -7.952331768E+00 -9.639342570E+01  9.676650886E+01  2.336015456E-06  0.00000E+00  9.000E+00
#rwgt            1           1   3.5934715122269624E-002           4      215255           0
</event>
<event>
      5   9999  3.79277E-02  1.64533E+02 -1.00000E+00  1.14824E-01
      21    -1     0     0   502   501  0.000000000E+00  0.000000000E+00  4.882291848E+02  4.882291848E+02  0.000000000E+00  0.00000E+00  9.000E+00
      21    -1     0     0   511   502  0.000000000E+00  0.000000000E+00 -3.547947675E+02  3.547947675E+02  0.000000000E+00  0.00000E+00  9.000E+00
      25     1     1     2     0     0 -4.015398083E+01 -1.228505662E+02 -4.887665781E+01  1.863290945E+02  1.250000000E+02  0.00000E+00  9.000E+00
      25     1     1     2     0     0  1.959809609E+02  1.756623236E+02  3.267296483E+02  4.377705473E+02  1.250000000E+02  0.00000E+00  9.000E+00
      21     1     1     2   511   501 -1.558269801E+02 -5.281175744E+01 -1.444185732E+02  2.189243105E+02  3.814697266E-06  0.00000E+00  9.000E+00
#rwgt            1           1   3.0206029802422821E-002           4      215536           0
</event>
<event>
      5   9999 -3.79277E-02  2.65771E+01 -1.00000E+00  1.56786E-01
       2    -1     0     0   502     0  0.000000000E+00  0.000000000E+00  3.978066872E+03  3.978066872E+03  0.000000000E+00  0.00000E+00  9.000E+00
      21    -1     0     0   501   502  0.000000000E+00  0.000000000E+00 -5.100661296E+01  5.100661296E+01  0.000000000E+00  0.00000E+00  9.000E+00
      25     1     1     2     0     0  2.206167775E+01 -1.791056030E+02  1.590395890E+03  1.605474890E+03  1.250000000E+02  0.00000E+00  9.000E+00
      25     1     1     2     0     0 -3.322297335E+01  2.032254608E+02  2.910376754E+02  3.777992620E+02  1.250000000E+02  0.00000E+00  9.000E+00
       2     1     1     2   501     0  1.116129560E+01 -2.411985783E+01  2.045626693E+03  2.045799333E+03  2.157918644E-05  0.00000E+00  9.000E+00
#rwgt            1           1 -0.15675101885192172                4      215594           0
</event>
<event>
      5   9999  3.79277E-02  2.20567E+01 -1.00000E+00  1.62936E-01
      21    -1     0     0   511   501  0.000000000E+00  0.000000000E+00  4.699786272E+02  4.699786272E+02  0.000000000E+00  0.00000E+00  9.000E+00
      21    -1     0     0   501   502  0.000000000E+00  0.000000000E+00 -9.466188678E+02  9.466188678E+02  0.000000000E+00  0.00000E+00  9.000E+00
      25     1     1     2     0     0  1.096529577E+02  1.256853759E+02 -5.900346900E+02  6.257687434E+02  1.250000000E+02  0.00000E+00  9.000E+00
      25     1     1     2     0     0 -1.088914617E+02 -1.036418440E+02 -3.101939808E+02  3.666664533E+02  1.250000000E+02  0.00000E+00  9.000E+00
      21     1     1     2   511   502 -7.614959455E-01 -2.204353197E+01  4.235884301E+02  4.241622983E+02  7.629394531E-06  0.00000E+00  9.000E+00
#rwgt            1           1   4.0106913080156285E-002           4      215743           0
</event>
<event>
      5   9999  3.79277E-02  9.02897E+01 -1.00000E+00  1.25857E-01
      21    -1     0     0   502   501  0.000000000E+00  0.000000000E+00  8.901952402E+01  8.901952402E+01  0.000000000E+00  0.00000E+00  9.000E+00
      21    -1     0     0   501   512  0.000000000E+00  0.000000000E+00 -8.051053409E+02  8.051053409E+02  0.000000000E+00  0.00000E+00  9.000E+00
      25     1     1     2     0     0  1.271251530E+02  6.083565372E+01 -2.741990711E+02  3.326738821E+02  1.250000000E+02  0.00000E+00  9.000E+00
      25     1     1     2     0     0 -1.858534948E+02  7.744294878E+00 -1.898064536E+02  2.936885859E+02  1.250000000E+02  0.00000E+00  9.000E+00
      21     1     1     2   502   512  5.872834183E+01 -6.857994860E+01 -2.520802922E+02  2.677623969E+02  4.672030912E-06  0.00000E+00  9.000E+00
#rwgt            2          11   1.7924604922037073E-003           4      216051           0
</event>
<event>
      5   9999  3.79277E-02  3.63214E+01 -1.00000E+00  1.47487E-01
      21    -1     0     0   511   501  0.000000000E+00  0.000000000E+00  1.591574791E+03  1.591574791E+03  0.000000000E+00  0.00000E+00  9.000E+00
      21    -1     0     0   501   502  0.000000000E+00  0.000000000E+00 -1.873899342E+02  1.873899342E+02  0.000000000E+00  0.00000E+00  9.000E+00
      25     1     1     2     0     0  1.980498984E+02 -3.478691822E+02  1.597780213E+02  4.487658034E+02  1.250000000E+02  0.00000E+00  9.000E+00
      25     1     1     2     0     0 -1.750893839E+02  3.760127455E+02  1.131496242E+03  1.211590122E+03  1.250000000E+02  0.00000E+00  9.000E+00
      21     1     1     2   511   502 -2.296051457E+01 -2.814356336E+01  1.129105936E+02  1.186088004E+02  2.336015456E-06  0.00000E+00  9.000E+00
#rwgt            1           1   8.4692692632127767E-002           4      216161           0
</event>
<event>
      5   9999  3.79277E-02  2.16931E+01 -1.00000E+00  1.63509E-01
      -1    -1     0     0     0   501  0.000000000E+00  0.000000000E+00  5.500083337E+02  5.500083337E+02  0.000000000E+00  0.00000E+00  9.000E+00
      21    -1     0     0   501   502  0.000000000E+00  0.000000000E+00 -1.456893275E+02  1.456893275E+02  0.000000000E+00  0.00000E+00  9.000E+00
      25     1     1     2     0     0  1.195613869E+02  1.103670552E+02  1.569503059E+02  2.583296550E+02  1.250000000E+02  0.00000E+00  9.000E+00
      25     1     1     2     0     0 -1.345621690E+02 -1.260375769E+02  3.690134708E+01  2.257856451E+02  1.250000000E+02  0.00000E+00  9.000E+00
      -1     1     1     2     0   502  1.500078212E+01  1.567052169E+01  2.104673533E+02  2.115823610E+02  2.697398305E-06  0.00000E+00  9.000E+00
#rwgt            1           1   3.6457050766894691E-002           4      216428           0
</event>
<event>
      5   9999  3.79277E-02  2.13331E+01 -1.00000E+00  1.64090E-01
      21    -1     0     0   502   501  0.000000000E+00  0.000000000E+00  8.981939463E+02  8.981939463E+02  0.000000000E+00  0.00000E+00  9.000E+00
      21    -1     0     0   501   511  0.000000000E+00  0.000000000E+00 -6.721432277E+01  6.721432277E+01  0.000000000E+00  0.00000E+00  9.000E+00
      25     1     1     2     0     0  9.608088691E+01 -3.725776921E+01  8.073560030E+01  1.810052910E+02  1.250000000E+02  0.00000E+00  9.000E+00
      25     1     1     2     0     0 -1.164332555E+02  3.086373847E+01  7.411575586E+02  7.612153440E+02  1.250000000E+02  0.00000E+00  9.000E+00
      21     1     1     2   502   511  2.035236861E+01  6.394030732E+00  9.086464709E+00  2.318763416E+01  2.665600750E-07  0.00000E+00  9.000E+00
#rwgt            1           1   3.7787769108456895E-002           4      216641           0
</event>
<event>
      5   9999  3.79277E-02  7.10261E+01 -1.00000E+00  1.30901E-01
      21    -1     0     0   512   501  0.000000000E+00  0.000000000E+00  1.360842943E+02  1.360842943E+02  0.000000000E+00  0.00000E+00  9.000E+00
      21    -1     0     0   501   502  0.000000000E+00  0.000000000E+00 -7.624205845E+02  7.624205845E+02  0.000000000E+00  0.00000E+00  9.000E+00
      25     1     1     2     0     0 -7.053387903E+01  5.757268582E+01 -1.686041881E+02  2.287837724E+02  1.250000000E+02  0.00000E+00  9.000E+00
      25     1     1     2     0     0  1.056375854E+02  4.172249393E+00 -5.381075191E+02  5.624601401E+02  1.250000000E+02  0.00000E+00  9.000E+00
      21     1     1     2   512   502 -3.510370637E+01 -6.174493522E+01  8.037541700E+01  1.072609663E+02  2.132480600E-06  0.00000E+00  9.000E+00
#rwgt            1           1   2.7482051104109801E-002           4      216859           0
</event>
<event>
      5   9999  3.79277E-02  3.65706E+01 -1.00000E+00  1.47296E-01
      21    -1     0     0   502   501  0.000000000E+00  0.000000000E+00  2.500159647E+02  2.500159647E+02  0.000000000E+00  0.00000E+00  9.000E+00
      21    -1     0     0   501   511  0.000000000E+00  0.000000000E+00 -3.967817927E+02  3.967817927E+02  0.000000000E+00  0.00000E+00  9.000E+00
      25     1     1     2     0     0 -2.533313434E+02  3.671520188E+01  4.903980311E+01  2.890582604E+02  1.250000000E+02  0.00000E+00  9.000E+00
      25     1     1     2     0     0  2.301248524E+02 -8.450912426E+00 -1.627952084E+02  3.084738976E+02  1.250000000E+02  0.00000E+00  9.000E+00
      21     1     1     2   502   511  2.320649100E+01 -2.826428945E+01 -3.301042261E+01  4.926559939E+01  4.768371582E-07  0.00000E+00  9.000E+00
#rwgt            1           1  0.14805009861367213                4      216938           0
</event>
<event>
      5   9999  3.79277E-02  6.54570E+01 -1.00000E+00  1.32714E-01
      21    -1     0     0   502   501  0.000000000E+00  0.000000000E+00  1.194265281E+03  1.194265281E+03  0.000000000E+00  0.00000E+00  9.000E+00
      21    -1     0     0   512   502  0.000000000E+00  0.000000000E+00 -1.662914158E+02  1.662914158E+02  0.000000000E+00  0.00000E+00  9.000E+00
      25     1     1     2     0     0  5.831864907E+01  1.748156959E+02  4.344763356E+02  4.882174500E+02  1.250000000E+02  0.00000E+00  9.000E+00
      25     1     1     2     0     0 -3.192993150E+01 -2.347177478E+02  6.987887443E+02  7.483599741E+02  1.250000000E+02  0.00000E+00  9.000E+00
      21     1     1     2   512   501 -2.638871757E+01  5.990205198E+01 -1.052912145E+02  1.239792728E+02  3.303624740E-06  0.00000E+00  9.000E+00
#rwgt            1           1   3.5342129885091063E-002           4      217077           0
</event>
<event>
      5   9999  3.79277E-02  4.18372E+01 -1.00000E+00  1.43641E-01
      21    -1     0     0   502   511  0.000000000E+00  0.000000000E+00  1.506530786E+03  1.506530786E+03  0.000000000E+00  0.00000E+00  9.000E+00
      21    -1     0     0   501   502  0.000000000E+00  0.000000000E+00 -4.874071266E+02  4.874071266E+02  0.000000000E+00  0.00000E+00  9.000E+00
      25     1     1     2     0     0 -5.009213374E+01 -4.981850371E+00  4.993756247E+01  1.437108237E+02  1.250000000E+02  0.00000E+00  9.000E+00
      25     1     1     2     0     0  1.135275589E+01 -1.081738820E+01 -4.311947925E+02  4.492213820E+02  1.250000000E+02  0.00000E+00  9.000E+00
      21     1     1     2   501   511  3.873937785E+01  1.579923857E+01  1.400380890E+03  1.401005707E+03  3.051757812E-05  0.00000E+00  9.000E+00
#rwgt            1           1   2.7065877508153129E-002           4      217197           0
</event>
<event>
      5   9999  3.79277E-02  2.12272E+02 -1.00000E+00  1.10715E-01
      21    -1     0     0   502   501  0.000000000E+00  0.000000000E+00  1.175840628E+03  1.175840628E+03  0.000000000E+00  0.00000E+00  9.000E+00
      21    -1     0     0   501   512  0.000000000E+00  0.000000000E+00 -2.165932965E+02  2.165932965E+02  0.000000000E+00  0.00000E+00  9.000E+00
      25     1     1     2     0     0  2.339707686E+01  2.078218406E+02  3.635907566E+02  4.376763404E+02  1.250000000E+02  0.00000E+00  9.000E+00
      25     1     1     2     0     0 -1.230243743E+02 -2.038205024E+01  6.973701253E+02  7.193750873E+02  1.250000000E+02  0.00000E+00  9.000E+00
      21     1     1     2   502   512  9.962729749E+01 -1.874397904E+02 -1.017135504E+02  2.353824967E+02  2.697398305E-06  0.00000E+00  9.000E+00
#rwgt            1           1   3.1530996074940427E-002           4      217284           0
</event>
<event>
      5   9999  3.79277E-02  6.56520E+01 -1.00000E+00  1.32647E-01
      21    -1     0     0   502   501  0.000000000E+00  0.000000000E+00  2.815757821E+02  2.815757821E+02  0.000000000E+00  0.00000E+00  9.000E+00
      21    -1     0     0   501   511  0.000000000E+00  0.000000000E+00 -2.945808955E+02  2.945808955E+02  0.000000000E+00  0.00000E+00  9.000E+00
      25     1     1     2     0     0  6.752138780E+01  2.388273162E+02 -2.197037791E+01  2.787567439E+02  1.250000000E+02  0.00000E+00  9.000E+00
      25     1     1     2     0     0 -2.026363092E+01 -1.932543918E+02  1.458909863E+01  2.315074869E+02  1.250000000E+02  0.00000E+00  9.000E+00
      21     1     1     2   502   511 -4.725775689E+01 -4.557292444E+01 -5.623834163E+00  6.589244675E+01  1.278377210E-06  0.00000E+00  9.000E+00
#rwgt            1           1  0.11293741509027702                4      217567           0
</event>
<event>
      5   9999  3.79277E-02  9.08519E+01 -1.00000E+00  1.25731E-01
      21    -1     0     0   502   512  0.000000000E+00  0.000000000E+00  8.070889705E+01  8.070889705E+01  0.000000000E+00  0.00000E+00  9.000E+00
      21    -1     0     0   501   502  0.000000000E+00  0.000000000E+00 -6.522713525E+02  6.522713525E+02  0.000000000E+00  0.00000E+00  9.000E+00
      25     1     1     2     0     0 -4.725478750E+00  1.336459926E+02 -3.617515136E+02  4.054290802E+02  1.250000000E+02  0.00000E+00  9.000E+00
      25     1     1     2     0     0 -5.477773105E+01 -6.499147658E+01 -1.724375594E+02  2.293124588E+02  1.250000000E+02  0.00000E+00  9.000E+00
      21     1     1     2   501   512  5.950320980E+01 -6.865451601E+01 -3.737338247E+01  9.823871061E+01  1.507891493E-06  0.00000E+00  9.000E+00
#rwgt            1           1   4.0815523213284854E-002           4      217601           0
</event>
<event>
      5   9999  3.79277E-02  2.05395E+01 -1.00000E+00  1.65421E-01
      21    -1     0     0   502   501  0.000000000E+00  0.000000000E+00  9.932473806E+01  9.932473806E+01  0.000000000E+00  0.00000E+00  9.000E+00
      21    -1     0     0   511   502  0.000000000E+00  0.000000000E+00 -2.681840706E+02  2.681840706E+02  0.000000000E+00  0.00000E+00  9.000E+00
      25     1     1     2     0     0 -2.114647722E+01  7.432267280E+01 -8.774953624E+01  1.711607849E+02  1.250000000E+02  0.00000E+00  9.000E+00
      25     1     1     2     0     0  1.614927292E+01 -9.424500217E+01 -6.512252642E+01  1.703198840E+02  1.250000000E+02  0.00000E+00  9.000E+00
      21     1     1     2   511   501  4.997204301E+00  1.992232937E+01 -1.598726993E+01  2.602813974E+01  0.000000000E+00  0.00000E+00  9.000E+00
#rwgt            1           1   2.9899268312441492E-002           4      217659           0
</event>
<event>
      5   9999  3.79277E-02  3.52245E+02 -1.00000E+00  1.03375E-01
      21    -1     0     0   512   501  0.000000000E+00  0.000000000E+00  1.353260530E+03  1.353260530E+03  0.000000000E+00  0.00000E+00  9.000E+00
      21    -1     0     0   501   502  0.000000000E+00  0.000000000E+00 -2.534916132E+02  2.534916132E+02  0.000000000E+00  0.00000E+00  9.000E+00
      25     1     1     2     0     0  8.667207154E+01 -2.021964268E+02 -1.023541137E+02  2.729410332E+02  1.250000000E+02  0.00000E+00  9.000E+00
      25     1     1     2     0     0  1.798666913E+02 -2.809455516E+01  3.819006531E+02  4.411512660E+02  1.250000000E+02  0.00000E+00  9.000E+00
      21     1     1     2   512   502 -2.665387629E+02  2.302909820E+02  8.202223772E+02  8.926598437E+02  0.000000000E+00  0.00000E+00  9.000E+00
#rwgt            2          11   7.5238703781269479E-004           4      217767           0
</event>
<event>
      5   9999  3.79277E-02  1.70604E+01 -1.00000E+00  1.72275E-01
      21    -1     0     0   511   501  0.000000000E+00  0.000000000E+00  8.739988062E+02  8.739988062E+02  0.000000000E+00  0.00000E+00  9.000E+00
      21    -1     0     0   501   502  0.000000000E+00  0.000000000E+00 -4.185757236E+01  4.185757236E+01  0.000000000E+00  0.00000E+00  9.000E+00
      25     1     1     2     0     0 -7.597554758E+00 -1.241250808E+02  2.547994110E+02  3.098588362E+02  1.250000000E+02  0.00000E+00  9.000E+00
      25     1     1     2     0     0  1.474408862E+01  1.086336776E+02  5.047737418E+02  5.314510274E+02  1.250000000E+02  0.00000E+00  9.000E+00
      21     1     1     2   511   502 -7.146533857E+00  1.549140317E+01  7.256808099E+01  7.454651499E+01  1.348699152E-06  0.00000E+00  9.000E+00
#rwgt            1           1   4.6914921744551266E-002           4      217832           0
</event>
<event>
      5   9999  3.79277E-02  2.53406E+01 -1.00000E+00  1.58312E-01
      21    -1     0     0   502   501  0.000000000E+00  0.000000000E+00  4.467215769E+02  4.467215769E+02  0.000000000E+00  0.00000E+00  9.000E+00
      -1    -1     0     0     0   502  0.000000000E+00  0.000000000E+00 -7.289652226E+02  7.289652226E+02  0.000000000E+00  0.00000E+00  9.000E+00
      25     1     1     2     0     0  4.021366344E+01 -3.692284708E+02  1.124047064E+02  4.076844618E+02  1.250000000E+02  0.00000E+00  9.000E+00
      25     1     1     2     0     0 -1.599233930E+01  3.617803158E+02 -1.073189021E+01  3.832504733E+02  1.250000000E+02  0.00000E+00  9.000E+00
      -1     1     1     2     0   501 -2.422132414E+01  7.448155001E+00 -3.839164618E+02  3.847518645E+02  7.629394531E-06  0.00000E+00  9.000E+00
#rwgt            1           1   6.6024802058504833E-002           4      217969           0
</event>
<event>
      5   9999  3.79277E-02  3.43967E+01 -1.00000E+00  1.49026E-01
      21    -1     0     0   502   501  0.000000000E+00  0.000000000E+00  9.427169882E+01  9.427169882E+01  0.000000000E+00  0.00000E+00  9.000E+00
      21    -1     0     0   511   502  0.000000000E+00  0.000000000E+00 -7.911272047E+02  7.911272047E+02  0.000000000E+00  0.00000E+00  9.000E+00
      25     1     1     2     0     0 -1.836949277E+02  6.247296682E+01 -4.043023321E+02  4.655449214E+02  1.250000000E+02  0.00000E+00  9.000E+00
      25     1     1     2     0     0  2.134206391E+02 -7.977951346E+01 -2.237496044E+02  3.429315171E+02  1.250000000E+02  0.00000E+00  9.000E+00
      21     1     1     2   511   501 -2.972571135E+01  1.730654664E+01 -6.880356935E+01  7.692246504E+01  1.651812370E-06  0.00000E+00  9.000E+00
#rwgt            1           1  0.12074606150333499                4      218158           0
</event>
<event>
      5   9999  3.79277E-02  9.09785E+01 -1.00000E+00  1.25703E-01
      21    -1     0     0   512   501  0.000000000E+00  0.000000000E+00  2.713938171E+02  2.713938171E+02  0.000000000E+00  0.00000E+00  9.000E+00
      21    -1     0     0   501   502  0.000000000E+00  0.000000000E+00 -7.801334773E+02  7.801334773E+02  0.000000000E+00  0.00000E+00  9.000E+00
      25     1     1     2     0     0  5.156035293E+01 -7.728491812E+00 -6.914790751E+02  7.046179893E+02  1.250000000E+02  0.00000E+00  9.000E+00
      25     1     1     2     0     0 -1.485350722E+01 -7.551631140E+01  4.580368527E+00  1.468649711E+02  1.250000000E+02  0.00000E+00  9.000E+00
      21     1     1     2   512   502 -3.670684571E+01  8.324480321E+01  1.781590464E+02  2.000443340E+02  3.814697266E-06  0.00000E+00  9.000E+00
#rwgt            1           1   4.3893476130106170E-002           4      218309           0
</event>
<event>
      5   9999  3.79277E-02  5.27699E+01 -1.00000E+00  1.37753E-01
      21    -1     0     0   511   501  0.000000000E+00  0.000000000E+00  7.299109617E+02  7.299109617E+02  0.000000000E+00  0.00000E+00  9.000E+00
      21    -1     0     0   501   502  0.000000000E+00  0.000000000E+00 -1.097591092E+02  1.097591092E+02  0.000000000E+00  0.00000E+00  9.000E+00
      25     1     1     2     0     0 -9.535815841E+01 -1.815953248E+02  2.886290348E+02  3.755020108E+02  1.250000000E+02  0.00000E+00  9.000E+00
      25     1     1     2     0     0  7.106656659E+01  1.347490206E+02  8.945261944E+01  2.164128614E+02  1.250000000E+02  0.00000E+00  9.000E+00
      21     1     1     2   511   502  2.429159182E+01  4.684630417E+01  2.420701982E+02  2.477551987E+02  2.697398305E-06  0.00000E+00  9.000E+00
#rwgt            1           1   2.7388650415923217E-002           4      218410           0
</event>
<event>
      5   9999  3.79277E-02  1.89970E+01 -1.00000E+00  1.68234E-01
      21    -1     0     0   502   512  0.000000000E+00  0.000000000E+00  4.404175503E+02  4.404175503E+02  0.000000000E+00  0.00000E+00  9.000E+00
      21    -1     0     0   501   502  0.000000000E+00  0.000000000E+00 -3.115706567E+02  3.115706567E+02  0.000000000E+00  0.00000E+00  9.000E+00
      25     1     1     2     0     0  3.155438586E+02  5.585748553E+01  8.152949667E+00  3.440631570E+02  1.250000000E+02  0.00000E+00  9.000E+00
      25     1     1     2     0     0 -3.321782165E+02 -4.668225580E+01  8.567518270E+01  3.680853671E+02  1.250000000E+02  0.00000E+00  9.000E+00
      21     1     1     2   501   512  1.663435784E+01 -9.175229728E+00  3.501876124E+01  3.983968298E+01  4.768371582E-07  0.00000E+00  9.000E+00
#rwgt            1           1   2.7573104123387090E-002           4      218605           0
</event>
<event>
      5   9999  3.79277E-02  1.36687E+02 -1.00000E+00  1.18016E-01
      21    -1     0     0   511   501  0.000000000E+00  0.000000000E+00  9.252243669E+02  9.252243669E+02  0.000000000E+00  0.00000E+00  9.000E+00
      21    -1     0     0   501   502  0.000000000E+00  0.000000000E+00 -2.479183518E+02  2.479183518E+02  0.000000000E+00  0.00000E+00  9.000E+00
      25     1     1     2     0     0  2.012392971E+01 -8.166574464E+01 -8.613944979E+00  1.509088017E+02  1.250000000E+02  0.00000E+00  9.000E+00
      25     1     1     2     0     0 -1.565369321E+02  7.301629447E+01 -9.213096111E+01  2.322677428E+02  1.250000000E+02  0.00000E+00  9.000E+00
      21     1     1     2   511   502  1.364130024E+02  8.649450166E+00  7.780509213E+02  7.899661741E+02  0.000000000E+00  0.00000E+00  9.000E+00
#rwgt            2          11   2.9195532755326085E-003           4      218873           0
</event>
<event>
      5   9999  3.79277E-02  1.68278E+02 -1.00000E+00  1.14448E-01
      21    -1     0     0   512   501  0.000000000E+00  0.000000000E+00  1.131668742E+03  1.131668742E+03  0.000000000E+00  0.00000E+00  9.000E+00
      21    -1     0     0   501   502  0.000000000E+00  0.000000000E+00 -7.897824798E+01  7.897824798E+01  0.000000000E+00  0.00000E+00  9.000E+00
      25     1     1     2     0     0 -1.435948919E+02 -3.700223552E+01  5.755698037E+02  6.073666581E+02  1.250000000E+02  0.00000E+00  9.000E+00
      25     1     1     2     0     0 -2.084513012E+01  1.268110331E+00  3.690331655E+01  1.319961451E+02  1.250000000E+02  0.00000E+00  9.000E+00
      21     1     1     2   512   502  1.644400220E+02  3.573412519E+01  4.402173736E+02  4.712841866E+02  5.394796609E-06  0.00000E+00  9.000E+00
#rwgt            1           1   4.7147548547082883E-002           4      218923           0
</event>
<event>
      5   9999  3.79277E-02  3.37540E+01 -1.00000E+00  1.49566E-01
      21    -1     0     0   502   501  0.000000000E+00  0.000000000E+00  7.396563616E+02  7.396563616E+02  0.000000000E+00  0.00000E+00  9.000E+00
       2    -1     0     0   501     0  0.000000000E+00  0.000000000E+00 -1.490803426E+02  1.490803426E+02  0.000000000E+00  0.00000E+00  9.000E+00
      25     1     1     2     0     0 -2.301090218E+01  7.166176111E+01  1.569957275E+02  2.143305113E+02  1.250000000E+02  0.00000E+00  9.000E+00
      25     1     1     2     0     0  3.518545102E+01 -4.017979379E+01  5.430741735E+02  5.598276429E+02  1.250000000E+02  0.00000E+00  9.000E+00
       2     1     1     2   502     0 -1.217454884E+01 -3.148196732E+01 -1.094938821E+02  1.145785500E+02  1.348699152E-06  0.00000E+00  9.000E+00
#rwgt            1           1   4.0048489127658286E-002           4      219092           0
</event>
<event>
      5   9999  3.79277E-02  3.32890E+01 -1.00000E+00  1.49967E-01
      21    -1     0     0   511   501  0.000000000E+00  0.000000000E+00  2.216215539E+02  2.216215539E+02  0.000000000E+00  0.00000E+00  9.000E+00
      21    -1     0     0   501   502  0.000000000E+00  0.000000000E+00 -7.180469646E+02  7.180469646E+02  0.000000000E+00  0.00000E+00  9.000E+00
      25     1     1     2     0     0  3.952115361E+01  2.155086064E+02 -4.047438622E+02  4.769155848E+02  1.250000000E+02  0.00000E+00  9.000E+00
      25     1     1     2     0     0 -3.085464815E+01 -1.833675104E+02 -2.296399361E+02  3.208350876E+02  1.250000000E+02  0.00000E+00  9.000E+00
      21     1     1     2   511   502 -8.666505465E+00 -3.214109602E+01  1.379583876E+02  1.419178462E+02  2.697398305E-06  0.00000E+00  9.000E+00
#rwgt            1           1   3.8145259635050027E-002           4      219217           0
</event>
<event>
      5   9999  3.79277E-02  3.84519E+02 -1.00000E+00  1.02204E-01
       2    -1     0     0   502     0  0.000000000E+00  0.000000000E+00  8.605644615E+02  8.605644615E+02  0.000000000E+00  0.00000E+00  9.000E+00
      21    -1     0     0   501   502  0.000000000E+00  0.000000000E+00 -3.101169307E+02  3.101169307E+02  0.000000000E+00  0.00000E+00  9.000E+00
      25     1     1     2     0     0  5.012150767E+01 -2.739919915E+02  1.387615744E+02  3.353558580E+02  1.250000000E+02  0.00000E+00  9.000E+00
      25     1     1     2     0     0  2.759900184E+02  7.026096014E+01  6.530946229E+01  3.178009104E+02  1.250000000E+02  0.00000E+00  9.000E+00
       2     1     1     2   501     0 -3.261115261E+02  2.037310313E+02  3.463764941E+02  5.175246238E+02  1.144409180E-05  0.00000E+00  9.000E+00
#rwgt            1           1   2.9996367373814593E-002           4      219383           0
</event>
<event>
      5   9999  3.79277E-02  4.51526E+01 -1.00000E+00  1.41650E-01
      21    -1     0     0   502   501  0.000000000E+00  0.000000000E+00  8.286025883E+02  8.286025883E+02  0.000000000E+00  0.00000E+00  9.000E+00
      21    -1     0     0   501   511  0.000000000E+00  0.000000000E+00 -1.786433322E+02  1.786433322E+02  0.000000000E+00  0.00000E+00  9.000E+00
      25     1     1     2     0     0  2.683636655E+02 -4.400136622E+01  6.289715590E+02  6.965525100E+02  1.250000000E+02  0.00000E+00  9.000E+00
      25     1     1     2     0     0 -2.237296491E+02  5.082529630E+01  8.993714416E-01  2.612737558E+02  1.250000000E+02  0.00000E+00  9.000E+00
      21     1     1     2   502   511 -4.463401638E+01 -6.823930085E+00  2.008832574E+01  4.941965471E+01  7.152557373E-07  0.00000E+00  9.000E+00
#rwgt            1           1   4.8293529677517079E-002           4      219412           0
</event>
<event>
      5   9999  3.79277E-02  1.82549E+02 -1.00000E+00  1.13111E-01
      21    -1     0     0   512   501  0.000000000E+00  0.000000000E+00  5.631362436E+02  5.631362436E+02  0.000000000E+00  0.00000E+00  9.000E+00
      21    -1     0     0   501   502  0.000000000E+00  0.000000000E+00 -4.858990534E+02  4.858990534E+02  0.000000000E+00  0.00000E+00  9.000E+00
      25     1     1     2     0     0  6.280397301E+01  6.421435804E+01  6.283035484E+01  1.662542520E+02  1.250000000E+02  0.00000E+00  9.000E+00
      25     1     1     2     0     0 -1.879575020E+02 -1.971083046E+02 -3.587012349E+02  4.674091166E+02  1.250000000E+02  0.00000E+00  9.000E+00
      21     1     1     2   512   502  1.251535290E+02  1.328939466E+02  3.731080703E+02  4.153719285E+02  0.000000000E+00  0.00000E+00  9.000E+00
#rwgt            1           1   3.7459212181991164E-002           4      219581           0
</event>
<event>
      5   9999  3.79277E-02  3.61564E+01 -1.00000E+00  1.47615E-01
      21    -1     0     0   511   501  0.000000000E+00  0.000000000E+00  2.491697341E+03  2.491697341E+03  0.000000000E+00  0.00000E+00  9.000E+00
      21    -1     0     0   501   502  0.000000000E+00  0.000000000E+00 -2.516600463E+01  2.516600463E+01  0.000000000E+00  0.00000E+00  9.000E+00
      25     1     1     2     0     0  5.918065954E+01 -1.222866879E+02  9.130786576E+02  9.315546251E+02  1.250000000E+02  0.00000E+00  9.000E+00
      25     1     1     2     0     0 -4.501317927E+01  8.902156877E+01  3.930088452E+02  4.243017540E+02  1.250000000E+02  0.00000E+00  9.000E+00
      21     1     1     2   511   502 -1.416748027E+01  3.326511914E+01  1.160443834E+03  1.161006967E+03  2.642899792E-05  0.00000E+00  9.000E+00
#rwgt            1           1   4.5406039470124226E-002           4      219680           0
</event>
<event>
      5   9999  3.79277E-02  1.34008E+01 -1.00000E+00  1.82124E-01
      21    -1     0     0   502   501  0.000000000E+00  0.000000000E+00  1.562004601E+02  1.562004601E+02  0.000000000E+00  0.00000E+00  9.000E+00
      21    -1     0     0   512   502  0.000000000E+00  0.000000000E+00 -2.180356673E+02  2.180356673E+02  0.000000000E+00  0.00000E+00  9.000E+00
      25     1     1     2     0     0 -1.132022849E+02  5.099329623E+01 -2.965244354E+01  1.786598471E+02  1.250000000E+02  0.00000E+00  9.000E+00
      25     1     1     2     0     0  1.001301443E+02 -4.804368789E+01 -7.365797973E+00  1.673723296E+02  1.250000000E+02  0.00000E+00  9.000E+00
      21     1     1     2   512   501  1.307214054E+01 -2.949608339E+00 -2.481696571E+01  2.820395070E+01  0.000000000E+00  0.00000E+00  9.000E+00
#rwgt            1           1   2.3964562869948691E-002           4      219798           0
</event>
<event>
      5   9999  3.79277E-02  4.59306E+00 -1.00000E+00  2.50081E-01
      21    -1     0     0   502   501  0.000000000E+00  0.000000000E+00  9.828802456E+02  9.828802456E+02  0.000000000E+00  0.00000E+00  9.000E+00
      21    -1     0     0   511   502  0.000000000E+00  0.000000000E+00 -8.708663786E+01  8.708663786E+01  0.000000000E+00  0.00000E+00  9.000E+00
      25     1     1     2     0     0 -1.866289846E+01  1.641631164E+02  7.883271543E+01  2.216696407E+02  1.250000000E+02  0.00000E+00  9.000E+00
      25     1     1     2     0     0  1.815745026E+01 -1.595979571E+02  8.185205882E+02  8.434465924E+02  1.250000000E+02  0.00000E+00  9.000E+00
      21     1     1     2   511   501  5.054482050E-01 -4.565159357E+00 -1.559695910E+00  4.850650387E+00  2.021291847E-07  0.00000E+00  9.000E+00
#rwgt            1           1   4.3098999862302603E-002           4      220137           0
</event>
<event>
      5   9999  3.79277E-02  2.12937E+01 -1.00000E+00  1.64154E-01
      21    -1     0     0   502   501  0.000000000E+00  0.000000000E+00  8.939474065E+01  8.939474065E+01  0.000000000E+00  0.00000E+00  9.000E+00
       2    -1     0     0   501     0  0.000000000E+00  0.000000000E+00 -1.120682674E+03  1.120682674E+03  0.000000000E+00  0.00000E+00  9.000E+00
      25     1     1     2     0     0  2.342322304E+01  5.211953342E+01 -3.539493651E+02  3.796975720E+02  1.250000000E+02  0.00000E+00  9.000E+00
      25     1     1     2     0     0 -3.968346994E+01 -6.586817446E+01  5.833948869E+00  1.468755567E+02  1.250000000E+02  0.00000E+00  9.000E+00
       2     1     1     2   502     0  1.626024689E+01  1.374864103E+01 -6.831725174E+02  6.835042862E+02  7.629394531E-06  0.00000E+00  9.000E+00
#rwgt            1           1   4.0957311700836913E-002           4      220660           0
</event>
<event>
      5   9999  3.79277E-02  7.32030E+01 -1.00000E+00  1.30244E-01
      21    -1     0     0   511   501  0.000000000E+00  0.000000000E+00  2.988935806E+02  2.988935806E+02  0.000000000E+00  0.00000E+00  9.000E+00
      21    -1     0     0   501   502  0.000000000E+00  0.000000000E+00 -2.986189640E+02  2.986189640E+02  0.000000000E+00  0.00000E+00  9.000E+00
      25     1     1     2     0     0  7.450035849E+01 -2.462327748E+02  2.443338802E+01  2.870590066E+02  1.250000000E+02  0.00000E+00  9.000E+00
      25     1     1     2     0     0 -2.402194254E+01  1.932175693E+02 -4.187970939E+01  2.351361156E+02  1.250000000E+02  0.00000E+00  9.000E+00
      21     1     1     2   511   502 -5.047841594E+01  5.301520548E+01  1.772093796E+01  7.531742249E+01  1.768159506E-06  0.00000E+00  9.000E+00
#rwgt            1           1   4.5587591657212718E-002           4      220799           0
</event>
<event>
      5   9999  3.79277E-02  1.45431E+02 -1.00000E+00  1.16929E-01
      21    -1     0     0   502   501  0.000000000E+00  0.000000000E+00  1.043746052E+03  1.043746052E+03  0.000000000E+00  0.00000E+00  9.000E+00
      21    -1     0     0   501   512  0.000000000E+00  0.000000000E+00 -1.241414144E+02  1.241414144E+02  0.000000000E+00  0.00000E+00  9.000E+00
      25     1     1     2     0     0 -7.195296379E+01 -1.352557340E+02  3.005189915E+02  3.597332440E+02  1.250000000E+02  0.00000E+00  9.000E+00
      25     1     1     2     0     0  8.519878387E+01  2.800819267E+02  5.731965721E+02  6.556554191E+02  1.250000000E+02  0.00000E+00  9.000E+00
      21     1     1     2   502   512 -1.324582007E+01 -1.448261927E+02  4.588907373E+01  1.524988030E+02  2.697398305E-06  0.00000E+00  9.000E+00
#rwgt            1           1   3.6326911036268332E-002           4      220951           0
</event>
<event>
      5   9999  3.79277E-02  8.11362E+01 -1.00000E+00  1.28054E-01
      21    -1     0     0   502   501  0.000000000E+00  0.000000000E+00  1.196373994E+03  1.196373994E+03  0.000000000E+00  0.00000E+00  9.000E+00
       2    -1     0     0   501     0  0.000000000E+00  0.000000000E+00 -1.392682351E+03  1.392682351E+03  0.000000000E+00  0.00000E+00  9.000E+00
      25     1     1     2     0     0  2.300999393E+02 -1.819482776E+01  8.456368604E+02  8.854398531E+02  1.250000000E+02  0.00000E+00  9.000E+00
      25     1     1     2     0     0 -1.655085208E+02  6.729710251E+01  2.935407720E+02  3.656680944E+02  1.250000000E+02  0.00000E+00  9.000E+00
       2     1     1     2   502     0 -6.459141849E+01 -4.910227475E+01 -1.335485990E+03  1.337948397E+03  2.157918644E-05  0.00000E+00  9.000E+00
#rwgt            1           1   1.5232425567531811E-002           4      221029           0
</event>
<event>
      5   9999  3.79277E-02  1.06336E+02 -1.00000E+00  1.22640E-01
      21    -1     0     0   502   511  0.000000000E+00  0.000000000E+00  9.159949087E+01  9.159949087E+01  0.000000000E+00  0.00000E+00  9.000E+00
      21    -1     0     0   501   502  0.000000000E+00  0.000000000E+00 -6.057048740E+02  6.057048740E+02  0.000000000E+00  0.00000E+00  9.000E+00
      25     1     1     2     0     0  1.137349915E+02  7.662474200E+01 -3.805003738E+02  4.233350138E+02  1.250000000E+02  0.00000E+00  9.000E+00
      25     1     1     2     0     0 -1.698135869E+01 -3.251111181E+01 -9.337222047E+01  1.602769805E+02  1.250000000E+02  0.00000E+00  9.000E+00
      21     1     1     2   501   511 -9.675363281E+01 -4.411363020E+01 -4.023278881E+01  1.136923706E+02  1.907348633E-06  0.00000E+00  9.000E+00
#rwgt            1           1   3.9423908569436047E-002           4      221112           0
</event>
<event>
      5   9999  3.79277E-02  7.35273E+01 -1.00000E+00  1.30148E-01
      21    -1     0     0   502   501  0.000000000E+00  0.000000000E+00  6.843406837E+02  6.843406837E+02  0.000000000E+00  0.00000E+00  9.000E+00
      21    -1     0     0   501   512  0.000000000E+00  0.000000000E+00 -3.013031555E+02  3.013031555E+02  0.000000000E+00  0.00000E+00  9.000E+00
      25     1     1     2     0     0 -2.817900561E+01  4.753521155E+01  4.756200730E+01  1.447093543E+02  1.250000000E+02  0.00000E+00  9.000E+00
      25     1     1     2     0     0  8.805148674E+01 -4.855521802E+00  5.725945702E+02  5.926771315E+02  1.250000000E+02  0.00000E+00  9.000E+00
      21     1     1     2   502   512 -5.987248113E+01 -4.267968975E+01 -2.371190493E+02  2.482573533E+02  4.672030912E-06  0.00000E+00  9.000E+00
#rwgt            1           1   3.4671852328908528E-002           4      221159           0
</event>
<event>
      5   9999  3.79277E-02  5.82603E+01 -1.00000E+00  1.35390E-01
      21    -1     0     0   502   501  0.000000000E+00  0.000000000E+00  3.985568794E+01  3.985568794E+01  0.000000000E+00  0.00000E+00  9.000E+00
       2    -1     0     0   501     0  0.000000000E+00  0.000000000E+00 -1.681866182E+03  1.681866182E+03  0.000000000E+00  0.00000E+00  9.000E+00
      25     1     1     2     0     0 -2.591469674E+01  1.038064960E+02 -4.388968391E+02  4.687246478E+02  1.250000000E+02  0.00000E+00  9.000E+00
      25     1     1     2     0     0 -1.064011516E+01 -5.844117081E+01 -1.744265624E+02  2.226616451E+02  1.250000000E+02  0.00000E+00  9.000E+00
       2     1     1     2   502     0  3.655481190E+01 -4.536532520E+01 -1.028687093E+03  1.030335577E+03  1.525878906E-05  0.00000E+00  9.000E+00
#rwgt            1           1   4.4546541000878348E-002           4      221230           0
</event>
<event>
      5   9999  3.79277E-02  2.70905E+01 -1.00000E+00  1.56182E-01
      21    -1     0     0   502   501  0.000000000E+00  0.000000000E+00  1.682010899E+02  1.682010899E+02  0.000000000E+00  0.00000E+00  9.000E+00
       1    -1     0     0   501     0  0.000000000E+00  0.000000000E+00 -2.091806211E+03  2.091806211E+03  0.000000000E+00  0.00000E+00  9.000E+00
      25     1     1     2     0     0 -7.677955910E+01  1.403597464E+02 -2.521909317E+01  2.045897401E+02  1.250000000E+02  0.00000E+00  9.000E+00
      25     1     1     2     0     0  7.570500004E+01 -1.132905932E+02 -3.058551002E+01  1.874205938E+02  1.250000000E+02  0.00000E+00  9.000E+00
       1     1     1     2   502     0  1.074559058E+00 -2.706915315E+01 -1.867800518E+03  1.867996967E+03  2.157918644E-05  0.00000E+00  9.000E+00
#rwgt            1           1   2.8094026197749734E-002           4      221337           0
</event>
<event>
      5   9999  3.79277E-02  1.24136E+02 -1.00000E+00  1.19747E-01
      21    -1     0     0   502   511  0.000000000E+00  0.000000000E+00  2.883866346E+02  2.883866346E+02  0.000000000E+00  0.00000E+00  9.000E+00
      21    -1     0     0   501   502  0.000000000E+00  0.000000000E+00 -1.706083886E+02  1.706083886E+02  0.000000000E+00  0.00000E+00  9.000E+00
      25     1     1     2     0     0 -1.425151773E+01 -4.962112822E+01  4.931209981E+01  1.439515381E+02  1.250000000E+02  0.00000E+00  9.000E+00
      25     1     1     2     0     0  8.862537430E+01 -4.976880279E+01 -2.037291760E+01  1.623928769E+02  1.250000000E+02  0.00000E+00  9.000E+00
      21     1     1     2   501   511 -7.437385657E+01  9.938993101E+01  8.883906382E+01  1.526506082E+02  9.536743164E-07  0.00000E+00  9.000E+00
#rwgt            1           1   3.5009671319763673E-002           4      221644           0
</event>
<event>
      5   9999  3.79277E-02  1.18005E+02 -1.00000E+00  1.20678E-01
       2    -1     0     0   502     0  0.000000000E+00  0.000000000E+00  1.456255931E+03  1.456255931E+03  0.000000000E+00  0.00000E+00  9.000E+00
      21    -1     0     0   501   502  0.000000000E+00  0.000000000E+00 -1.980576675E+02  1.980576675E+02  0.000000000E+00  0.00000E+00  9.000E+00
      25     1     1     2     0     0  1.059903268E+00 -7.186684031E+01 -8.696614583E+01  1.683866879E+02  1.250000000E+02  0.00000E+00  9.000E+00
      25     1     1     2     0     0 -9.994089014E+01  1.362693045E+02  9.579338593E+01  2.309954061E+02  1.250000000E+02  0.00000E+00  9.000E+00
       2     1     1     2   501     0  9.888098687E+01 -6.440246418E+01  1.249371024E+03  1.254931505E+03  2.642899792E-05  0.00000E+00  9.000E+00
#rwgt            1           1   4.1231957038552348E-002           4      221694           0
</event>
<event>
      5   9999  3.79277E-02  1.22671E+01 -1.00000E+00  1.86029E-01
      21    -1     0     0   511   501  0.000000000E+00  0.000000000E+00  8.155907596E+02  8.155907596E+02  0.000000000E+00  0.00000E+00  9.000E+00
      21    -1     0     0   501   502  0.000000000E+00  0.000000000E+00 -1.068460857E+02  1.068460857E+02  0.000000000E+00  0.00000E+00  9.000E+00
      25     1     1     2     0     0  9.482900295E+01 -1.507609485E+00 -2.593514172E+01  1.590359842E+02  1.250000000E+02  0.00000E+00  9.000E+00
      25     1     1     2     0     0 -9.973013207E+01 -9.737823591E+00  4.365386636E+02  4.650074508E+02  1.250000000E+02  0.00000E+00  9.000E+00
      21     1     1     2   511   502  4.901129127E+00  1.124543308E+01  2.981411520E+02  2.983934103E+02  6.607249480E-06  0.00000E+00  9.000E+00
#rwgt            1           1   4.0595525478491296E-002           4      221785           0
</event>
<event>
      5   9999  3.79277E-02  2.14503E+01 -1.00000E+00  1.63899E-01
      21    -1     0     0   512   501  0.000000000E+00  0.000000000E+00  2.373431749E+02  2.373431749E+02  0.000000000E+00  0.00000E+00  9.000E+00
      21    -1     0     0   501   502  0.000000000E+00  0.000000000E+00 -4.931297100E+02  4.931297100E+02  0.000000000E+00  0.00000E+00  9.000E+00
      25     1     1     2     0     0  6.863094057E+01  8.484300704E+01  1.459876994E+02  2.210111993E+02  1.250000000E+02  0.00000E+00  9.000E+00
      25     1     1     2     0     0 -8.988778624E+01 -8.771716115E+01 -4.351171687E+02  4.698149263E+02  1.250000000E+02  0.00000E+00  9.000E+00
      21     1     1     2   512   502  2.125684567E+01  2.874154107E+00  3.334293433E+01  3.964675925E+01  0.000000000E+00  0.00000E+00  9.000E+00
#rwgt            1           1   4.6404359697098212E-002           4      222047           0
</event>
<event>
      5   9999  3.79277E-02  6.36661E+01 -1.00000E+00  1.33341E-01
      21    -1     0     0   511   501  0.000000000E+00  0.000000000E+00  2.847191449E+02  2.847191449E+02  0.000000000E+00  0.00000E+00  9.000E+00
      21    -1     0     0   501   502  0.000000000E+00  0.000000000E+00 -1.383592412E+02  1.383592412E+02  0.000000000E+00  0.00000E+00  9.000E+00
      25     1     1     2     0     0 -2.115390003E-01 -1.088182608E+01  1.643684883E+02  2.067860219E+02  1.250000000E+02  0.00000E+00  9.000E+00
      25     1     1     2     0     0 -3.684282837E+01 -4.089026469E+01 -4.948620101E+01  1.452697210E+02  1.250000000E+02  0.00000E+00  9.000E+00
      21     1     1     2   511   502  3.705436737E+01  5.177209077E+01  3.147761636E+01  7.102264326E+01  4.768371582E-07  0.00000E+00  9.000E+00
#rwgt            1           1   3.6115333369147101E-002           4      222239           0
</event>
<event>
      5   9999 -3.79277E-02  3.56976E+01 -1.00000E+00  1.47973E-01
      21    -1     0     0   502   501  0.000000000E+00  0.000000000E+00  3.538147042E+02  3.538147042E+02  0.000000000E+00  0.00000E+00  9.000E+00
      21    -1     0     0   501   512  0.000000000E+00  0.000000000E+00 -2.276201276E+02  2.276201276E+02  0.000000000E+00  0.00000E+00  9.000E+00
      25     1     1     2     0     0  2.094797584E+02  7.546693464E+01  1.591409588E+02  3.008785007E+02  1.250000000E+02  0.00000E+00  9.000E+00
      25     1     1     2     0     0 -1.820289232E+02 -9.828726941E+01 -3.741247982E+01  2.445804773E+02  1.250000000E+02  0.00000E+00  9.000E+00
      21     1     1     2   502   512 -2.745083520E+01  2.282033477E+01  4.466097533E+00  3.597585383E+01  3.908537939E-07  0.00000E+00  9.000E+00
#rwgt            1           1 -0.23077775914983661                4      222295           0
</event>
<event>
      5   9999  3.79277E-02  9.66846E+01 -1.00000E+00  1.24490E-01
      21    -1     0     0   502   511  0.000000000E+00  0.000000000E+00  8.207428512E+02  8.207428512E+02  0.000000000E+00  0.00000E+00  9.000E+00
      21    -1     0     0   501   502  0.000000000E+00  0.000000000E+00 -1.273406286E+02  1.273406286E+02  0.000000000E+00  0.00000E+00  9.000E+00
      25     1     1     2     0     0 -9.994449594E+01  1.312233576E+02  4.726658361E+00  2.070164562E+02  1.250000000E+02  0.00000E+00  9.000E+00
      25     1     1     2     0     0  2.066804556E+01 -7.587761460E+01  5.655694047E+02  5.845325757E+02  1.250000000E+02  0.00000E+00  9.000E+00
      21     1     1     2   501   511  7.927645038E+01 -5.534574301E+01  1.231061596E+02  1.565344479E+02  1.907348633E-06  0.00000E+00  9.000E+00
#rwgt            1           1   3.6067168648949315E-002           4      222458           0
</event>
<event>
      5   9999  3.79277E-02  1.17373E+02 -1.00000E+00  1.20778E-01
      21    -1     0     0   502   501  0.000000000E+00  0.000000000E+00  6.909561624E+02  6.909561624E+02  0.000000000E+00  0.00000E+00  9.000E+00
      21    -1     0     0   512   502  0.000000000E+00  0.000000000E+00 -1.880982748E+02  1.880982748E+02  0.000000000E+00  0.00000E+00  9.000E+00
      25     1     1     2     0     0 -1.492713064E+02 -1.521774815E+02  2.099908614E+02  3.242854771E+02  1.250000000E+02  0.00000E+00  9.000E+00
      25     1     1     2     0     0  2.588477081E+02  1.942409320E+02  2.579479440E+02  4.323121759E+02  1.250000000E+02  0.00000E+00  9.000E+00
      21     1     1     2   512   501 -1.095764017E+02 -4.206345047E+01  3.491908219E+01  1.224567841E+02  4.768371582E-07  0.00000E+00  9.000E+00
#rwgt            1           1   4.0111432969204823E-002           4      222564           0
</event>
<event>
      5   9999  3.79277E-02  7.28129E+01 -1.00000E+00  1.30360E-01
      21    -1     0     0   502   501  0.000000000E+00  0.000000000E+00  4.686615218E+01  4.686615218E+01  0.000000000E+00  0.00000E+00  9.000E+00
      21    -1     0     0   511   502  0.000000000E+00  0.000000000E+00 -1.714525500E+03  1.714525500E+03  0.000000000E+00  0.00000E+00  9.000E+00
      25     1     1     2     0     0 -6.758217227E+01 -6.910710270E+01 -3.414937166E+02  3.762792848E+02  1.250000000E+02  0.00000E+00  9.000E+00
      25     1     1     2     0     0  4.353099092E+01  1.378330317E+02 -2.956806070E+02  3.520581105E+02  1.250000000E+02  0.00000E+00  9.000E+00
      21     1     1     2   511   501  2.405118135E+01 -6.872592903E+01 -1.030485024E+03  1.033054257E+03  1.525878906E-05  0.00000E+00  9.000E+00
#rwgt            1           1   3.9666116689912385E-002           4      222711           0
</event>
<event>
      5   9999  3.79277E-02  5.33518E+01 -1.00000E+00  1.37487E-01
      21    -1     0     0   502   501  0.000000000E+00  0.000000000E+00  2.040436059E+02  2.040436059E+02  0.000000000E+00  0.00000E+00  9.000E+00
      21    -1     0     0   512   502  0.000000000E+00  0.000000000E+00 -2.758123681E+02  2.758123681E+02  0.000000000E+00  0.00000E+00  9.000E+00
      25     1     1     2     0     0  5.561882518E-01 -3.772919018E+01 -1.873751123E+02  2.283817721E+02  1.250000000E+02  0.00000E+00  9.000E+00
      25     1     1     2     0     0  2.458024248E+01  8.478848222E+01  1.246360104E+02  1.973636495E+02  1.250000000E+02  0.00000E+00  9.000E+00
      21     1     1     2   512   501 -2.513643074E+01 -4.705929203E+01 -9.029660312E+00  5.411055241E+01  1.305872339E-06  0.00000E+00  9.000E+00
#rwgt            1           1   3.7687054530839578E-002           4      222802           0
</event>
<event>
      5   9999  3.79277E-02  3.78872E+01 -1.00000E+00  1.46317E-01
      21    -1     0     0   511   501  0.000000000E+00  0.000000000E+00  1.738450040E+02  1.738450040E+02  0.000000000E+00  0.00000E+00  9.000E+00
      21    -1     0     0   501   502  0.000000000E+00  0.000000000E+00 -5.029018307E+02  5.029018307E+02  0.000000000E+00  0.00000E+00  9.000E+00
      25     1     1     2     0     0 -1.460271544E+02 -7.699059765E+01 -2.252141827E+02  3.059377551E+02  1.250000000E+02  0.00000E+00  9.000E+00
      25     1     1     2     0     0  1.694730814E+02  4.722938582E+01 -1.830600218E+02  2.829977240E+02  1.250000000E+02  0.00000E+00  9.000E+00
      21     1     1     2   511   502 -2.344592702E+01  2.976121184E+01  7.921737778E+01  8.781135557E+01  9.536743164E-07  0.00000E+00  9.000E+00
#rwgt            1           1   2.4736027327361639E-002           4      222906           0
</event>
<event>
      5   9999  3.79277E-02  9.74597E+01 -1.00000E+00  1.24333E-01
      21    -1     0     0   502   501  0.000000000E+00  0.000000000E+00  3.456735736E+02  3.456735736E+02  0.000000000E+00  0.00000E+00  9.000E+00
      21    -1     0     0   501   512  0.000000000E+00  0.000000000E+00 -2.535916589E+02  2.535916589E+02  0.000000000E+00  0.00000E+00  9.000E+00
      25     1     1     2     0     0 -4.303447646E+01  1.067718718E+02  1.087784389E+02  2.017670626E+02  1.250000000E+02  0.00000E+00  9.000E+00
      25     1     1     2     0     0  1.190631166E+01 -1.441695363E+01  1.550428348E+02  2.000322210E+02  1.250000000E+02  0.00000E+00  9.000E+00
      21     1     1     2   502   512  3.112816480E+01 -9.235491821E+01 -1.717393590E+02  1.974659489E+02  1.907348633E-06  0.00000E+00  9.000E+00
#rwgt            1           1   4.8324774762215660E-002           4      222994           0
</event>
<event>
      5   9999  3.79277E-02  3.08019E+01 -1.00000E+00  1.52248E-01
      21    -1     0     0   511   501  0.000000000E+00  0.000000000E+00  1.183036299E+03  1.183036299E+03  0.000000000E+00  0.00000E+00  9.000E+00
      21    -1     0     0   501   502  0.000000000E+00  0.000000000E+00 -6.850961913E+01  6.850961913E+01  0.000000000E+00  0.00000E+00  9.000E+00
      25     1     1     2     0     0  1.609679347E+02 -1.229218580E+02  2.849253036E+02  3.712517850E+02  1.250000000E+02  0.00000E+00  9.000E+00
      25     1     1     2     0     0 -1.607254406E+02  1.537228405E+02  6.537846355E+02  7.017996356E+02  1.250000000E+02  0.00000E+00  9.000E+00
      21     1     1     2   511   502 -2.424940624E-01 -3.080098251E+01  1.758167411E+02  1.784944979E+02  0.000000000E+00  0.00000E+00  9.000E+00
#rwgt            1           1   3.6691953540400439E-002           4      223064           0
</event>
<event>
      5   9999  3.79277E-02  5.73797E+01 -1.00000E+00  1.35748E-01
      21    -1     0     0   512   501  0.000000000E+00  0.000000000E+00  1.109131807E+03  1.109131807E+03  0.000000000E+00  0.00000E+00  9.000E+00
      21    -1     0     0   501   502  0.000000000E+00  0.000000000E+00 -8.817701660E+01  8.817701660E+01  0.000000000E+00  0.00000E+00  9.000E+00
      25     1     1     2     0     0  5.453610430E+01  1.057188727E+01  3.177055666E+02  3.459014000E+02  1.250000000E+02  0.00000E+00  9.000E+00
      25     1     1     2     0     0  2.306813299E+00 -2.741988883E+00 -1.934480732E+01  1.265387745E+02  1.250000000E+02  0.00000E+00  9.000E+00
      21     1     1     2   512   502 -5.684291760E+01 -7.829898389E+00  7.225940310E+02  7.248686489E+02  1.321449896E-05  0.00000E+00  9.000E+00
#rwgt            1           1   5.0591437254206582E-002           4      223227           0
</event>
<event>
      5   9999  3.79277E-02  4.50862E+00 -1.00000E+00  2.51794E-01
      21    -1     0     0   511   501  0.000000000E+00  0.000000000E+00  8.921360117E+02  8.921360117E+02  0.000000000E+00  0.00000E+00  9.000E+00
      21    -1     0     0   501   502  0.000000000E+00  0.000000000E+00 -5.940452041E+01  5.940452041E+01  0.000000000E+00  0.00000E+00  9.000E+00
      25     1     1     2     0     0  6.634321646E+01  9.804537347E+01  1.045346471E+02  2.014120405E+02  1.250000000E+02  0.00000E+00  9.000E+00
      25     1     1     2     0     0 -6.902206239E+01 -1.016718695E+02  7.153558683E+02  7.365189966E+02  1.250000000E+02  0.00000E+00  9.000E+00
      21     1     1     2   511   502  2.678845931E+00  3.626496068E+00  1.284097596E+01  1.360949495E+01  1.685873940E-07  0.00000E+00  9.000E+00
#rwgt            1           1   4.1468326374147935E-002           4      223331           0
</event>
<event>
      5   9999  3.79277E-02  4.21707E+01 -1.00000E+00  1.43431E-01
      21    -1     0     0   502   512  0.000000000E+00  0.000000000E+00  3.256064909E+02  3.256064909E+02  0.000000000E+00  0.00000E+00  9.000E+00
      21    -1     0     0   501   502  0.000000000E+00  0.000000000E+00 -1.454798076E+02  1.454798076E+02  0.000000000E+00  0.00000E+00  9.000E+00
      25     1     1     2     0     0  5.874696686E+00 -5.713254939E+01 -7.548111586E+01  1.569109273E+02  1.250000000E+02  0.00000E+00  9.000E+00
      25     1     1     2     0     0 -4.612723772E+01  4.455859953E+01  1.981900576E+02  2.429351555E+02  1.250000000E+02  0.00000E+00  9.000E+00
      21     1     1     2   501   512  4.025254103E+01  1.257394986E+01  5.741774159E+01  7.124021564E+01  9.536743164E-07  0.00000E+00  9.000E+00
#rwgt            1           1   5.1292610491133261E-002           4      223801           0
</event>
<event>
      5   9999  3.79277E-02  1.21305E+02 -1.00000E+00  1.20169E-01
       2    -1     0     0   502     0  0.000000000E+00  0.000000000E+00  3.206010434E+03  3.206010434E+03  0.000000000E+00  0.00000E+00  9.000E+00
      21    -1     0     0   501   502  0.000000000E+00  0.000000000E+00 -2.993989129E+01  2.993989129E+01  0.000000000E+00  0.00000E+00  9.000E+00
      25     1     1     2     0     0  1.145851130E+02 -1.619962616E+01  3.417360583E+02  3.818385909E+02  1.250000000E+02  0.00000E+00  9.000E+00
      25     1     1     2     0     0 -1.054298291E+02  1.371587095E+02  1.892732002E+03  1.904727643E+03  1.250000000E+02  0.00000E+00  9.000E+00
       2     1     1     2   501     0 -9.155283913E+00 -1.209590833E+02  9.416024823E+02  9.493840918E+02  0.000000000E+00  0.00000E+00  9.000E+00
#rwgt            1           1   1.4876230945629414E-002           4      223947           0
</event>
<event>
      5   9999  3.79277E-02  3.06918E+01 -1.00000E+00  1.52355E-01
      21    -1     0     0   511   501  0.000000000E+00  0.000000000E+00  2.857553317E+02  2.857553317E+02  0.000000000E+00  0.00000E+00  9.000E+00
      21    -1     0     0   501   502  0.000000000E+00  0.000000000E+00 -2.799961801E+02  2.799961801E+02  0.000000000E+00  0.00000E+00  9.000E+00
      25     1     1     2     0     0  6.341267095E+01 -1.846099935E+01 -1.021321439E+02  1.744074258E+02  1.250000000E+02  0.00000E+00  9.000E+00
      25     1     1     2     0     0 -8.669884831E+01 -1.532549279E+00 -9.944348659E+01  1.817499547E+02  1.250000000E+02  0.00000E+00  9.000E+00
      21     1     1     2   511   502  2.328617735E+01  1.999354863E+01  2.073347821E+02  2.095941314E+02  2.697398305E-06  0.00000E+00  9.000E+00
#rwgt            1           1   7.8723461563095745E-002           4      224298           0
</event>
<event>
      5   9999  3.79277E-02  4.49790E+01 -1.00000E+00  1.41750E-01
      21    -1     0     0   502   501  0.000000000E+00  0.000000000E+00  1.993916185E+03  1.993916185E+03  0.000000000E+00  0.00000E+00  9.000E+00
      21    -1     0     0   501   512  0.000000000E+00  0.000000000E+00 -4.684701189E+01  4.684701189E+01  0.000000000E+00  0.00000E+00  9.000E+00
      25     1     1     2     0     0  9.873345318E+00  2.151079250E+02  1.252307808E+03  1.276819779E+03  1.250000000E+02  0.00000E+00  9.000E+00
      25     1     1     2     0     0  2.966418801E+01 -2.365530058E+02  6.299424780E+02  6.850473080E+02  1.250000000E+02  0.00000E+00  9.000E+00
      21     1     1     2   502   512 -3.953753333E+01  2.144508081E+01  6.481888776E+01  7.889611045E+01  2.132480600E-06  0.00000E+00  9.000E+00
#rwgt            1           1   6.0800249618570640E-002           4      224487           0
</event>
<event>
      5   9999  3.79277E-02  1.08489E+02 -1.00000E+00  1.22257E-01
      21    -1     0     0   502   501  0.000000000E+00  0.000000000E+00  3.898856673E+02  3.898856673E+02  0.000000000E+00  0.00000E+00  9.000E+00
      21    -1     0     0   501   511  0.000000000E+00  0.000000000E+00 -1.784893613E+02  1.784893613E+02  0.000000000E+00  0.00000E+00  9.000E+00
      25     1     1     2     0     0 -8.871724305E+01  4.836935938E+01  1.876382182E+02  2.470697170E+02  1.250000000E+02  0.00000E+00  9.000E+00
      25     1     1     2     0     0  6.799362865E+01 -1.548607556E+02  3.019918300E-01  2.103094823E+02  1.250000000E+02  0.00000E+00  9.000E+00
      21     1     1     2   502   511  2.072361440E+01  1.064913962E+02  2.345609607E+01  1.109958292E+02  2.311553887E-06  0.00000E+00  9.000E+00
#rwgt            1           1   3.0636458308658882E-002           4      224601           0
</event>
<event>
      5   9999  3.79277E-02  3.28298E+01 -1.00000E+00  1.50370E-01
      21    -1     0     0   512   501  0.000000000E+00  0.000000000E+00  1.907797588E+02  1.907797588E+02  0.000000000E+00  0.00000E+00  9.000E+00
      21    -1     0     0   501   502  0.000000000E+00  0.000000000E+00 -2.593655503E+02  2.593655503E+02  0.000000000E+00  0.00000E+00  9.000E+00
      25     1     1     2     0     0  1.327471919E+02 -2.997453852E+01 -2.875170902E+01  1.870078894E+02  1.250000000E+02  0.00000E+00  9.000E+00
      25     1     1     2     0     0 -1.655752513E+02  3.030795143E+01 -6.744085153E+01  2.202430572E+02  1.250000000E+02  0.00000E+00  9.000E+00
      21     1     1     2   512   502  3.282805939E+01 -3.334129004E-01  2.760676900E+01  4.289436259E+01  7.539457465E-07  0.00000E+00  9.000E+00
#rwgt            1           1   3.3960311970450408E-002           4      224681           0
</event>
<event>
      5   9999  3.79277E-02  1.53765E+01 -1.00000E+00  1.76375E-01
      21    -1     0     0   502   501  0.000000000E+00  0.000000000E+00  7.318726864E+02  7.318726864E+02  0.000000000E+00  0.00000E+00  9.000E+00
      21    -1     0     0   511   502  0.000000000E+00  0.000000000E+00 -3.922697390E+01  3.922697390E+01  0.000000000E+00  0.00000E+00  9.000E+00
      25     1     1     2     0     0 -2.179128294E+01  5.103077985E+01  5.088245363E+02  5.268836771E+02  1.250000000E+02  0.00000E+00  9.000E+00
      25     1     1     2     0     0  2.347692041E+01 -6.631464167E+01  1.757429287E+02  2.268465880E+02  1.250000000E+02  0.00000E+00  9.000E+00
      21     1     1     2   511   501 -1.685637475E+00  1.528386182E+01  8.078247520E+00  1.736939518E+01  3.576278687E-07  0.00000E+00  9.000E+00
#rwgt            1           1   8.6783965072397811E-003           4      224805           0
</event>
<event>
      5   9999  3.79277E-02  9.06378E+01 -1.00000E+00  1.25779E-01
       1    -1     0     0   502     0  0.000000000E+00  0.000000000E+00  2.296995625E+03  2.296995625E+03  0.000000000E+00  0.00000E+00  9.000E+00
      21    -1     0     0   501   502  0.000000000E+00  0.000000000E+00 -3.970339424E+01  3.970339424E+01  0.000000000E+00  0.00000E+00  9.000E+00
      25     1     1     2     0     0 -6.927359364E+01  8.381143118E+01  1.062809835E+03  1.075645356E+03  1.250000000E+02  0.00000E+00  9.000E+00
      25     1     1     2     0     0  1.370212183E+02 -1.440232900E+02  4.191958528E+02  4.804869253E+02  1.250000000E+02  0.00000E+00  9.000E+00
       1     1     1     2   501     0 -6.774762464E+01  6.021185882E+01  7.752865426E+02  7.805667375E+02  1.078959322E-05  0.00000E+00  9.000E+00
#rwgt            1           1   4.7924852554359104E-002           4      225065           0
</event>
<event>
      5   9999  3.79277E-02  1.84606E+01 -1.00000E+00  1.69291E-01
      21    -1     0     0   502   501  0.000000000E+00  0.000000000E+00  7.227708184E+02  7.227708184E+02  0.000000000E+00  0.00000E+00  9.000E+00
      -5    -1     0     0     0   502  0.000000000E+00  0.000000000E+00 -5.640531857E+02  5.640531857E+02  0.000000000E+00  0.00000E+00  9.000E+00
      25     1     1     2     0     0  9.819014546E+00 -1.340907591E+02  5.837142783E+02  6.119020374E+02  1.250000000E+02  0.00000E+00  9.000E+00
      25     1     1     2     0     0 -8.230796695E+00  1.524828769E+02  4.675859309E+01  2.028056700E+02  1.250000000E+02  0.00000E+00  9.000E+00
      -5     1     1     2     0   501 -1.588217851E+00 -1.839211783E+01 -4.717552387E+02  4.721162967E+02  5.394796609E-06  0.00000E+00  9.000E+00
#rwgt            1           1   4.3825088054352930E-002           4      225131           0
</event>
<event>
      5   9999  3.79277E-02  1.02701E+01 -1.00000E+00  1.94429E-01
      21    -1     0     0   511   501  0.000000000E+00  0.000000000E+00  1.592183540E+03  1.592183540E+03  0.000000000E+00  0.00000E+00  9.000E+00
      21    -1     0     0   501   502  0.000000000E+00  0.000000000E+00 -3.246287758E+01  3.246287758E+01  0.000000000E+00  0.00000E+00  9.000E+00
      25     1     1     2     0     0  1.170889135E+02 -9.216266073E+01  6.700688748E+02  6.977256386E+02  1.250000000E+02  0.00000E+00  9.000E+00
      25     1     1     2     0     0 -1.191109824E+02  8.209359252E+01  4.734796091E+02  5.106218996E+02  1.250000000E+02  0.00000E+00  9.000E+00
      21     1     1     2   511   502  2.022068910E+00  1.006906821E+01  4.161721789E+02  4.162988798E+02  5.394796609E-06  0.00000E+00  9.000E+00
#rwgt            1           1   4.2869664072265307E-002           4      225283           0
</event>
<event>
      5   9999  3.79277E-02  4.84381E+01 -1.00000E+00  1.39866E-01
      21    -1     0     0   502   501  0.000000000E+00  0.000000000E+00  6.044468991E+02  6.044468991E+02  0.000000000E+00  0.00000E+00  9.000E+00
      21    -1     0     0   501   512  0.000000000E+00  0.000000000E+00 -2.256043144E+02  2.256043144E+02  0.000000000E+00  0.00000E+00  9.000E+00
      25     1     1     2     0     0 -5.963811712E+01 -1.482905762E+02  4.215926905E+02  4.678805367E+02  1.250000000E+02  0.00000E+00  9.000E+00
      25     1     1     2     0     0  1.045431105E+02  1.301303758E+02  8.526653743E+01  2.252966024E+02  1.250000000E+02  0.00000E+00  9.000E+00
      21     1     1     2   502   512 -4.490499338E+01  1.816020041E+01 -1.280166432E+02  1.368740744E+02  1.907348633E-06  0.00000E+00  9.000E+00
#rwgt            1           1   4.3539929800309185E-002           4      225497           0
</event>
<event>
      5   9999  3.79277E-02  3.03586E+01 -1.00000E+00  1.52682E-01
      21    -1     0     0   502   511  0.000000000E+00  0.000000000E+00  1.007526379E+03  1.007526379E+03  0.000000000E+00  0.00000E+00  9.000E+00
      21    -1     0     0   501   502  0.000000000E+00  0.000000000E+00 -3.999442860E+01  3.999442860E+01  0.000000000E+00  0.00000E+00  9.000E+00
      25     1     1     2     0     0 -3.685770144E+01  1.145600562E+02  2.539225840E+02  3.075454036E+02  1.250000000E+02  0.00000E+00  9.000E+00
      25     1     1     2     0     0  5.583714620E+01 -9.086568184E+01  5.710884006E+02  5.942569481E+02  1.250000000E+02  0.00000E+00  9.000E+00
      21     1     1     2   501   511 -1.897944477E+01 -2.369437431E+01  1.425209656E+02  1.457184557E+02  0.000000000E+00  0.00000E+00  9.000E+00
#rwgt            1           1   4.3007363821961388E-002           4      225610           0
</event>
<event>
      5   9999  3.79277E-02  1.83206E+02 -1.00000E+00  1.13053E-01
      21    -1     0     0   502   501  0.000000000E+00  0.000000000E+00  1.613179019E+02  1.613179019E+02  0.000000000E+00  0.00000E+00  9.000E+00
      21    -1     0     0   512   502  0.000000000E+00  0.000000000E+00 -7.056838818E+02  7.056838818E+02  0.000000000E+00  0.00000E+00  9.000E+00
      25     1     1     2     0     0  1.106632802E+02  1.124679818E+02 -4.186609787E+02  4.645400130E+02  1.250000000E+02  0.00000E+00  9.000E+00
      25     1     1     2     0     0 -8.011906915E+01  6.817340665E+01  2.494660745E+01  1.652695127E+02  1.250000000E+02  0.00000E+00  9.000E+00
      21     1     1     2   512   501 -3.054421109E+01 -1.806413884E+02 -1.506516086E+02  2.371922579E+02  2.697398305E-06  0.00000E+00  9.000E+00
#rwgt            1           1   4.4748429663149798E-002           4      225838           0
</event>
<event>
      5   9999  3.79277E-02  5.91656E+01 -1.00000E+00  1.35029E-01
      21    -1     0     0   511   501  0.000000000E+00  0.000000000E+00  1.282826854E+02  1.282826854E+02  0.000000000E+00  0.00000E+00  9.000E+00
      21    -1     0     0   501   502  0.000000000E+00  0.000000000E+00 -8.070025724E+02  8.070025724E+02  0.000000000E+00  0.00000E+00  9.000E+00
      25     1     1     2     0     0  3.815495025E+01  2.476048896E+02 -5.223772056E+02  5.926777594E+02  1.250000000E+02  0.00000E+00  9.000E+00
      25     1     1     2     0     0 -7.074603269E+01 -1.982247883E+02 -1.152076206E+02  2.705473409E+02  1.250000000E+02  0.00000E+00  9.000E+00
      21     1     1     2   511   502  3.259108243E+01 -4.938010127E+01 -4.113506076E+01  7.206015736E+01  9.536743164E-07  0.00000E+00  9.000E+00
#rwgt            1           1  0.18482810633544539                4      225904           0
</event>
<event>
      5   9999  3.79277E-02  1.08257E+02 -1.00000E+00  1.22298E-01
      21    -1     0     0   502   501  0.000000000E+00  0.000000000E+00  6.931460117E+01  6.931460117E+01  0.000000000E+00  0.00000E+00  9.000E+00
       2    -1     0     0   501     0  0.000000000E+00  0.000000000E+00 -3.111551547E+03  3.111551547E+03  0.000000000E+00  0.00000E+00  9.000E+00
      25     1     1     2     0     0 -2.967927057E+01 -1.137835562E+02 -3.166988760E+02  3.602092931E+02  1.250000000E+02  0.00000E+00  9.000E+00
      25     1     1     2     0     0  1.300505383E+02  1.543447516E+02 -2.574712076E+02  3.502168865E+02  1.250000000E+02  0.00000E+00  9.000E+00
       2     1     1     2   502     0 -1.003712677E+02 -4.056119545E+01 -2.468066862E+03  2.470439969E+03  0.000000000E+00  0.00000E+00  9.000E+00
#rwgt            1           1   3.4889367808104622E-002           4      225967           0
</event>
<event>
      5   9999  3.79277E-02  1.88195E+01 -1.00000E+00  1.68579E-01
      21    -1     0     0   502   511  0.000000000E+00  0.000000000E+00  1.147882311E+02  1.147882311E+02  0.000000000E+00  0.00000E+00  9.000E+00
      21    -1     0     0   501   502  0.000000000E+00  0.000000000E+00 -2.158815525E+02  2.158815525E+02  0.000000000E+00  0.00000E+00  9.000E+00
      25     1     1     2     0     0 -5.062635740E+01 -4.317591850E+01 -9.542639211E+01  1.707582628E+02  1.250000000E+02  0.00000E+00  9.000E+00
      25     1     1     2     0     0  3.239529813E+01  4.784512046E+01 -1.567280226E+01  1.385974301E+02  1.250000000E+02  0.00000E+00  9.000E+00
      21     1     1     2   501   511  1.823105926E+01 -4.669201965E+00  1.000587305E+01  2.131409075E+01  3.953724850E-07  0.00000E+00  9.000E+00
#rwgt            1           1   6.3972162248552622E-002           4      226069           0
</event>
<event>
      5   9999  3.79277E-02  3.90499E+01 -1.00000E+00  1.45491E-01
      21    -1     0     0   512   501  0.000000000E+00  0.000000000E+00  2.813473061E+02  2.813473061E+02  0.000000000E+00  0.00000E+00  9.000E+00
      21    -1     0     0   501   502  0.000000000E+00  0.000000000E+00 -1.586197633E+02  1.586197633E+02  0.000000000E+00  0.00000E+00  9.000E+00
      25     1     1     2     0     0  3.179722700E+01  8.026407207E+01 -5.298256131E+01  1.608898279E+02  1.250000000E+02  0.00000E+00  9.000E+00
      25     1     1     2     0     0 -6.138571130E+01 -1.057476502E+02  1.599049289E+02  2.369501157E+02  1.250000000E+02  0.00000E+00  9.000E+00
      21     1     1     2   512   502  2.958848429E+01  2.548357815E+01  1.580517527E+01  4.212712575E+01  7.907449699E-07  0.00000E+00  9.000E+00
#rwgt            1           1   4.2212099424181873E-002           4      226169           0
</event>
<event>
      5   9999 -3.79277E-02  8.52850E+01 -1.00000E+00  1.27019E-01
      21    -1     0     0   502   501  0.000000000E+00  0.000000000E+00  8.117071719E+02  8.117071719E+02  0.000000000E+00  0.00000E+00  9.000E+00
      21    -1     0     0   501   511  0.000000000E+00  0.000000000E+00 -2.569513422E+02  2.569513422E+02  0.000000000E+00  0.00000E+00  9.000E+00
      25     1     1     2     0     0  1.980854220E+02 -2.622565155E+02  3.015984187E+02  4.632525451E+02  1.250000000E+02  0.00000E+00  9.000E+00
      25     1     1     2     0     0 -2.829624122E+02  2.705890931E+02  2.993167374E+02  5.084306179E+02  1.250000000E+02  0.00000E+00  9.000E+00
      21     1     1     2   502   511  8.487699019E+01 -8.332577557E+00 -4.615932635E+01  9.697535110E+01  9.536743164E-07  0.00000E+00  9.000E+00
#rwgt            1           1  -1.6346119204403521E-002           4      226430           0
</event>
<event>
      5   9999  3.79277E-02  4.41431E+01 -1.00000E+00  1.42235E-01
      21    -1     0     0   502   512  0.000000000E+00  0.000000000E+00  6.515412043E+02  6.515412043E+02  0.000000000E+00  0.00000E+00  9.000E+00
      21    -1     0     0   501   502  0.000000000E+00  0.000000000E+00 -1.503625383E+02  1.503625383E+02  0.000000000E+00  0.00000E+00  9.000E+00
      25     1     1     2     0     0 -2.699464287E+01  7.629478990E+01  1.252936390E+02  1.946101274E+02  1.250000000E+02  0.00000E+00  9.000E+00
      25     1     1     2     0     0 -5.173844277E+00 -1.065240029E+02 -5.566865705E+01  1.734881300E+02  1.250000000E+02  0.00000E+00  9.000E+00
      21     1     1     2   501   512  3.216848715E+01  3.022921301E+01  4.315536840E+02  4.338054852E+02  0.000000000E+00  0.00000E+00  9.000E+00
#rwgt            1           1   4.4727710029679527E-002           4      226555           0
</event>
<event>
      5   9999  3.79277E-02  1.91773E+02 -1.00000E+00  1.12316E-01
      21    -1     0     0   502   501  0.000000000E+00  0.000000000E+00  6.502115674E+02  6.502115674E+02  0.000000000E+00  0.00000E+00  9.000E+00
      21    -1     0     0   501   511  0.000000000E+00  0.000000000E+00 -9.132959535E+02  9.132959535E+02  0.000000000E+00  0.00000E+00  9.000E+00
      25     1     1     2     0     0  2.669109252E+01  3.247683500E+02  1.963181322E+02  4.004406381E+02  1.250000000E+02  0.00000E+00  9.000E+00
      25     1     1     2     0     0  1.482777363E+02 -2.462658626E+02  2.670095191E+02  4.117672224E+02  1.250000000E+02  0.00000E+00  9.000E+00
      21     1     1     2   502   511 -1.749688288E+02 -7.850248738E+01 -7.264120375E+02  7.512996604E+02  1.525878906E-05  0.00000E+00  9.000E+00
#rwgt            2          11   3.9329642569740095E-003           4      226648           0
</event>
<event>
      5   9999  3.79277E-02  1.40795E+02 -1.00000E+00  1.17494E-01
      21    -1     0     0   502   501  0.000000000E+00  0.000000000E+00  2.950632858E+03  2.950632858E+03  0.000000000E+00  0.00000E+00  9.000E+00
      21    -1     0     0   512   502  0.000000000E+00  0.000000000E+00 -5.168397950E+02  5.168397950E+02  0.000000000E+00  0.00000E+00  9.000E+00
      25     1     1     2     0     0  2.968242647E+02  4.403131215E+01  1.251131819E+03  1.292671354E+03  1.250000000E+02  0.00000E+00  9.000E+00
      25     1     1     2     0     0 -2.480618948E+02 -1.761130142E+02  1.652194182E+03  1.684613045E+03  1.250000000E+02  0.00000E+00  9.000E+00
      21     1     1     2   512   501 -4.876236993E+01  1.320817021E+02 -4.695329378E+02  4.901882540E+02  1.525878906E-05  0.00000E+00  9.000E+00
#rwgt            1           1   6.0317691796388281E-002           4      226668           0
</event>
<event>
      5   9999  3.79277E-02  8.98038E+01 -1.00000E+00  1.25966E-01
      21    -1     0     0   502   501  0.000000000E+00  0.000000000E+00  7.125905203E+01  7.125905203E+01  0.000000000E+00  0.00000E+00  9.000E+00
       2    -1     0     0   501     0  0.000000000E+00  0.000000000E+00 -2.402216382E+03  2.402216382E+03  0.000000000E+00  0.00000E+00  9.000E+00
      25     1     1     2     0     0  7.961998441E+01 -7.254929367E+01 -5.203996780E+01  1.730199416E+02  1.250000000E+02  0.00000E+00  9.000E+00
      25     1     1     2     0     0 -1.470446190E+02  1.323112435E+01 -1.009653370E+03  1.028018536E+03  1.250000000E+02  0.00000E+00  9.000E+00
       2     1     1     2   502     0  6.742463464E+01  5.931816932E+01 -1.269263992E+03  1.272436956E+03  0.000000000E+00  0.00000E+00  9.000E+00
#rwgt            1           1   4.9178202994905419E-002           4      226757           0
</event>
<event>
      5   9999  3.79277E-02  1.18647E+02 -1.00000E+00  1.20578E-01
      21    -1     0     0   502   501  0.000000000E+00  0.000000000E+00  8.884654153E+02  8.884654153E+02  0.000000000E+00  0.00000E+00  9.000E+00
      21    -1     0     0   511   502  0.000000000E+00  0.000000000E+00 -2.776199789E+02  2.776199789E+02  0.000000000E+00  0.00000E+00  9.000E+00
      25     1     1     2     0     0 -3.819451876E+01 -2.393210934E+01  7.513526749E+02  7.630120636E+02  1.250000000E+02  0.00000E+00  9.000E+00
      25     1     1     2     0     0 -3.770022499E+01 -6.726646055E+01  6.902401566E+01  1.622818487E+02  1.250000000E+02  0.00000E+00  9.000E+00
      21     1     1     2   511   501  7.589474375E+01  9.119856989E+01 -2.095312541E+02  2.407914818E+02  0.000000000E+00  0.00000E+00  9.000E+00
#rwgt            1           1   3.9280229200901670E-002           4      226930           0
</event>
<event>
      5   9999  3.79277E-02  7.08209E+01 -1.00000E+00  1.30965E-01
       1    -1     0     0   502     0  0.000000000E+00  0.000000000E+00  1.071752756E+03  1.071752756E+03  0.000000000E+00  0.00000E+00  9.000E+00
      21    -1     0     0   501   502  0.000000000E+00  0.000000000E+00 -6.139665465E+01  6.139665465E+01  0.000000000E+00  0.00000E+00  9.000E+00
      25     1     1     2     0     0 -6.276608046E+01  1.521066870E+02  3.252583789E+02  3.853492418E+02  1.250000000E+02  0.00000E+00  9.000E+00
      25     1     1     2     0     0  3.262951297E+01 -8.801776050E+01  1.827627567E+02  2.404974771E+02  1.250000000E+02  0.00000E+00  9.000E+00
       1     1     1     2   501     0  3.013656749E+01 -6.408892654E+01  5.023349656E+02  5.073026915E+02  0.000000000E+00  0.00000E+00  9.000E+00
#rwgt            1           1   4.5229051406206637E-002           4      226988           0
</event>
<event>
      5   9999  3.79277E-02  8.84365E+00 -1.00000E+00  2.02136E-01
      21    -1     0     0   502   501  0.000000000E+00  0.000000000E+00  7.667463609E+01  7.667463609E+01  0.000000000E+00  0.00000E+00  9.000E+00
      21    -1     0     0   501   511  0.000000000E+00  0.000000000E+00 -4.029941713E+02  4.029941713E+02  0.000000000E+00  0.00000E+00  9.000E+00
      25     1     1     2     0     0  1.351894576E+01  9.448383954E+01 -1.016752747E+02  1.872773860E+02  1.250000000E+02  0.00000E+00  9.000E+00
      25     1     1     2     0     0 -9.251703541E+00 -1.022298576E+02 -1.612821721E+02  2.284151415E+02  1.250000000E+02  0.00000E+00  9.000E+00
      21     1     1     2   502   511 -4.267242218E+00  7.746018008E+00 -6.336208835E+01  6.397627991E+01  9.536743164E-07  0.00000E+00  9.000E+00
#rwgt            1           1   3.3843422834236365E-002           4      227092           0
</event>
<event>
      5   9999  3.79277E-02  1.17716E+02 -1.00000E+00  1.20724E-01
      21    -1     0     0   512   501  0.000000000E+00  0.000000000E+00  1.443737031E+02  1.443737031E+02  0.000000000E+00  0.00000E+00  9.000E+00
      21    -1     0     0   501   502  0.000000000E+00  0.000000000E+00 -5.635832996E+02  5.635832996E+02  0.000000000E+00  0.00000E+00  9.000E+00
      25     1     1     2     0     0  1.655213552E+02 -5.934501209E+01 -2.259663506E+02  3.124178949E+02  1.250000000E+02  0.00000E+00  9.000E+00
      25     1     1     2     0     0 -9.549415919E+01  1.539670405E+02 -1.632987948E+02  2.740738593E+02  1.250000000E+02  0.00000E+00  9.000E+00
      21     1     1     2   512   502 -7.002719600E+01 -9.462202839E+01 -2.994445121E+01  1.214652485E+02  2.236564522E-06  0.00000E+00  9.000E+00
#rwgt            1           1   1.7858950633539924E-002           4      227372           0
</event>
<event>
      5   9999  3.79277E-02  2.90231E+01 -1.00000E+00  1.54045E-01
      21    -1     0     0   502   501  0.000000000E+00  0.000000000E+00  1.313047892E+03  1.313047892E+03  0.000000000E+00  0.00000E+00  9.000E+00
      21    -1     0     0   511   502  0.000000000E+00  0.000000000E+00 -3.811537904E+01  3.811537904E+01  0.000000000E+00  0.00000E+00  9.000E+00
      25     1     1     2     0     0  7.219322628E+01  1.429917588E+02  4.954654654E+02  5.355086670E+02  1.250000000E+02  0.00000E+00  9.000E+00
      25     1     1     2     0     0 -9.981018154E+01 -1.340672969E+02  7.172744683E+02  7.470232763E+02  1.250000000E+02  0.00000E+00  9.000E+00
      21     1     1     2   511   501  2.761695525E+01 -8.924461905E+00  6.219257922E+01  6.863132774E+01  1.168007728E-06  0.00000E+00  9.000E+00
#rwgt            1           1   3.7450356292655626E-002           4      227471           0
</event>
<event>
      5   9999  3.79277E-02  1.66445E+02 -1.00000E+00  1.14631E-01
      21    -1     0     0   502   512  0.000000000E+00  0.000000000E+00  4.131797035E+02  4.131797035E+02  0.000000000E+00  0.00000E+00  9.000E+00
      21    -1     0     0   501   502  0.000000000E+00  0.000000000E+00 -3.442948558E+02  3.442948558E+02  0.000000000E+00  0.00000E+00  9.000E+00
      25     1     1     2     0     0  2.130279879E+02 -1.128505362E+02  1.309802031E+02  3.014912614E+02  1.250000000E+02  0.00000E+00  9.000E+00
      25     1     1     2     0     0 -6.929647718E+01  1.967853505E+02 -1.305236401E+02  2.760215509E+02  1.250000000E+02  0.00000E+00  9.000E+00
      21     1     1     2   501   512 -1.437315107E+02 -8.393481437E+01  6.842828472E+01  1.799617470E+02  3.438521648E-06  0.00000E+00  9.000E+00
#rwgt            1           1   9.0361416060196084E-002           4      227729           0
</event>
<event>
      5   9999  3.79277E-02  1.63888E+01 -1.00000E+00  1.73836E-01
      21    -1     0     0   502   511  0.000000000E+00  0.000000000E+00  6.204313015E+02  6.204313015E+02  0.000000000E+00  0.00000E+00  9.000E+00
      21    -1     0     0   501   502  0.000000000E+00  0.000000000E+00 -1.107491049E+02  1.107491049E+02  0.000000000E+00  0.00000E+00  9.000E+00
      25     1     1     2     0     0 -2.484640681E+01  2.008605152E+02  1.326503679E+02  2.723663170E+02  1.250000000E+02  0.00000E+00  9.000E+00
      25     1     1     2     0     0  8.819144345E+00 -1.974373560E+02  3.016782904E+02  3.816989360E+02  1.250000000E+02  0.00000E+00  9.000E+00
      21     1     1     2   501   511  1.602726246E+01 -3.423159220E+00  7.535353831E+01  7.711515348E+01  9.536743164E-07  0.00000E+00  9.000E+00
#rwgt            1           1  0.11188672175979789                4      227920           0
</event>
<event>
      5   9999  3.79277E-02  2.02892E+01 -1.00000E+00  1.65856E-01
      21    -1     0     0   502   512  0.000000000E+00  0.000000000E+00  3.031056891E+02  3.031056891E+02  0.000000000E+00  0.00000E+00  9.000E+00
      21    -1     0     0   501   502  0.000000000E+00  0.000000000E+00 -2.242095140E+02  2.242095140E+02  0.000000000E+00  0.00000E+00  9.000E+00
      25     1     1     2     0     0  1.228711320E+02  1.532373559E+02 -7.369364818E+00  2.329341320E+02  1.250000000E+02  0.00000E+00  9.000E+00
      25     1     1     2     0     0 -1.431515522E+02 -1.538344715E+02  4.529859986E+01  2.486651859E+02  1.250000000E+02  0.00000E+00  9.000E+00
      21     1     1     2   501   512  2.028042014E+01  5.971156800E-01  4.096694003E+01  4.571588524E+01  4.768371582E-07  0.00000E+00  9.000E+00
#rwgt            1           1   1.5014495713856556E-002           4      228070           0
</event>
<event>
      5   9999  3.79277E-02  1.02063E+02 -1.00000E+00  1.23430E-01
      21    -1     0     0   502   501  0.000000000E+00  0.000000000E+00  5.544679012E+01  5.544679012E+01  0.000000000E+00  0.00000E+00  9.000E+00
       2    -1     0     0   501     0  0.000000000E+00  0.000000000E+00 -2.770839294E+03  2.770839294E+03  0.000000000E+00  0.00000E+00  9.000E+00
      25     1     1     2     0     0 -8.296641703E+01  1.473963763E+02 -5.812406478E+02  6.181220016E+02  1.250000000E+02  0.00000E+00  9.000E+00
      25     1     1     2     0     0  2.872230568E+01 -2.338513701E+02 -4.662753797E+02  5.371677242E+02  1.250000000E+02  0.00000E+00  9.000E+00
       2     1     1     2   502     0  5.424411135E+01  8.645499377E+01 -1.667876476E+03  1.670996358E+03  2.157918644E-05  0.00000E+00  9.000E+00
#rwgt            1           1   1.8137723850901136E-002           4      228484           0
</event>
<event>
      5   9999  3.79277E-02  2.15671E+02 -1.00000E+00  1.10468E-01
      21    -1     0     0   502   501  0.000000000E+00  0.000000000E+00  1.035050317E+02  1.035050317E+02  0.000000000E+00  0.00000E+00  9.000E+00
       1    -1     0     0   501     0  0.000000000E+00  0.000000000E+00 -2.519355378E+03  2.519355378E+03  0.000000000E+00  0.00000E+00  9.000E+00
      25     1     1     2     0     0  4.730405453E+01 -2.162465501E+02 -1.451910897E+02  2.927553527E+02  1.250000000E+02  0.00000E+00  9.000E+00
      25     1     1     2     0     0  1.682755610E+02  2.225323318E+02 -1.241040663E+03  1.278140927E+03  1.250000000E+02  0.00000E+00  9.000E+00
       1     1     1     2   502     0 -2.155796155E+02 -6.285781675E+00 -1.029618594E+03  1.051964130E+03  1.525878906E-05  0.00000E+00  9.000E+00
#rwgt            2          12   2.5408295910366290E-004           4      228547           0
</event>
<event>
      5   9999  3.79277E-02  1.34729E+01 -1.00000E+00  1.81892E-01
      21    -1     0     0   502   501  0.000000000E+00  0.000000000E+00  2.133377007E+02  2.133377007E+02  0.000000000E+00  0.00000E+00  9.000E+00
      21    -1     0     0   501   511  0.000000000E+00  0.000000000E+00 -1.718230430E+02  1.718230430E+02  0.000000000E+00  0.00000E+00  9.000E+00
      25     1     1     2     0     0  5.024082527E+01  9.567715510E+01 -6.447787615E+00  1.653627301E+02  1.250000000E+02  0.00000E+00  9.000E+00
      25     1     1     2     0     0 -6.367843326E+01 -9.665113816E+01  7.763299784E+01  1.872118258E+02  1.250000000E+02  0.00000E+00  9.000E+00
      21     1     1     2   502   511  1.343760799E+01  9.739830555E-01 -2.967055253E+01  3.258618786E+01  5.840038640E-07  0.00000E+00  9.000E+00
#rwgt            1           1   3.2915268057621044E-002           4      228686           0
</event>
<event>
      5   9999  3.79277E-02  7.13182E+00 -1.00000E+00  2.14415E-01
      21    -1     0     0   502   501  0.000000000E+00  0.000000000E+00  6.981628699E+01  6.981628699E+01  0.000000000E+00  0.00000E+00  9.000E+00
      21    -1     0     0   512   502  0.000000000E+00  0.000000000E+00 -1.292183353E+03  1.292183353E+03  0.000000000E+00  0.00000E+00  9.000E+00
      25     1     1     2     0     0  1.028366988E+02  1.060254054E+02 -9.533667680E+01  2.157101183E+02  1.250000000E+02  0.00000E+00  9.000E+00
      25     1     1     2     0     0 -9.867856478E+01 -1.118196046E+02 -9.825913872E+02  1.001674557E+03  1.250000000E+02  0.00000E+00  9.000E+00
      21     1     1     2   512   501 -4.158133996E+00  5.794199139E+00 -1.444390016E+02  1.446149647E+02  0.000000000E+00  0.00000E+00  9.000E+00
#rwgt            1           1   2.7753064484706293E-002           4      229015           0
</event>
<event>
      5   9999  3.79277E-02  1.26654E+02 -1.00000E+00  1.19382E-01
      21    -1     0     0   511   501  0.000000000E+00  0.000000000E+00  1.146739788E+03  1.146739788E+03  0.000000000E+00  0.00000E+00  9.000E+00
      21    -1     0     0   501   502  0.000000000E+00  0.000000000E+00 -1.423609872E+03  1.423609872E+03  0.000000000E+00  0.00000E+00  9.000E+00
      25     1     1     2     0     0  4.779182317E+01 -2.649033970E+02 -9.207639226E+02  9.674135978E+02  1.250000000E+02  0.00000E+00  9.000E+00
      25     1     1     2     0     0 -1.582103160E+02  2.028625182E+02 -4.328253508E+02  5.187933015E+02  1.250000000E+02  0.00000E+00  9.000E+00
      21     1     1     2   511   502  1.104184928E+02  6.204087874E+01  1.076719189E+03  1.084142761E+03  0.000000000E+00  0.00000E+00  9.000E+00
#rwgt            1           1   3.7271661275159622E-002           4      229350           0
</event>
<event>
      5   9999  3.79277E-02  5.89299E+01 -1.00000E+00  1.35122E-01
      21    -1     0     0   502   501  0.000000000E+00  0.000000000E+00  1.656966640E+03  1.656966640E+03  0.000000000E+00  0.00000E+00  9.000E+00
       2    -1     0     0   501     0  0.000000000E+00  0.000000000E+00 -2.713212954E+03  2.713212954E+03  0.000000000E+00  0.00000E+00  9.000E+00
      25     1     1     2     0     0  9.383081190E+00 -2.678063597E+02  8.600864041E+02  9.094954156E+02  1.250000000E+02  0.00000E+00  9.000E+00
      25     1     1     2     0     0 -4.540026511E+01  2.211641815E+02  7.502787225E+02  7.934216664E+02  1.250000000E+02  0.00000E+00  9.000E+00
       2     1     1     2   502     0  3.601718392E+01  4.664217822E+01 -2.666611441E+03  2.667262512E+03  4.315837288E-05  0.00000E+00  9.000E+00
#rwgt            1           1   4.0967619975158596E-002           4      229533           0
</event>
<event>
      5   9999  3.79277E-02  1.83540E+01 -1.00000E+00  1.69506E-01
      21    -1     0     0   511   501  0.000000000E+00  0.000000000E+00  2.845323708E+02  2.845323708E+02  0.000000000E+00  0.00000E+00  9.000E+00
      21    -1     0     0   501   502  0.000000000E+00  0.000000000E+00 -3.140663716E+02  3.140663716E+02  0.000000000E+00  0.00000E+00  9.000E+00
      25     1     1     2     0     0 -2.116460800E+02 -1.224163863E+02 -5.521472836E+01  2.800955213E+02  1.250000000E+02  0.00000E+00  9.000E+00
      25     1     1     2     0     0  2.218884788E+02  1.071860113E+02 -1.201871088E+01  2.765732949E+02  1.250000000E+02  0.00000E+00  9.000E+00
      21     1     1     2   511   502 -1.024239883E+01  1.523037499E+01  3.769943838E+01  4.192992619E+01  4.768371582E-07  0.00000E+00  9.000E+00
#rwgt            1           1   3.9248742071251383E-002           4      229615           0
</event>
<event>
      5   9999  3.79277E-02  9.01088E+01 -1.00000E+00  1.25897E-01
      21    -1     0     0   502   501  0.000000000E+00  0.000000000E+00  1.148972401E+02  1.148972401E+02  0.000000000E+00  0.00000E+00  9.000E+00
      21    -1     0     0   501   512  0.000000000E+00  0.000000000E+00 -4.453940387E+02  4.453940387E+02  0.000000000E+00  0.00000E+00  9.000E+00
      25     1     1     2     0     0  7.127621111E+01 -4.156359482E+01 -9.480198214E+01  1.772575711E+02  1.250000000E+02  0.00000E+00  9.000E+00
      25     1     1     2     0     0 -1.585575283E+02  6.395943635E+01 -1.678018784E+02  2.702106025E+02  1.250000000E+02  0.00000E+00  9.000E+00
      21     1     1     2   502   512  8.728131720E+01 -2.239584153E+01 -6.789293806E+01  1.128231053E+02  2.132480600E-06  0.00000E+00  9.000E+00
#rwgt            1           1   3.3141142465261939E-002           4      229908           0
</event>
<event>
      5   9999  3.79277E-02  3.14330E+01 -1.00000E+00  1.51646E-01
      21    -1     0     0   511   501  0.000000000E+00  0.000000000E+00  3.157435525E+02  3.157435525E+02  0.000000000E+00  0.00000E+00  9.000E+00
      21    -1     0     0   501   502  0.000000000E+00  0.000000000E+00 -4.149838427E+02  4.149838427E+02  0.000000000E+00  0.00000E+00  9.000E+00
      25     1     1     2     0     0 -2.719849715E+02  1.287260631E+02  3.292486502E+01  3.274985050E+02  1.250000000E+02  0.00000E+00  9.000E+00
      25     1     1     2     0     0  2.965469750E+02 -1.091112292E+02 -1.447702044E+02  3.693626683E+02  1.250000000E+02  0.00000E+00  9.000E+00
      21     1     1     2   511   502 -2.456200350E+01 -1.961483390E+01  1.260504913E+01  3.386622194E+01  4.768371582E-07  0.00000E+00  9.000E+00
#rwgt            1           1   4.4491046159042015E-002           4      230083           0
</event>
<event>
      5   9999  3.79277E-02  1.83963E+01 -1.00000E+00  1.69421E-01
      21    -1     0     0   512   501  0.000000000E+00  0.000000000E+00  5.605990257E+02  5.605990257E+02  0.000000000E+00  0.00000E+00  9.000E+00
      21    -1     0     0   501   502  0.000000000E+00  0.000000000E+00 -1.206615961E+02  1.206615961E+02  0.000000000E+00  0.00000E+00  9.000E+00
      25     1     1     2     0     0  2.922316289E+01  1.380450828E+02  4.019672135E+02  4.439741872E+02  1.250000000E+02  0.00000E+00  9.000E+00
      25     1     1     2     0     0 -3.740444981E+01 -1.215681640E+02 -1.717005415E+01  1.791583716E+02  1.250000000E+02  0.00000E+00  9.000E+00
      21     1     1     2   512   502  8.181286921E+00 -1.647691880E+01  5.514027020E+01  5.812806299E+01  9.536743164E-07  0.00000E+00  9.000E+00
#rwgt            1           1   3.2699367759186339E-002           4      230248           0
</event>
<event>
      5   9999  3.79277E-02  1.03461E+01 -1.00000E+00  1.94064E-01
      21    -1     0     0   502   501  0.000000000E+00  0.000000000E+00  2.055471202E+02  2.055471202E+02  0.000000000E+00  0.00000E+00  9.000E+00
      21    -1     0     0   511   502  0.000000000E+00  0.000000000E+00 -1.782497662E+02  1.782497662E+02  0.000000000E+00  0.00000E+00  9.000E+00
      25     1     1     2     0     0  1.925004397E+01  9.124640718E+01 -5.289767884E+01  1.646804039E+02  1.250000000E+02  0.00000E+00  9.000E+00
      25     1     1     2     0     0 -2.956976311E+01 -9.198454222E+01  1.067127858E+02  1.906518963E+02  1.250000000E+02  0.00000E+00  9.000E+00
      21     1     1     2   511   501  1.031971914E+01  7.381350408E-01 -2.651775295E+01  2.846458621E+01  3.371747881E-07  0.00000E+00  9.000E+00
#rwgt            1           1   3.4965425226218434E-002           4      230396           0
</event>
<event>
      5   9999  3.79277E-02  3.40484E+01 -1.00000E+00  1.49317E-01
      21    -1     0     0   502   501  0.000000000E+00  0.000000000E+00  1.951210783E+02  1.951210783E+02  0.000000000E+00  0.00000E+00  9.000E+00
      21    -1     0     0   501   512  0.000000000E+00  0.000000000E+00 -4.682172749E+02  4.682172749E+02  0.000000000E+00  0.00000E+00  9.000E+00
      25     1     1     2     0     0 -1.764824872E+02 -4.349788110E+00  6.648956482E+01  2.262981466E+02  1.250000000E+02  0.00000E+00  9.000E+00
      25     1     1     2     0     0  1.469298288E+02 -1.255982430E+01 -1.507143672E+02  2.451243445E+02  1.250000000E+02  0.00000E+00  9.000E+00
      21     1     1     2   502   512  2.955265836E+01  1.690961241E+01 -1.888713941E+02  1.919158621E+02  2.697398305E-06  0.00000E+00  9.000E+00
#rwgt            1           1   1.5735222254855710E-002           4      230598           0
</event>
<event>
      5   9999  3.79277E-02  4.34857E+01 -1.00000E+00  1.42625E-01
      21    -1     0     0   511   501  0.000000000E+00  0.000000000E+00  1.550568321E+02  1.550568321E+02  0.000000000E+00  0.00000E+00  9.000E+00
      21    -1     0     0   501   502  0.000000000E+00  0.000000000E+00 -4.793075665E+02  4.793075665E+02  0.000000000E+00  0.00000E+00  9.000E+00
      25     1     1     2     0     0 -4.310127510E+01  1.049009984E+02 -3.860379049E+02  4.213219712E+02  1.250000000E+02  0.00000E+00  9.000E+00
      25     1     1     2     0     0  3.045128114E+01 -6.329586121E+01  7.627789540E+00  1.435856182E+02  1.250000000E+02  0.00000E+00  9.000E+00
      21     1     1     2   511   502  1.264999396E+01 -4.160513716E+01  5.415938105E+01  6.945680917E+01  1.168007728E-06  0.00000E+00  9.000E+00
#rwgt            1           1   3.7174742297612605E-002           4      230773           0
</event>
<event>
      5   9999  3.79277E-02  2.70959E+01 -1.00000E+00  1.56176E-01
       1    -1     0     0   502     0  0.000000000E+00  0.000000000E+00  2.127717070E+02  2.127717070E+02  0.000000000E+00  0.00000E+00  9.000E+00
      21    -1     0     0   501   502  0.000000000E+00  0.000000000E+00 -2.529380670E+02  2.529380670E+02  0.000000000E+00  0.00000E+00  9.000E+00
      25     1     1     2     0     0  8.426534027E+01 -8.457131331E+01 -6.154694847E+01  1.834829187E+02  1.250000000E+02  0.00000E+00  9.000E+00
      25     1     1     2     0     0 -9.580633792E+01  1.090865090E+02 -5.652245304E+01  1.997461101E+02  1.250000000E+02  0.00000E+00  9.000E+00
       1     1     1     2   501     0  1.154099765E+01 -2.451519565E+01  7.790304145E+01  8.248074509E+01  1.348699152E-06  0.00000E+00  9.000E+00
#rwgt            1           1   3.6623572102365304E-002           4      231102           0
</event>
<event>
      5   9999  3.79277E-02  4.07664E+01 -1.00000E+00  1.44331E-01
      21    -1     0     0   502   501  0.000000000E+00  0.000000000E+00  3.970881978E+02  3.970881978E+02  0.000000000E+00  0.00000E+00  9.000E+00
      21    -1     0     0   501   511  0.000000000E+00  0.000000000E+00 -2.711036781E+02  2.711036781E+02  0.000000000E+00  0.00000E+00  9.000E+00
      25     1     1     2     0     0  3.381988127E+01  2.052184710E+02  1.239834526E+02  2.724982600E+02  1.250000000E+02  0.00000E+00  9.000E+00
      25     1     1     2     0     0 -7.426583314E+01 -2.001167356E+02  1.170348205E+02  2.736499059E+02  1.250000000E+02  0.00000E+00  9.000E+00
      21     1     1     2   502   511  4.044595187E+01 -5.101735437E+00 -1.150337534E+02  1.220437100E+02  2.336015456E-06  0.00000E+00  9.000E+00
#rwgt            1           1   3.1013899399815720E-002           4      231311           0
</event>
<event>
      5   9999  3.79277E-02  4.00647E+01 -1.00000E+00  1.44797E-01
      21    -1     0     0   502   501  0.000000000E+00  0.000000000E+00  4.720208550E+02  4.720208550E+02  0.000000000E+00  0.00000E+00  9.000E+00
      21    -1     0     0   501   512  0.000000000E+00  0.000000000E+00 -3.830074420E+02  3.830074420E+02  0.000000000E+00  0.00000E+00  9.000E+00
      25     1     1     2     0     0 -1.131595760E+02  1.758127799E+02  1.639789189E+02  2.936482743E+02  1.250000000E+02  0.00000E+00  9.000E+00
      25     1     1     2     0     0  8.204684422E+01 -2.010552027E+02  1.766658807E+02  3.065790479E+02  1.250000000E+02  0.00000E+00  9.000E+00
      21     1     1     2   502   512  3.111273173E+01  2.524242288E+01 -2.516313866E+02  2.548009747E+02  2.697398305E-06  0.00000E+00  9.000E+00
#rwgt            1           1   3.7127404562901520E-002           4      231515           0
</event>
<event>
      5   9999  3.79277E-02  1.97418E+01 -1.00000E+00  1.66836E-01
      21    -1     0     0   502   501  0.000000000E+00  0.000000000E+00  1.240003321E+03  1.240003321E+03  0.000000000E+00  0.00000E+00  9.000E+00
      21    -1     0     0   511   502  0.000000000E+00  0.000000000E+00 -3.264933423E+01  3.264933423E+01  0.000000000E+00  0.00000E+00  9.000E+00
      25     1     1     2     0     0 -1.109254870E+02  7.955155376E+01  7.004075938E+02  7.244506269E+02  1.250000000E+02  0.00000E+00  9.000E+00
      25     1     1     2     0     0  9.347603835E+01 -8.878486312E+01  4.910577738E+02  5.228606496E+02  1.250000000E+02  0.00000E+00  9.000E+00
      21     1     1     2   511   501  1.744944868E+01  9.233309363E+00  1.588861933E+01  2.534137892E+01  5.591411304E-07  0.00000E+00  9.000E+00
#rwgt            1           1   4.4926336310817966E-002           4      231677           0
</event>
<event>
      5   9999  3.79277E-02  5.75800E+00 -1.00000E+00  2.28285E-01
      21    -1     0     0   502   501  0.000000000E+00  0.000000000E+00  8.377952446E+02  8.377952446E+02  0.000000000E+00  0.00000E+00  9.000E+00
      21    -1     0     0   501   512  0.000000000E+00  0.000000000E+00 -7.572944866E+01  7.572944866E+01  0.000000000E+00  0.00000E+00  9.000E+00
      25     1     1     2     0     0 -1.304630657E+02  2.640328089E+01  1.029677814E+02  2.096308869E+02  1.250000000E+02  0.00000E+00  9.000E+00
      25     1     1     2     0     0  1.247148892E+02 -2.606709436E+01  6.690209026E+02  6.924213061E+02  1.250000000E+02  0.00000E+00  9.000E+00
      21     1     1     2   502   512  5.748176487E+00 -3.361865304E-01 -9.922888070E+00  1.147250025E+01  3.371747881E-07  0.00000E+00  9.000E+00
#rwgt            1           1   3.4877538124371478E-002           4      231989           0
</event>
<event>
      5   9999  3.79277E-02  4.47530E+01  7.55638E-03  1.41879E-01
       2    -1     0     0   501     0  0.000000000E+00  0.000000000E+00  3.999776229E+02  3.999776229E+02  0.000000000E+00  0.00000E+00  9.000E+00
      -2    -1     0     0     0   502  0.000000000E+00  0.000000000E+00 -1.561918256E+02  1.561918256E+02  0.000000000E+00  0.00000E+00  9.000E+00
      25     1     1     2     0     0  1.119116505E+02  1.251746537E+00  3.823006438E+01  1.720823123E+02  1.250000000E+02  0.00000E+00  9.000E+00
      25     1     1     2     0     0 -1.263918835E+02 -4.359741475E+01  9.814182856E+00  1.832947380E+02  1.250000000E+02  0.00000E+00  9.000E+00
      21     1     1     2   501   502  1.448023299E+01  4.234566822E+01  1.957415501E+02  2.007923982E+02  2.697398305E-06  0.00000E+00  9.000E+00
#rwgt            3           7   2.2960574767233923E-005           4      232468           0
</event>
<event>
      5   9999  3.79277E-02  6.76132E+01 -1.00000E+00  1.31988E-01
      21    -1     0     0   502   501  0.000000000E+00  0.000000000E+00  1.700075889E+03  1.700075889E+03  0.000000000E+00  0.00000E+00  9.000E+00
      21    -1     0     0   501   511  0.000000000E+00  0.000000000E+00 -5.475282235E+01  5.475282235E+01  0.000000000E+00  0.00000E+00  9.000E+00
      25     1     1     2     0     0 -1.557476320E+02  1.407164940E+02  6.709779487E+02  7.140692292E+02  1.250000000E+02  0.00000E+00  9.000E+00
      25     1     1     2     0     0  1.484376571E+02 -7.349958574E+01  9.441940689E+02  9.667281763E+02  1.250000000E+02  0.00000E+00  9.000E+00
      21     1     1     2   502   511  7.309974963E+00 -6.721690824E+01  3.015104923E+01  7.403130592E+01  1.815741803E-06  0.00000E+00  9.000E+00
#rwgt            1           1   2.6914868861587470E-002           4      232547           0
</event>
<event>
      5   9999  3.79277E-02  2.32262E+01 -1.00000E+00  1.61183E-01
      21    -1     0     0   512   501  0.000000000E+00  0.000000000E+00  1.262076604E+03  1.262076604E+03  0.000000000E+00  0.00000E+00  9.000E+00
      21    -1     0     0   501   502  0.000000000E+00  0.000000000E+00 -3.161944951E+02  3.161944951E+02  0.000000000E+00  0.00000E+00  9.000E+00
      25     1     1     2     0     0 -2.263078636E+02 -1.011251546E+02  1.760403548E+01  2.781662239E+02  1.250000000E+02  0.00000E+00  9.000E+00
      25     1     1     2     0     0  2.218236861E+02  7.833592466E+01 -9.028246692E+01  2.812795560E+02  1.250000000E+02  0.00000E+00  9.000E+00
      21     1     1     2   512   502  4.484177582E+00  2.278922993E+01  1.018560541E+03  1.018825319E+03  0.000000000E+00  0.00000E+00  9.000E+00
#rwgt            1           1   3.3679121544134862E-002           4      232654           0
</event>
<event>
      5   9999  3.79277E-02  9.73670E+01 -1.00000E+00  1.24351E-01
       1    -1     0     0   502     0  0.000000000E+00  0.000000000E+00  2.268147309E+02  2.268147309E+02  0.000000000E+00  0.00000E+00  9.000E+00
      21    -1     0     0   501   502  0.000000000E+00  0.000000000E+00 -5.901067218E+02  5.901067218E+02  0.000000000E+00  0.00000E+00  9.000E+00
      25     1     1     2     0     0  1.895871417E+02 -5.026605683E+01 -2.944779371E+02  3.752495386E+02  1.250000000E+02  0.00000E+00  9.000E+00
      25     1     1     2     0     0 -1.077729600E+02  1.030559366E+02 -1.995166598E+02  2.786887771E+02  1.250000000E+02  0.00000E+00  9.000E+00
       1     1     1     2   501     0 -8.181418170E+01 -5.278987976E+01  1.307026060E+02  1.629831370E+02  1.907348633E-06  0.00000E+00  9.000E+00
#rwgt            1           1   6.5862555047366735E-003           4      233154           0
</event>
<event>
      5   9999  3.79277E-02  1.60075E+01 -1.00000E+00  1.74765E-01
      21    -1     0     0   511   501  0.000000000E+00  0.000000000E+00  8.938123436E+02  8.938123436E+02  0.000000000E+00  0.00000E+00  9.000E+00
      21    -1     0     0   501   502  0.000000000E+00  0.000000000E+00 -6.652167866E+01  6.652167866E+01  0.000000000E+00  0.00000E+00  9.000E+00
      25     1     1     2     0     0  1.804913726E+02 -7.837236903E+01  4.556327941E+02  5.118062200E+02  1.250000000E+02  0.00000E+00  9.000E+00
      25     1     1     2     0     0 -1.845855121E+02  6.289729968E+01  3.242160488E+02  3.984581884E+02  1.250000000E+02  0.00000E+00  9.000E+00
      21     1     1     2   511   502  4.094139495E+00  1.547506935E+01  4.744182210E+01  5.006961388E+01  0.000000000E+00  0.00000E+00  9.000E+00
#rwgt            1           1   3.9191051637931643E-002           4      233429           0
</event>
<event>
      5   9999  3.79277E-02  2.83854E+01 -1.00000E+00  1.54728E-01
      21    -1     0     0   502   501  0.000000000E+00  0.000000000E+00  3.166348144E+02  3.166348144E+02  0.000000000E+00  0.00000E+00  9.000E+00
       3    -1     0     0   501     0  0.000000000E+00  0.000000000E+00 -4.420813246E+02  4.420813246E+02  0.000000000E+00  0.00000E+00  9.000E+00
      25     1     1     2     0     0  9.468363133E+01  8.189804668E+00  2.288485222E+02  2.775404638E+02  1.250000000E+02  0.00000E+00  9.000E+00
      25     1     1     2     0     0 -9.672403842E+01  2.012215559E+01 -3.824558599E+01  1.638540985E+02  1.250000000E+02  0.00000E+00  9.000E+00
       3     1     1     2   502     0  2.040407091E+00 -2.831196026E+01 -3.160494464E+02  3.173215766E+02  5.394796609E-06  0.00000E+00  9.000E+00
#rwgt            1           1   3.4763902489670817E-002           4      233712           0
</event>
<event>
      5   9999  3.79277E-02  8.73353E+01 -1.00000E+00  1.26532E-01
      21    -1     0     0   502   501  0.000000000E+00  0.000000000E+00  1.947294530E+02  1.947294530E+02  0.000000000E+00  0.00000E+00  9.000E+00
      21    -1     0     0   511   502  0.000000000E+00  0.000000000E+00 -8.687000989E+02  8.687000989E+02  0.000000000E+00  0.00000E+00  9.000E+00
      25     1     1     2     0     0 -2.839810357E+00  1.088708052E+02 -3.566730903E+02  3.933212556E+02  1.250000000E+02  0.00000E+00  9.000E+00
      25     1     1     2     0     0 -2.245975995E+01 -2.528020094E+01  1.480184628E+02  1.966672182E+02  1.250000000E+02  0.00000E+00  9.000E+00
      21     1     1     2   511   501  2.529957030E+01 -8.359060423E+01 -4.653160184E+02  4.734410780E+02  7.629394531E-06  0.00000E+00  9.000E+00
#rwgt            1           1   6.1569260034796840E-002           4      234048           0
</event>
<event>
      5   9999 -3.79277E-02  1.74047E+01 -1.00000E+00  1.71509E-01
      21    -1     0     0   502   512  0.000000000E+00  0.000000000E+00  1.827994847E+02  1.827994847E+02  0.000000000E+00  0.00000E+00  9.000E+00
      21    -1     0     0   501   502  0.000000000E+00  0.000000000E+00 -2.337742513E+02  2.337742513E+02  0.000000000E+00  0.00000E+00  9.000E+00
      25     1     1     2     0     0 -8.171803154E+01  1.326924384E+02 -1.275786111E+01  2.001821244E+02  1.250000000E+02  0.00000E+00  9.000E+00
      25     1     1     2     0     0  8.457823984E+01 -1.155244114E+02 -4.852854522E+01  1.961616374E+02  1.250000000E+02  0.00000E+00  9.000E+00
      21     1     1     2   501   512 -2.860208299E+00 -1.716802706E+01  1.031163980E+01  2.022997430E+01  5.717076687E-07  0.00000E+00  9.000E+00
#rwgt            1           1 -0.24391868783605658                4      234206           0
</event>
<event>
      5   9999  3.79277E-02  6.76489E+00 -1.00000E+00  2.17672E-01
      21    -1     0     0   502   501  0.000000000E+00  0.000000000E+00  2.179537390E+01  2.179537390E+01  0.000000000E+00  0.00000E+00  9.000E+00
      21    -1     0     0   511   502  0.000000000E+00  0.000000000E+00 -2.621596721E+03  2.621596721E+03  0.000000000E+00  0.00000E+00  9.000E+00
      25     1     1     2     0     0 -1.612898422E+02 -2.106667941E+01 -1.160369778E+03  1.178363798E+03  1.250000000E+02  0.00000E+00  9.000E+00
      25     1     1     2     0     0  1.661446869E+02  1.635560555E+01 -8.381365050E+02  8.636951800E+02  1.250000000E+02  0.00000E+00  9.000E+00
      21     1     1     2   511   501 -4.854844747E+00  4.711073855E+00 -6.012950642E+02  6.013331173E+02  1.078959322E-05  0.00000E+00  9.000E+00
#rwgt            1           1   8.3713726948574763E-002           4      234415           0
</event>
<event>
      5   9999  3.79277E-02  1.67852E+02 -1.00000E+00  1.14490E-01
      21    -1     0     0   512   501  0.000000000E+00  0.000000000E+00  1.624312293E+02  1.624312293E+02  0.000000000E+00  0.00000E+00  9.000E+00
      21    -1     0     0   501   502  0.000000000E+00  0.000000000E+00 -1.159518109E+03  1.159518109E+03  0.000000000E+00  0.00000E+00  9.000E+00
      25     1     1     2     0     0 -5.186579049E+01  1.964443774E+02 -3.000353683E+02  3.833101562E+02  1.250000000E+02  0.00000E+00  9.000E+00
      25     1     1     2     0     0  7.437606986E+01 -3.010836571E+01 -7.484867349E+02  7.630830267E+02  1.250000000E+02  0.00000E+00  9.000E+00
      21     1     1     2   512   502 -2.251027937E+01 -1.663360117E+02  5.143522343E+01  1.755561553E+02  4.720447033E-06  0.00000E+00  9.000E+00
#rwgt            1           1   3.5919896863246210E-002           4      234732           0
</event>
<event>
      5   9999  3.79277E-02  1.34657E+02 -1.00000E+00  1.18282E-01
      21    -1     0     0   502   511  0.000000000E+00  0.000000000E+00  1.871085387E+03  1.871085387E+03  0.000000000E+00  0.00000E+00  9.000E+00
      21    -1     0     0   501   502  0.000000000E+00  0.000000000E+00 -4.129225081E+01  4.129225081E+01  0.000000000E+00  0.00000E+00  9.000E+00
      25     1     1     2     0     0 -7.744328476E+01  2.089405462E+01  4.001308995E+02  4.268064674E+02  1.250000000E+02  0.00000E+00  9.000E+00
      25     1     1     2     0     0  1.847207601E+02  6.049415535E+01  5.641839974E+02  6.096801498E+02  1.250000000E+02  0.00000E+00  9.000E+00
      21     1     1     2   501   511 -1.072774754E+02 -8.138820997E+01  8.654782397E+02  8.758910211E+02  0.000000000E+00  0.00000E+00  9.000E+00
#rwgt            1           1  0.13818006972849639                4      234786           0
</event>
<event>
      5   9999  3.79277E-02  2.78135E+01 -1.00000E+00  1.55358E-01
      21    -1     0     0   502   501  0.000000000E+00  0.000000000E+00  6.485052100E+01  6.485052100E+01  0.000000000E+00  0.00000E+00  9.000E+00
      21    -1     0     0   501   512  0.000000000E+00  0.000000000E+00 -1.529924540E+03  1.529924540E+03  0.000000000E+00  0.00000E+00  9.000E+00
      25     1     1     2     0     0 -6.306160762E+01  2.387388787E+02 -3.728583148E+02  4.643504511E+02  1.250000000E+02  0.00000E+00  9.000E+00
      25     1     1     2     0     0  7.804617604E+01 -2.153069421E+02 -9.328397641E+02  9.686399282E+02  1.250000000E+02  0.00000E+00  9.000E+00
      21     1     1     2   502   512 -1.498456842E+01 -2.343193666E+01 -1.593759404E+02  1.617846820E+02  0.000000000E+00  0.00000E+00  9.000E+00
#rwgt            1           1   4.1779226979759651E-002           4      234907           0
</event>
<event>
      5   9999  3.79277E-02  1.81683E+01 -1.00000E+00  1.69886E-01
      21    -1     0     0   502   511  0.000000000E+00  0.000000000E+00  1.968032487E+02  1.968032487E+02  0.000000000E+00  0.00000E+00  9.000E+00
      21    -1     0     0   501   502  0.000000000E+00  0.000000000E+00 -2.342845772E+02  2.342845772E+02  0.000000000E+00  0.00000E+00  9.000E+00
      25     1     1     2     0     0  9.016271853E+01 -6.498813566E+01 -1.392543395E+02  2.176454563E+02  1.250000000E+02  0.00000E+00  9.000E+00
      25     1     1     2     0     0 -7.219188481E+01  6.765927853E+01  6.449195847E+01  1.719699361E+02  1.250000000E+02  0.00000E+00  9.000E+00
      21     1     1     2   501   511 -1.797083372E+01 -2.671142874E+00  3.728105246E+01  4.147243351E+01  6.743495762E-07  0.00000E+00  9.000E+00
#rwgt            1           1   3.0434296127478142E-002           4      235005           0
</event>
<event>
      5   9999  3.79277E-02  6.09907E+01 -1.00000E+00  1.34324E-01
      21    -1     0     0   502   501  0.000000000E+00  0.000000000E+00  1.176446554E+03  1.176446554E+03  0.000000000E+00  0.00000E+00  9.000E+00
      21    -1     0     0   512   502  0.000000000E+00  0.000000000E+00 -5.750962434E+02  5.750962434E+02  0.000000000E+00  0.00000E+00  9.000E+00
      25     1     1     2     0     0  5.918508259E+01 -1.075231415E+02  3.477758548E+02  3.894061442E+02  1.250000000E+02  0.00000E+00  9.000E+00
      25     1     1     2     0     0 -9.839873782E+01  6.080958630E+01  7.971551390E+02  8.151450381E+02  1.250000000E+02  0.00000E+00  9.000E+00
      21     1     1     2   512   501  3.921365524E+01  4.671355519E+01 -5.435806836E+02  5.469916147E+02  0.000000000E+00  0.00000E+00  9.000E+00
#rwgt            1           1   4.3849744935891409E-002           4      235145           0
</event>
<event>
      5   9999  3.79277E-02  9.44550E+01 -1.00000E+00  1.24953E-01
      21    -1     0     0   511   501  0.000000000E+00  0.000000000E+00  8.005174013E+01  8.005174013E+01  0.000000000E+00  0.00000E+00  9.000E+00
      21    -1     0     0   501   502  0.000000000E+00  0.000000000E+00 -9.215220518E+02  9.215220518E+02  0.000000000E+00  0.00000E+00  9.000E+00
      25     1     1     2     0     0 -4.608106103E+01 -9.129127959E+01 -6.372322597E+02  6.573792777E+02  1.250000000E+02  0.00000E+00  9.000E+00
      25     1     1     2     0     0 -4.295194932E+01  1.228327663E+02 -1.131886388E+02  2.130010009E+02  1.250000000E+02  0.00000E+00  9.000E+00
      21     1     1     2   511   502  8.903301035E+01 -3.154148670E+01 -9.104941314E+01  1.311935134E+02  1.348699152E-06  0.00000E+00  9.000E+00
#rwgt            1           1   4.0287863384542176E-002           4      235201           0
</event>
<event>
      5   9999  3.79277E-02  2.53892E+01 -1.00000E+00  1.58250E-01
      21    -1     0     0   512   501  0.000000000E+00  0.000000000E+00  2.350824278E+02  2.350824278E+02  0.000000000E+00  0.00000E+00  9.000E+00
      21    -1     0     0   501   502  0.000000000E+00  0.000000000E+00 -9.437243162E+02  9.437243162E+02  0.000000000E+00  0.00000E+00  9.000E+00
      25     1     1     2     0     0 -7.642564976E+01  1.364784225E+02 -7.474886604E+02  7.738420622E+02  1.250000000E+02  0.00000E+00  9.000E+00
      25     1     1     2     0     0  5.808806293E+01 -1.189187410E+02 -1.366586520E+02  2.276323290E+02  1.250000000E+02  0.00000E+00  9.000E+00
      21     1     1     2   512   502  1.833758683E+01 -1.755968147E+01  1.755054241E+02  1.773323529E+02  5.722045898E-06  0.00000E+00  9.000E+00
#rwgt            1           1   3.6595938336102612E-002           4      235272           0
</event>
<event>
      5   9999  3.79277E-02  7.21822E+01 -1.00000E+00  1.30549E-01
      21    -1     0     0   502   501  0.000000000E+00  0.000000000E+00  4.115828257E+02  4.115828257E+02  0.000000000E+00  0.00000E+00  9.000E+00
       2    -1     0     0   501     0  0.000000000E+00  0.000000000E+00 -1.266990413E+02  1.266990413E+02  0.000000000E+00  0.00000E+00  9.000E+00
      25     1     1     2     0     0 -1.029977616E+02  1.186799290E+02  1.748373267E+02  2.662452915E+02  1.250000000E+02  0.00000E+00  9.000E+00
      25     1     1     2     0     0  4.412302354E+01 -7.691832698E+01  1.256558382E+02  1.981859225E+02  1.250000000E+02  0.00000E+00  9.000E+00
       2     1     1     2   502     0  5.887473811E+01 -4.176160199E+01 -1.560938050E+01  7.385065300E+01  2.384185791E-07  0.00000E+00  9.000E+00
#rwgt            1           1   3.6786641059796461E-002           4      235425           0
</event>
<event>
      5   9999  3.79277E-02  1.49123E+02 -1.00000E+00  1.16495E-01
      21    -1     0     0   502   511  0.000000000E+00  0.000000000E+00  3.752230239E+02  3.752230239E+02  0.000000000E+00  0.00000E+00  9.000E+00
      21    -1     0     0   501   502  0.000000000E+00  0.000000000E+00 -6.094243411E+02  6.094243411E+02  0.000000000E+00  0.00000E+00  9.000E+00
      25     1     1     2     0     0 -1.340387577E+02 -6.914307926E+01 -1.079685050E+02  2.236724213E+02  1.250000000E+02  0.00000E+00  9.000E+00
      25     1     1     2     0     0  5.862854968E+01 -5.950747920E+01 -4.120353371E+02  4.386075307E+02  1.250000000E+02  0.00000E+00  9.000E+00
      21     1     1     2   501   511  7.541020804E+01  1.286505585E+02  2.858025250E+02  3.223674130E+02  5.394796609E-06  0.00000E+00  9.000E+00
#rwgt            1           1   4.2123461458226673E-002           4      235553           0
</event>
<event>
      5   9999  3.79277E-02  1.48922E+02 -1.00000E+00  1.16518E-01
      21    -1     0     0   502   512  0.000000000E+00  0.000000000E+00  5.311396193E+02  5.311396193E+02  0.000000000E+00  0.00000E+00  9.000E+00
      21    -1     0     0   501   502  0.000000000E+00  0.000000000E+00 -1.773904866E+02  1.773904866E+02  0.000000000E+00  0.00000E+00  9.000E+00
      25     1     1     2     0     0  3.125942347E+01 -9.932170512E+01  3.155538097E+02  3.550227591E+02  1.250000000E+02  0.00000E+00  9.000E+00
      25     1     1     2     0     0  9.061585500E+00 -4.403797476E+01 -8.713305886E+01  1.588666910E+02  1.250000000E+02  0.00000E+00  9.000E+00
      21     1     1     2   501   512 -4.032100897E+01  1.433596799E+02  1.253283819E+02  1.946406558E+02  2.697398305E-06  0.00000E+00  9.000E+00
#rwgt            1           1   8.4814277755409194E-003           4      235702           0
</event>
<event>
      5   9999  3.79277E-02  8.61716E+00 -1.00000E+00  2.03538E-01
      21    -1     0     0   502   501  0.000000000E+00  0.000000000E+00  4.792272345E+02  4.792272345E+02  0.000000000E+00  0.00000E+00  9.000E+00
      21    -1     0     0   511   502  0.000000000E+00  0.000000000E+00 -8.422073636E+01  8.422073636E+01  0.000000000E+00  0.00000E+00  9.000E+00
      25     1     1     2     0     0 -8.613572214E+01  7.550792630E+01  2.664621410E+02  3.158288811E+02  1.250000000E+02  0.00000E+00  9.000E+00
      25     1     1     2     0     0  8.070758895E+01 -8.220052542E+01  1.486053077E+02  2.257856922E+02  1.250000000E+02  0.00000E+00  9.000E+00
      21     1     1     2   511   501  5.428133182E+00  6.692599117E+00 -2.006095058E+01  2.183339760E+01  4.129530925E-07  0.00000E+00  9.000E+00
#rwgt            1           1   3.8900273668433391E-002           4      235850           0
</event>
<event>
      5   9999  3.79277E-02  6.91592E+01 -1.00000E+00  1.31487E-01
      21    -1     0     0   502   501  0.000000000E+00  0.000000000E+00  3.284848610E+02  3.284848610E+02  0.000000000E+00  0.00000E+00  9.000E+00
      21    -1     0     0   512   502  0.000000000E+00  0.000000000E+00 -1.718072691E+02  1.718072691E+02  0.000000000E+00  0.00000E+00  9.000E+00
      25     1     1     2     0     0 -1.109444253E+02 -9.373494581E+01  1.889076228E+02  2.690836218E+02  1.250000000E+02  0.00000E+00  9.000E+00
      25     1     1     2     0     0  9.410485298E+01  2.665718174E+01 -1.209550611E+01  1.591779820E+02  1.250000000E+02  0.00000E+00  9.000E+00
      21     1     1     2   512   501  1.683957234E+01  6.707776407E+01 -2.013452478E+01  7.203052629E+01  5.331201500E-07  0.00000E+00  9.000E+00
#rwgt            1           1   3.0895279202484621E-002           4      236063           0
</event>
<event>
      5   9999  3.79277E-02  5.71854E+01 -1.00000E+00  1.35828E-01
      21    -1     0     0   502   511  0.000000000E+00  0.000000000E+00  6.079064589E+01  6.079064589E+01  0.000000000E+00  0.00000E+00  9.000E+00
      21    -1     0     0   501   502  0.000000000E+00  0.000000000E+00 -6.030355024E+02  6.030355024E+02  0.000000000E+00  0.00000E+00  9.000E+00
      25     1     1     2     0     0  5.292962568E+01  3.986506316E+01 -3.582132944E+02  3.851396277E+02  1.250000000E+02  0.00000E+00  9.000E+00
      25     1     1     2     0     0 -1.703579503E+01 -8.438245493E+01 -1.404204967E+02  2.067692746E+02  1.250000000E+02  0.00000E+00  9.000E+00
      21     1     1     2   501   511 -3.589383066E+01  4.451739177E+01 -4.361106540E+01  7.191724602E+01  6.743495762E-07  0.00000E+00  9.000E+00
#rwgt            1           1   5.3176341735398473E-002           4      236121           0
</event>
<event>
      5   9999  3.79277E-02  6.51580E+01 -1.00000E+00  1.32817E-01
      21    -1     0     0   502   512  0.000000000E+00  0.000000000E+00  6.805615015E+02  6.805615015E+02  0.000000000E+00  0.00000E+00  9.000E+00
      21    -1     0     0   501   502  0.000000000E+00  0.000000000E+00 -8.405326242E+01  8.405326242E+01  0.000000000E+00  0.00000E+00  9.000E+00
      25     1     1     2     0     0  3.634884133E+01  1.018636876E+02  5.744555078E+01  1.749926867E+02  1.250000000E+02  0.00000E+00  9.000E+00
      25     1     1     2     0     0  2.878905727E+01 -1.002441144E+02  4.551101158E+02  4.833507109E+02  1.250000000E+02  0.00000E+00  9.000E+00
      21     1     1     2   501   512 -6.513789860E+01 -1.619573200E+00  8.395257254E+01  1.062713663E+02  9.536743164E-07  0.00000E+00  9.000E+00
#rwgt            1           1   4.3747692939671720E-002           4      236205           0
</event>
<event>
      5   9999  3.79277E-02  1.04389E+02 -1.00000E+00  1.22995E-01
      21    -1     0     0   502   501  0.000000000E+00  0.000000000E+00  9.170073273E+01  9.170073273E+01  0.000000000E+00  0.00000E+00  9.000E+00
      21    -1     0     0   501   511  0.000000000E+00  0.000000000E+00 -1.078923056E+03  1.078923056E+03  0.000000000E+00  0.00000E+00  9.000E+00
      25     1     1     2     0     0  8.109063106E+01 -3.401356316E+01  9.237695966E-01  1.528347679E+02  1.250000000E+02  0.00000E+00  9.000E+00
      25     1     1     2     0     0  2.251681551E+01  2.126468815E+01 -3.931224164E+02  4.136779281E+02  1.250000000E+02  0.00000E+00  9.000E+00
      21     1     1     2   502   511 -1.036074466E+02  1.274887501E+01 -5.950236766E+02  6.041110929E+02  0.000000000E+00  0.00000E+00  9.000E+00
#rwgt            1           1   4.7833080941669132E-002           4      236268           0
</event>
<event>
      5   9999  3.79277E-02  3.66465E+01 -1.00000E+00  1.47239E-01
      21    -1     0     0   502   501  0.000000000E+00  0.000000000E+00  9.774987469E+01  9.774987469E+01  0.000000000E+00  0.00000E+00  9.000E+00
      21    -1     0     0   512   502  0.000000000E+00  0.000000000E+00 -6.317323776E+02  6.317323776E+02  0.000000000E+00  0.00000E+00  9.000E+00
      25     1     1     2     0     0 -7.230452688E+01  1.008483283E+02 -8.080804366E+01  1.937866607E+02  1.250000000E+02  0.00000E+00  9.000E+00
      25     1     1     2     0     0  1.087834681E+02 -9.734780804E+01 -1.909382396E+02  2.709111478E+02  1.250000000E+02  0.00000E+00  9.000E+00
      21     1     1     2   512   501 -3.647894123E+01 -3.500520263E+00 -2.622362197E+02  2.647844438E+02  5.394796609E-06  0.00000E+00  9.000E+00
#rwgt            1           1   3.5907460927167831E-002           4      236351           0
</event>
<event>
      5   9999  3.79277E-02  4.06477E+01 -1.00000E+00  1.44409E-01
      21    -1     0     0   502   501  0.000000000E+00  0.000000000E+00  3.312224879E+02  3.312224879E+02  0.000000000E+00  0.00000E+00  9.000E+00
      21    -1     0     0   501   511  0.000000000E+00  0.000000000E+00 -2.200895498E+02  2.200895498E+02  0.000000000E+00  0.00000E+00  9.000E+00
      25     1     1     2     0     0 -1.229745459E+02  1.291697895E+02 -8.252990888E+01  2.329028968E+02  1.250000000E+02  0.00000E+00  9.000E+00
      25     1     1     2     0     0  8.333684314E+01 -1.201650169E+02  1.997294759E+02  2.773112408E+02  1.250000000E+02  0.00000E+00  9.000E+00
      21     1     1     2   502   511  3.963770279E+01 -9.004772560E+00 -6.066628901E+00  4.109790016E+01  7.396741894E-07  0.00000E+00  9.000E+00
#rwgt            1           1   3.4300669311914569E-002           4      236535           0
</event>
<event>
      5   9999  3.79277E-02  1.70895E+01 -1.00000E+00  1.72209E-01
      21    -1     0     0   502   501  0.000000000E+00  0.000000000E+00  8.558430372E+02  8.558430372E+02  0.000000000E+00  0.00000E+00  9.000E+00
      21    -1     0     0   512   502  0.000000000E+00  0.000000000E+00 -1.839866951E+02  1.839866951E+02  0.000000000E+00  0.00000E+00  9.000E+00
      25     1     1     2     0     0  1.238092117E+02 -2.003402508E+02  7.061575083E+02  7.548167748E+02  1.250000000E+02  0.00000E+00  9.000E+00
      25     1     1     2     0     0 -1.085107070E+02  2.079564287E+02 -3.361919716E+01  2.679098733E+02  1.250000000E+02  0.00000E+00  9.000E+00
      21     1     1     2   512   501 -1.529850467E+01 -7.616177931E+00 -6.819689566E-01  1.710308431E+01  1.840157663E-07  0.00000E+00  9.000E+00
#rwgt            1           1   5.0581248095525569E-002           4      236793           0
</event>
<event>
      5   9999  3.79277E-02  4.25767E+01 -1.00000E+00  1.43178E-01
      21    -1     0     0   502   501  0.000000000E+00  0.000000000E+00  2.183893537E+02  2.183893537E+02  0.000000000E+00  0.00000E+00  9.000E+00
      21    -1     0     0   511   502  0.000000000E+00  0.000000000E+00 -5.972598803E+02  5.972598803E+02  0.000000000E+00  0.00000E+00  9.000E+00
      25     1     1     2     0     0  9.839063620E+01 -2.492390585E+02 -1.334993843E+01  2.959798075E+02  1.250000000E+02  0.00000E+00  9.000E+00
      25     1     1     2     0     0 -1.361567644E+02  2.688986323E+02 -3.317485924E+02  4.653249053E+02  1.250000000E+02  0.00000E+00  9.000E+00
      21     1     1     2   511   501  3.776612820E+01 -1.965957375E+01 -3.377199572E+01  5.434452111E+01  8.259061849E-07  0.00000E+00  9.000E+00
#rwgt            1           1   3.4561521792755817E-002           4      237145           0
</event>
<event>
      5   9999  3.79277E-02  7.84341E+01 -1.00000E+00  1.28766E-01
      21    -1     0     0   512   501  0.000000000E+00  0.000000000E+00  3.851187000E+02  3.851187000E+02  0.000000000E+00  0.00000E+00  9.000E+00
      21    -1     0     0   501   502  0.000000000E+00  0.000000000E+00 -6.679153165E+02  6.679153165E+02  0.000000000E+00  0.00000E+00  9.000E+00
      25     1     1     2     0     0 -1.405415929E+02 -1.099858910E+01 -4.673741093E+02  5.039210914E+02  1.250000000E+02  0.00000E+00  9.000E+00
      25     1     1     2     0     0  9.342187789E+01  7.370136608E+01 -1.355920675E+02  2.194760747E+02  1.250000000E+02  0.00000E+00  9.000E+00
      21     1     1     2   512   502  4.711971504E+01 -6.270277698E+01  3.201695603E+02  3.296368504E+02  0.000000000E+00  0.00000E+00  9.000E+00
#rwgt            1           1   4.0812661742580733E-002           4      237349           0
</event>
<event>
      5   9999  3.79277E-02  4.21215E+01 -1.00000E+00  1.43462E-01
      21    -1     0     0   502   501  0.000000000E+00  0.000000000E+00  8.365744527E+01  8.365744527E+01  0.000000000E+00  0.00000E+00  9.000E+00
       1    -1     0     0   501     0  0.000000000E+00  0.000000000E+00 -7.867521993E+02  7.867521993E+02  0.000000000E+00  0.00000E+00  9.000E+00
      25     1     1     2     0     0 -7.095578469E+00  1.690691401E+02 -1.659705666E+02  2.679663232E+02  1.250000000E+02  0.00000E+00  9.000E+00
      25     1     1     2     0     0 -3.476442554E+01 -1.737553478E+02 -3.590366461E+02  4.194422480E+02  1.250000000E+02  0.00000E+00  9.000E+00
       1     1     1     2   502     0  4.186000401E+01  4.686207646E+00 -1.780875414E+02  1.830010734E+02  2.697398305E-06  0.00000E+00  9.000E+00
#rwgt            1           1   4.8218946866193234E-002           4      237543           0
</event>
<event>
      5   9999  3.79277E-02  3.33067E+01 -1.00000E+00  1.49951E-01
      21    -1     0     0   502   511  0.000000000E+00  0.000000000E+00  1.418937643E+02  1.418937643E+02  0.000000000E+00  0.00000E+00  9.000E+00
      21    -1     0     0   501   502  0.000000000E+00  0.000000000E+00 -3.374395729E+02  3.374395729E+02  0.000000000E+00  0.00000E+00  9.000E+00
      25     1     1     2     0     0 -1.588914320E+02 -3.294208435E+01 -1.598108761E+02  2.598002776E+02  1.250000000E+02  0.00000E+00  9.000E+00
      25     1     1     2     0     0  1.284543673E+02  1.941718242E+01 -4.322607771E+01  1.853942967E+02  1.250000000E+02  0.00000E+00  9.000E+00
      21     1     1     2   501   511  3.043706466E+01  1.352490193E+01  7.491145270E+00  3.413876294E+01  5.527507362E-07  0.00000E+00  9.000E+00
#rwgt            1           1   3.0402480059138481E-002           4      237674           0
</event>
<event>
      5   9999  3.79277E-02  4.37668E+01 -1.00000E+00  1.42457E-01
      21    -1     0     0   512   501  0.000000000E+00  0.000000000E+00  1.070475932E+03  1.070475932E+03  0.000000000E+00  0.00000E+00  9.000E+00
      21    -1     0     0   501   502  0.000000000E+00  0.000000000E+00 -1.537252954E+02  1.537252954E+02  0.000000000E+00  0.00000E+00  9.000E+00
      25     1     1     2     0     0  6.276253062E+01 -1.775534551E+02  3.394309622E+02  4.078023330E+02  1.250000000E+02  0.00000E+00  9.000E+00
      25     1     1     2     0     0 -8.016905314E+01  1.373969355E+02 -3.259099174E+01  2.049199056E+02  1.250000000E+02  0.00000E+00  9.000E+00
      21     1     1     2   512   502  1.740652252E+01  4.015651955E+01  6.099106665E+02  6.114789892E+02  7.629394531E-06  0.00000E+00  9.000E+00
#rwgt            1           1   4.3613450874547113E-002           4      237777           0
</event>
<event>
      5   9999  3.79277E-02  4.65297E+01 -1.00000E+00  1.40882E-01
      21    -1     0     0   502   501  0.000000000E+00  0.000000000E+00  8.539674577E+02  8.539674577E+02  0.000000000E+00  0.00000E+00  9.000E+00
      -2    -1     0     0     0   502  0.000000000E+00  0.000000000E+00 -2.983059610E+02  2.983059610E+02  0.000000000E+00  0.00000E+00  9.000E+00
      25     1     1     2     0     0  1.760174437E+02  1.401678049E+01  5.578639222E+02  5.983441872E+02  1.250000000E+02  0.00000E+00  9.000E+00
      25     1     1     2     0     0 -2.176016379E+02  6.858328788E+00  2.157812733E+02  3.310348432E+02  1.250000000E+02  0.00000E+00  9.000E+00
      -2     1     1     2     0   501  4.158419421E+01 -2.087510927E+01 -2.179836989E+02  2.228943884E+02  2.697398305E-06  0.00000E+00  9.000E+00
#rwgt            1           1   3.1519599073911754E-002           4      237894           0
</event>
<event>
      5   9999 -3.79277E-02  1.63821E+01 -1.00000E+00  1.73852E-01
      21    -1     0     0   502   501  0.000000000E+00  0.000000000E+00  8.092814759E+02  8.092814759E+02  0.000000000E+00  0.00000E+00  9.000E+00
      21    -1     0     0   511   502  0.000000000E+00  0.000000000E+00 -4.114633716E+02  4.114633716E+02  0.000000000E+00  0.00000E+00  9.000E+00
      25     1     1     2     0     0  4.531241932E+02 -3.178307474E+02  2.083839078E+02  6.044723083E+02  1.250000000E+02  0.00000E+00  9.000E+00
      25     1     1     2     0     0 -4.621785345E+02  3.041782156E+02  1.936057990E+02  5.993676585E+02  1.250000000E+02  0.00000E+00  9.000E+00
      21     1     1     2   511   501  9.054341287E+00  1.365253185E+01 -4.171602537E+00  1.690488065E+01  2.858538343E-07  0.00000E+00  9.000E+00
#rwgt            1           1 -0.18498501774809342                4      238000           0
</event>
<event>
      5   9999  3.79277E-02  4.50623E+01 -1.00000E+00  1.41702E-01
      21    -1     0     0   502   501  0.000000000E+00  0.000000000E+00  1.471477296E+02  1.471477296E+02  0.000000000E+00  0.00000E+00  9.000E+00
      21    -1     0     0   512   502  0.000000000E+00  0.000000000E+00 -6.280466072E+02  6.280466072E+02  0.000000000E+00  0.00000E+00  9.000E+00
      25     1     1     2     0     0 -9.583194223E+01  1.219929609E+02  4.580621375E+01  2.044241984E+02  1.250000000E+02  0.00000E+00  9.000E+00
      25     1     1     2     0     0  9.491154585E+01 -7.694009773E+01 -4.135981561E+02  4.490171655E+02  1.250000000E+02  0.00000E+00  9.000E+00
      21     1     1     2   512   501  9.203963771E-01 -4.505286318E+01 -1.131069353E+02  1.217529730E+02  0.000000000E+00  0.00000E+00  9.000E+00
#rwgt            1           1   4.8526930807109868E-002           4      238246           0
</event>
<event>
      5   9999  3.79277E-02  3.65416E+01 -1.00000E+00  1.47319E-01
      21    -1     0     0   502   501  0.000000000E+00  0.000000000E+00  1.488356299E+02  1.488356299E+02  0.000000000E+00  0.00000E+00  9.000E+00
      21    -1     0     0   501   511  0.000000000E+00  0.000000000E+00 -4.946739837E+02  4.946739837E+02  0.000000000E+00  0.00000E+00  9.000E+00
      25     1     1     2     0     0 -9.025241275E+01 -4.079254025E+00  4.958900609E+01  1.620068142E+02  1.250000000E+02  0.00000E+00  9.000E+00
      25     1     1     2     0     0  8.969989681E+01  4.061667811E+01 -1.092902436E+02  1.930418177E+02  1.250000000E+02  0.00000E+00  9.000E+00
      21     1     1     2   502   511  5.525159460E-01 -3.653742408E+01 -2.861371164E+02  2.884609817E+02  0.000000000E+00  0.00000E+00  9.000E+00
#rwgt            1           1   4.2185389521299459E-002           4      238528           0
</event>
<event>
      5   9999  3.79277E-02  4.10464E+01 -1.00000E+00  1.44148E-01
      21    -1     0     0   512   501  0.000000000E+00  0.000000000E+00  1.002791421E+03  1.002791421E+03  0.000000000E+00  0.00000E+00  9.000E+00
      21    -1     0     0   501   502  0.000000000E+00  0.000000000E+00 -3.994760949E+01  3.994760949E+01  0.000000000E+00  0.00000E+00  9.000E+00
      25     1     1     2     0     0 -7.518648178E+01  6.075511126E+01  1.857895626E+02  2.438994714E+02  1.250000000E+02  0.00000E+00  9.000E+00
      25     1     1     2     0     0  3.504636351E+01 -5.217725483E+01  6.635803430E+02  6.781700267E+02  1.250000000E+02  0.00000E+00  9.000E+00
      21     1     1     2   512   502  4.014011827E+01 -8.577856432E+00  1.134739058E+02  1.206695323E+02  1.907348633E-06  0.00000E+00  9.000E+00
#rwgt            1           1   3.7243820696175829E-002           4      238839           0
</event>
<event>
      5   9999  3.79277E-02  6.37285E+01 -1.00000E+00  1.33319E-01
      21    -1     0     0   502   501  0.000000000E+00  0.000000000E+00  1.857071448E+02  1.857071448E+02  0.000000000E+00  0.00000E+00  9.000E+00
      21    -1     0     0   501   511  0.000000000E+00  0.000000000E+00 -2.223349501E+02  2.223349501E+02  0.000000000E+00  0.00000E+00  9.000E+00
      25     1     1     2     0     0  5.076307383E+00 -1.111931499E+02 -4.099242640E+01  1.723225595E+02  1.250000000E+02  0.00000E+00  9.000E+00
      25     1     1     2     0     0 -6.646523594E+01  9.408406661E+01  1.672142788E+01  1.708041139E+02  1.250000000E+02  0.00000E+00  9.000E+00
      21     1     1     2   502   511  6.138892856E+01  1.710908327E+01 -1.235680685E+01  6.491542156E+01  1.180111758E-06  0.00000E+00  9.000E+00
#rwgt            1           1   8.8165723417099384E-002           4      239101           0
</event>
<event>
      5   9999  3.79277E-02  1.25577E+01 -1.00000E+00  1.84977E-01
      21    -1     0     0   502   501  0.000000000E+00  0.000000000E+00  1.024273613E+02  1.024273613E+02  0.000000000E+00  0.00000E+00  9.000E+00
      21    -1     0     0   512   502  0.000000000E+00  0.000000000E+00 -8.742148249E+02  8.742148249E+02  0.000000000E+00  0.00000E+00  9.000E+00
      25     1     1     2     0     0  1.497684956E+02 -1.494267939E+02 -4.481659537E+02  5.111131881E+02  1.250000000E+02  0.00000E+00  9.000E+00
      25     1     1     2     0     0 -1.610247897E+02  1.549938847E+02 -1.611359337E+02  3.025588807E+02  1.250000000E+02  0.00000E+00  9.000E+00
      21     1     1     2   512   501  1.125629411E+01 -5.567090773E+00 -1.624855763E+02  1.629701174E+02  3.303624740E-06  0.00000E+00  9.000E+00
#rwgt            1           1   3.2875538713082103E-002           4      239350           0
</event>
<event>
      5   9999  3.79277E-02  5.01588E+01 -1.00000E+00  1.38997E-01
      21    -1     0     0   511   501  0.000000000E+00  0.000000000E+00  1.225858952E+02  1.225858952E+02  0.000000000E+00  0.00000E+00  9.000E+00
      21    -1     0     0   501   502  0.000000000E+00  0.000000000E+00 -1.136389002E+03  1.136389002E+03  0.000000000E+00  0.00000E+00  9.000E+00
      25     1     1     2     0     0  1.054224550E+02 -8.740286914E+01 -9.006469456E+02  9.195341626E+02  1.250000000E+02  0.00000E+00  9.000E+00
      25     1     1     2     0     0 -1.220988088E+02  4.009741403E+01 -1.812044803E+02  2.549038748E+02  1.250000000E+02  0.00000E+00  9.000E+00
      21     1     1     2   511   502  1.667635380E+01  4.730545511E+01  6.804831939E+01  8.453685960E+01  1.348699152E-06  0.00000E+00  9.000E+00
#rwgt            2          11   2.1531828726948717E-003           4      239797           0
</event>
<event>
      5   9999  3.79277E-02  7.87532E+01 -1.00000E+00  1.28681E-01
      21    -1     0     0   502   512  0.000000000E+00  0.000000000E+00  9.400569526E+01  9.400569526E+01  0.000000000E+00  0.00000E+00  9.000E+00
      21    -1     0     0   501   502  0.000000000E+00  0.000000000E+00 -1.487119509E+03  1.487119509E+03  0.000000000E+00  0.00000E+00  9.000E+00
      25     1     1     2     0     0  9.386641190E+01  1.779548928E+02 -2.593804728E+02  3.512578495E+02  1.250000000E+02  0.00000E+00  9.000E+00
      25     1     1     2     0     0 -1.726145609E+02 -1.788464226E+02 -1.114632491E+03  1.148830893E+03  1.250000000E+02  0.00000E+00  9.000E+00
      21     1     1     2   501   512  7.874814895E+01  8.915298474E-01 -1.910085018E+01  8.103646257E+01  1.735713456E-06  0.00000E+00  9.000E+00
#rwgt            1           1   3.4347289668366511E-002           4      239832           0
</event>
<event>
      5   9999  3.79277E-02  7.01513E+01 -1.00000E+00  1.31173E-01
      21    -1     0     0   502   501  0.000000000E+00  0.000000000E+00  9.076775056E+01  9.076775056E+01  0.000000000E+00  0.00000E+00  9.000E+00
      21    -1     0     0   511   502  0.000000000E+00  0.000000000E+00 -4.538225519E+02  4.538225519E+02  0.000000000E+00  0.00000E+00  9.000E+00
      25     1     1     2     0     0 -6.489901604E+01  2.164434553E+01 -7.822524518E+01  1.625562947E+02  1.250000000E+02  0.00000E+00  9.000E+00
      25     1     1     2     0     0  1.166855512E+02 -6.896614841E+01 -2.102472164E+02  2.796439513E+02  1.250000000E+02  0.00000E+00  9.000E+00
      21     1     1     2   511   501 -5.178653517E+01  4.732180287E+01 -7.458233977E+01  1.023900564E+02  2.132480600E-06  0.00000E+00  9.000E+00
#rwgt            1           1   3.9681093835482378E-002           4      240010           0
</event>
<event>
      5   9999  3.79277E-02  4.09238E+01 -1.00000E+00  1.44228E-01
      21    -1     0     0   502   501  0.000000000E+00  0.000000000E+00  1.612671774E+03  1.612671774E+03  0.000000000E+00  0.00000E+00  9.000E+00
      21    -1     0     0   512   502  0.000000000E+00  0.000000000E+00 -1.247726153E+02  1.247726153E+02  0.000000000E+00  0.00000E+00  9.000E+00
      25     1     1     2     0     0  1.413879214E+02 -4.139375509E+01  3.149885275E+02  3.695223400E+02  1.250000000E+02  0.00000E+00  9.000E+00
      25     1     1     2     0     0 -1.330722307E+02  1.323684444E+00  1.259227684E+03  1.272395116E+03  1.250000000E+02  0.00000E+00  9.000E+00
      21     1     1     2   512   501 -8.315690770E+00  4.007007064E+01 -8.631705318E+01  9.552693308E+01  2.132480600E-06  0.00000E+00  9.000E+00
#rwgt            1           1   3.2435046554779613E-002           4      240215           0
</event>
<event>
      5   9999  3.79277E-02  1.94407E+02 -1.00000E+00  1.12098E-01
      21    -1     0     0   502   511  0.000000000E+00  0.000000000E+00  6.478453594E+01  6.478453594E+01  0.000000000E+00  0.00000E+00  9.000E+00
      21    -1     0     0   501   502  0.000000000E+00  0.000000000E+00 -1.487605144E+03  1.487605144E+03  0.000000000E+00  0.00000E+00  9.000E+00
      25     1     1     2     0     0 -5.007860930E+01  1.662298657E+02 -3.700714725E+02  4.274554130E+02  1.250000000E+02  0.00000E+00  9.000E+00
      25     1     1     2     0     0  6.240692517E+01  2.778605077E+01 -7.618542370E+02  7.750571382E+02  1.250000000E+02  0.00000E+00  9.000E+00
      21     1     1     2   501   511 -1.232831587E+01 -1.940159164E+02 -2.908948981E+02  3.498771284E+02  3.814697266E-06  0.00000E+00  9.000E+00
#rwgt            1           1   3.8434904372935709E-002           4      240368           0
</event>
<event>
      5   9999  3.79277E-02  2.20096E+01 -1.00000E+00  1.63010E-01
      21    -1     0     0   502   501  0.000000000E+00  0.000000000E+00  3.419789180E+02  3.419789180E+02  0.000000000E+00  0.00000E+00  9.000E+00
      21    -1     0     0   501   512  0.000000000E+00  0.000000000E+00 -4.472836038E+02  4.472836038E+02  0.000000000E+00  0.00000E+00  9.000E+00
      25     1     1     2     0     0 -1.937350541E+02  6.877597772E+01  1.196101954E+01  2.408972235E+02  1.250000000E+02  0.00000E+00  9.000E+00
      25     1     1     2     0     0  2.084564447E+02 -8.513756073E+01  1.379785423E+02  2.921738724E+02  1.250000000E+02  0.00000E+00  9.000E+00
      21     1     1     2   502   512 -1.472139059E+01  1.636158301E+01 -2.552442476E+02  2.561914259E+02  0.000000000E+00  0.00000E+00  9.000E+00
#rwgt            1           1   3.0575921708274469E-002           4      240477           0
</event>
<event>
      5   9999  3.79277E-02  1.52272E+01 -1.00000E+00  1.76771E-01
      21    -1     0     0   511   501  0.000000000E+00  0.000000000E+00  6.277257392E+01  6.277257392E+01  0.000000000E+00  0.00000E+00  9.000E+00
      21    -1     0     0   501   502  0.000000000E+00  0.000000000E+00 -2.218099975E+03  2.218099975E+03  0.000000000E+00  0.00000E+00  9.000E+00
      25     1     1     2     0     0 -1.550658899E+02 -3.897936978E+01 -4.201962140E+02  4.666419181E+02  1.250000000E+02  0.00000E+00  9.000E+00
      25     1     1     2     0     0  1.593653588E+02  2.437173823E+01 -1.767091679E+03  1.778828070E+03  1.250000000E+02  0.00000E+00  9.000E+00
      21     1     1     2   511   502 -4.299468849E+00  1.460763155E+01  3.196049166E+01  3.540256147E+01  1.430511475E-06  0.00000E+00  9.000E+00
#rwgt            1           1   9.0911999124973650E-002           4      240724           0
</event>
<event>
      5   9999  3.79277E-02  3.29375E+01 -1.00000E+00  1.50274E-01
      21    -1     0     0   502   501  0.000000000E+00  0.000000000E+00  9.647850707E+01  9.647850707E+01  0.000000000E+00  0.00000E+00  9.000E+00
      21    -1     0     0   501   512  0.000000000E+00  0.000000000E+00 -9.758253363E+02  9.758253363E+02  0.000000000E+00  0.00000E+00  9.000E+00
      25     1     1     2     0     0  1.707048704E+02 -2.126959845E+01 -2.573385131E+02  3.338272891E+02  1.250000000E+02  0.00000E+00  9.000E+00
      25     1     1     2     0     0 -1.741448737E+02  5.402692559E+01 -1.542535115E+02  2.695635204E+02  1.250000000E+02  0.00000E+00  9.000E+00
      21     1     1     2   502   512  3.440003288E+00 -3.275732714E+01 -4.677548047E+02  4.689130339E+02  9.344061824E-06  0.00000E+00  9.000E+00
#rwgt            1           1   3.3215776043986553E-002           4      240917           0
</event>
<event>
      5   9999  3.79277E-02  2.49047E+02 -1.00000E+00  1.08287E-01
      21    -1     0     0   502   501  0.000000000E+00  0.000000000E+00  1.871860178E+03  1.871860178E+03  0.000000000E+00  0.00000E+00  9.000E+00
      21    -1     0     0   511   502  0.000000000E+00  0.000000000E+00 -8.298192072E+01  8.298192072E+01  0.000000000E+00  0.00000E+00  9.000E+00
      25     1     1     2     0     0  7.805448832E+01 -1.002281127E+02  1.069606255E+03  1.084352672E+03  1.250000000E+02  0.00000E+00  9.000E+00
      25     1     1     2     0     0  1.706081112E+02  1.140646041E+02  3.259984729E+02  4.049911923E+02  1.250000000E+02  0.00000E+00  9.000E+00
      21     1     1     2   511   501 -2.486625995E+02 -1.383649136E+01  3.932735300E+02  4.654982345E+02  1.078959322E-05  0.00000E+00  9.000E+00
#rwgt            1           1   4.4767545144043110E-002           4      241049           0
</event>
<event>
      5   9999  3.79277E-02  1.57299E+02 -1.00000E+00  1.15582E-01
      21    -1     0     0   502   501  0.000000000E+00  0.000000000E+00  3.097449318E+01  3.097449318E+01  0.000000000E+00  0.00000E+00  9.000E+00
      21    -1     0     0   501   512  0.000000000E+00  0.000000000E+00 -3.163856907E+03  3.163856907E+03  0.000000000E+00  0.00000E+00  9.000E+00
      25     1     1     2     0     0 -6.179984096E+01  5.427440063E+01 -1.234965700E+03  1.243997673E+03  1.250000000E+02  0.00000E+00  9.000E+00
      25     1     1     2     0     0  1.995789729E+02  2.161988158E+01 -6.251496459E+02  6.683833222E+02  1.250000000E+02  0.00000E+00  9.000E+00
      21     1     1     2   502   512 -1.377791319E+02 -7.589428222E+01 -1.272767068E+03  1.282450404E+03  2.157918644E-05  0.00000E+00  9.000E+00
#rwgt            1           1   3.7499673218532356E-002           4      241192           0
</event>
<event>
      5   9999  3.79277E-02  3.08188E+01 -1.00000E+00  1.52232E-01
      21    -1     0     0   502   501  0.000000000E+00  0.000000000E+00  6.176225386E+02  6.176225386E+02  0.000000000E+00  0.00000E+00  9.000E+00
      21    -1     0     0   511   502  0.000000000E+00  0.000000000E+00 -1.284567175E+03  1.284567175E+03  0.000000000E+00  0.00000E+00  9.000E+00
      25     1     1     2     0     0 -1.149157956E+02  1.308802556E+02  2.870086750E+02  3.582377156E+02  1.250000000E+02  0.00000E+00  9.000E+00
      25     1     1     2     0     0  1.377532554E+02 -1.101861398E+02  2.551647043E+02  3.344412820E+02  1.250000000E+02  0.00000E+00  9.000E+00
      21     1     1     2   511   501 -2.283745979E+01 -2.069411581E+01 -1.209118016E+03  1.209510716E+03  1.525878906E-05  0.00000E+00  9.000E+00
#rwgt            1           1   3.9461588820503463E-002           4      241255           0
</event>
<event>
      5   9999  3.79277E-02  5.37270E+01 -1.00000E+00  1.37317E-01
      21    -1     0     0   512   501  0.000000000E+00  0.000000000E+00  1.570235192E+02  1.570235192E+02  0.000000000E+00  0.00000E+00  9.000E+00
      21    -1     0     0   501   502  0.000000000E+00  0.000000000E+00 -5.414536270E+02  5.414536270E+02  0.000000000E+00  0.00000E+00  9.000E+00
      25     1     1     2     0     0  1.211816099E+02  1.414231685E+02 -3.951121018E+02  4.543391554E+02  1.250000000E+02  0.00000E+00  9.000E+00
      25     1     1     2     0     0 -1.103732666E+02 -8.879457013E+01 -2.005737198E+00  1.889332068E+02  1.250000000E+02  0.00000E+00  9.000E+00
      21     1     1     2   512   502 -1.080834330E+01 -5.262859837E+01  1.268773119E+01  5.520478398E+01  6.078504936E-07  0.00000E+00  9.000E+00
#rwgt            1           1   4.5062439240552477E-002           4      241433           0
</event>
<event>
      5   9999  3.79277E-02  1.16851E+02 -1.00000E+00  1.20860E-01
       2    -1     0     0   502     0  0.000000000E+00  0.000000000E+00  1.138912186E+03  1.138912186E+03  0.000000000E+00  0.00000E+00  9.000E+00
      21    -1     0     0   501   502  0.000000000E+00  0.000000000E+00 -5.998898222E+01  5.998898222E+01  0.000000000E+00  0.00000E+00  9.000E+00
      25     1     1     2     0     0  3.714942365E+01 -1.766746008E+01  9.397798232E+01  1.617067716E+02  1.250000000E+02  0.00000E+00  9.000E+00
      25     1     1     2     0     0 -4.085311951E+01  1.344602479E+02  7.689499705E+02  7.916170746E+02  1.250000000E+02  0.00000E+00  9.000E+00
       2     1     1     2   501     0  3.703695857E+00 -1.167927879E+02  2.159952511E+02  2.455773221E+02  2.697398305E-06  0.00000E+00  9.000E+00
#rwgt            1           1   3.8024008887439502E-002           4      241526           0
</event>
<event>
      5   9999  3.79277E-02  1.20463E+02 -1.00000E+00  1.20297E-01
      21    -1     0     0   502   511  0.000000000E+00  0.000000000E+00  1.785160931E+02  1.785160931E+02  0.000000000E+00  0.00000E+00  9.000E+00
      21    -1     0     0   501   502  0.000000000E+00  0.000000000E+00 -1.101315930E+03  1.101315930E+03  0.000000000E+00  0.00000E+00  9.000E+00
      25     1     1     2     0     0 -3.273734265E+00  2.014931221E+02 -9.022691829E+01  2.537244418E+02  1.250000000E+02  0.00000E+00  9.000E+00
      25     1     1     2     0     0  5.942963098E+01 -9.491934781E+01 -8.805800083E+02  8.964305409E+02  1.250000000E+02  0.00000E+00  9.000E+00
      21     1     1     2   501   511 -5.615589671E+01 -1.065737743E+02  4.800708979E+01  1.296770403E+02  1.907348633E-06  0.00000E+00  9.000E+00
#rwgt            1           1   4.0867652843493023E-002           4      241702           0
</event>
<event>
      5   9999  3.79277E-02  1.75088E+01 -1.00000E+00  1.71281E-01
      21    -1     0     0   502   501  0.000000000E+00  0.000000000E+00  4.110118009E+02  4.110118009E+02  0.000000000E+00  0.00000E+00  9.000E+00
      21    -1     0     0   501   512  0.000000000E+00  0.000000000E+00 -4.460659979E+02  4.460659979E+02  0.000000000E+00  0.00000E+00  9.000E+00
      25     1     1     2     0     0 -3.400377745E+02  9.171165733E+00  9.889009453E+01  3.756514996E+02  1.250000000E+02  0.00000E+00  9.000E+00
      25     1     1     2     0     0  3.225754190E+02 -1.044603638E+01  2.389260454E-01  3.461055875E+02  1.250000000E+02  0.00000E+00  9.000E+00
      21     1     1     2   502   512  1.746235555E+01  1.274870647E+00 -1.341832176E+02  1.353207118E+02  1.907348633E-06  0.00000E+00  9.000E+00
#rwgt            1           1   3.4867448133381301E-002           4      241763           0
</event>
<event>
      5   9999  3.79277E-02  3.57541E+01 -1.00000E+00  1.47929E-01
      21    -1     0     0   511   501  0.000000000E+00  0.000000000E+00  5.614414550E+02  5.614414550E+02  0.000000000E+00  0.00000E+00  9.000E+00
      21    -1     0     0   501   502  0.000000000E+00  0.000000000E+00 -2.556018515E+02  2.556018515E+02  0.000000000E+00  0.00000E+00  9.000E+00
      25     1     1     2     0     0 -1.465555557E+02 -1.572840496E+01 -8.815364835E+00  1.934647882E+02  1.250000000E+02  0.00000E+00  9.000E+00
      25     1     1     2     0     0  1.290532342E+02  4.690566714E+01 -9.760055040E+01  2.097754664E+02  1.250000000E+02  0.00000E+00  9.000E+00
      21     1     1     2   511   502  1.750232140E+01 -3.117726217E+01  4.122555188E+02  4.138030518E+02  7.629394531E-06  0.00000E+00  9.000E+00
#rwgt            1           1   3.5593286223870785E-002           4      241992           0
</event>
<event>
      5   9999  3.79277E-02  3.19300E+01 -1.00000E+00  1.51183E-01
      21    -1     0     0   502   501  0.000000000E+00  0.000000000E+00  3.930141371E+01  3.930141371E+01  0.000000000E+00  0.00000E+00  9.000E+00
       2    -1     0     0   501     0  0.000000000E+00  0.000000000E+00 -2.030246207E+03  2.030246207E+03  0.000000000E+00  0.00000E+00  9.000E+00
      25     1     1     2     0     0 -1.601020742E+02  7.402322457E+01 -6.374156599E+02  6.730793679E+02  1.250000000E+02  0.00000E+00  9.000E+00
      25     1     1     2     0     0  1.518840007E+02 -4.316891325E+01 -4.574185677E+02  4.997890063E+02  1.250000000E+02  0.00000E+00  9.000E+00
       2     1     1     2   502     0  8.218073497E+00 -3.085431132E+01 -8.961105655E+02  8.966792464E+02  1.525878906E-05  0.00000E+00  9.000E+00
#rwgt            1           1   2.5875864391496223E-002           4      242054           0
</event>
<event>
      5   9999  3.79277E-02  2.49462E+01 -1.00000E+00  1.58821E-01
      21    -1     0     0   502   501  0.000000000E+00  0.000000000E+00  3.053601117E+02  3.053601117E+02  0.000000000E+00  0.00000E+00  9.000E+00
       2    -1     0     0   501     0  0.000000000E+00  0.000000000E+00 -1.198493700E+03  1.198493700E+03  0.000000000E+00  0.00000E+00  9.000E+00
      25     1     1     2     0     0 -1.361259477E+02 -2.646956872E+01 -9.994676490E+01  2.117670124E+02  1.250000000E+02  0.00000E+00  9.000E+00
      25     1     1     2     0     0  1.342272935E+02  1.595766954E+00  2.155562295E+02  2.830353350E+02  1.250000000E+02  0.00000E+00  9.000E+00
       2     1     1     2   502     0  1.898654207E+00  2.487380177E+01 -1.008743053E+03  1.009051464E+03  1.868812365E-05  0.00000E+00  9.000E+00
#rwgt            1           1   4.0500316583547823E-002           4      242196           0
</event>
<event>
      5   9999 -3.79277E-02  7.32639E+00 -1.00000E+00  2.12794E-01
      21    -1     0     0   502   511  0.000000000E+00  0.000000000E+00  3.692172431E+02  3.692172431E+02  0.000000000E+00  0.00000E+00  9.000E+00
      21    -1     0     0   501   502  0.000000000E+00  0.000000000E+00 -3.648296263E+02  3.648296263E+02  0.000000000E+00  0.00000E+00  9.000E+00
      25     1     1     2     0     0 -4.189755608E+01  3.064923140E+02 -1.364279093E+02  3.604587607E+02  1.250000000E+02  0.00000E+00  9.000E+00
      25     1     1     2     0     0  4.867248612E+01 -3.092809061E+02  1.317895283E+02  3.619629394E+02  1.250000000E+02  0.00000E+00  9.000E+00
      21     1     1     2   501   511 -6.774930036E+00  2.788592029E+00  9.025997780E+00  1.162516918E+01  1.192092896E-07  0.00000E+00  9.000E+00
#rwgt            1           1  -4.3908336143201214E-002           4      242418           0
</event>
<event>
      5   9999  3.79277E-02  1.01393E+02 -1.00000E+00  1.23558E-01
      21    -1     0     0   512   501  0.000000000E+00  0.000000000E+00  2.025835821E+02  2.025835821E+02  0.000000000E+00  0.00000E+00  9.000E+00
      21    -1     0     0   501   502  0.000000000E+00  0.000000000E+00 -3.628261437E+02  3.628261437E+02  0.000000000E+00  0.00000E+00  9.000E+00
      25     1     1     2     0     0 -2.988415544E+01 -9.801143211E-01 -2.435225286E+02  2.753583943E+02  1.250000000E+02  0.00000E+00  9.000E+00
      25     1     1     2     0     0  9.826326871E+01 -7.388572555E+01  4.014981250E+01  1.798659997E+02  1.250000000E+02  0.00000E+00  9.000E+00
      21     1     1     2   512   502 -6.837911326E+01  7.486583987E+01  4.313015443E+01  1.101853317E+02  1.784161275E-06  0.00000E+00  9.000E+00
#rwgt            1           1   4.4778384526587216E-002           4      242867           0
</event>
<event>
      5   9999  3.79277E-02  5.59504E+01 -1.00000E+00  1.36345E-01
      21    -1     0     0   502   501  0.000000000E+00  0.000000000E+00  3.769703372E+02  3.769703372E+02  0.000000000E+00  0.00000E+00  9.000E+00
      21    -1     0     0   511   502  0.000000000E+00  0.000000000E+00 -9.963681402E+02  9.963681402E+02  0.000000000E+00  0.00000E+00  9.000E+00
      25     1     1     2     0     0 -3.340728646E+02 -2.512638773E+02 -7.076393201E+02  8.313342422E+02  1.250000000E+02  0.00000E+00  9.000E+00
      25     1     1     2     0     0  3.569181117E+02  2.001899514E+02  1.548186999E+02  4.550388829E+02  1.250000000E+02  0.00000E+00  9.000E+00
      21     1     1     2   511   501 -2.284524711E+01  5.107392587E+01 -6.657718275E+01  8.696535219E+01  1.348699152E-06  0.00000E+00  9.000E+00
#rwgt            1           1   5.6960177177214959E-002           4      242987           0
</event>
<event>
      5   9999  3.79277E-02  3.09705E+01 -1.00000E+00  1.52086E-01
      21    -1     0     0   502   501  0.000000000E+00  0.000000000E+00  1.840838110E+02  1.840838110E+02  0.000000000E+00  0.00000E+00  9.000E+00
      21    -1     0     0   512   502  0.000000000E+00  0.000000000E+00 -3.018875989E+02  3.018875989E+02  0.000000000E+00  0.00000E+00  9.000E+00
      25     1     1     2     0     0  7.621635959E+01 -1.472602308E+02 -4.609168476E+01  2.127062586E+02  1.250000000E+02  0.00000E+00  9.000E+00
      25     1     1     2     0     0 -9.911429348E+01  1.681134481E+02 -5.550304250E+01  2.383093836E+02  1.250000000E+02  0.00000E+00  9.000E+00
      21     1     1     2   512   501  2.289793389E+01 -2.085321729E+01 -1.620906060E+01  3.495576767E+01  5.840038640E-07  0.00000E+00  9.000E+00
#rwgt            1           1   3.8909353799833270E-002           4      243121           0
</event>
<event>
      5   9999  3.79277E-02  1.60024E+01 -1.00000E+00  1.74777E-01
      21    -1     0     0   502   501  0.000000000E+00  0.000000000E+00  3.547444362E+02  3.547444362E+02  0.000000000E+00  0.00000E+00  9.000E+00
      21    -1     0     0   511   502  0.000000000E+00  0.000000000E+00 -1.897956968E+02  1.897956968E+02  0.000000000E+00  0.00000E+00  9.000E+00
      25     1     1     2     0     0 -1.370562747E+02  8.559587997E+01 -6.789833903E+01  2.152818189E+02  1.250000000E+02  0.00000E+00  9.000E+00
      25     1     1     2     0     0  1.235907213E+02 -9.424200242E+01  2.397183333E+02  3.118430707E+02  1.250000000E+02  0.00000E+00  9.000E+00
      21     1     1     2   511   501  1.346555333E+01  8.646122453E+00 -6.871254829E+00  1.741524341E+01  2.920019320E-07  0.00000E+00  9.000E+00
#rwgt            1           1   2.5776093811066214E-002           4      243238           0
</event>
<event>
      5   9999 -3.79277E-02  4.38408E+01 -1.00000E+00  1.42413E-01
      21    -1     0     0   502   501  0.000000000E+00  0.000000000E+00  4.894323995E+02  4.894323995E+02  0.000000000E+00  0.00000E+00  9.000E+00
       2    -1     0     0   501     0  0.000000000E+00  0.000000000E+00 -1.042234787E+02  1.042234787E+02  0.000000000E+00  0.00000E+00  9.000E+00
      25     1     1     2     0     0  8.420179274E+01 -1.348942750E+02  2.593968425E+02  3.289348404E+02  1.250000000E+02  0.00000E+00  9.000E+00
      25     1     1     2     0     0 -4.199617613E+01  1.230325970E+02  1.274698106E+02  2.208489333E+02  1.250000000E+02  0.00000E+00  9.000E+00
       2     1     1     2   502     0 -4.220561661E+01  1.186167806E+01 -1.657732274E+00  4.387210453E+01  2.779775576E-07  0.00000E+00  9.000E+00
#rwgt            1           1  -8.8111753475120555E-002           4      243444           0
</event>
<event>
      5   9999  3.79277E-02  1.01309E+02 -1.00000E+00  1.23575E-01
      21    -1     0     0   502   501  0.000000000E+00  0.000000000E+00  5.345744691E+02  5.345744691E+02  0.000000000E+00  0.00000E+00  9.000E+00
      21    -1     0     0   511   502  0.000000000E+00  0.000000000E+00 -2.487422074E+02  2.487422074E+02  0.000000000E+00  0.00000E+00  9.000E+00
      25     1     1     2     0     0 -1.433143589E+01 -7.800789391E+01  2.431921120E+02  2.847069106E+02  1.250000000E+02  0.00000E+00  9.000E+00
      25     1     1     2     0     0 -7.476915481E+01  1.262209449E+02  2.211533218E+02  2.933529362E+02  1.250000000E+02  0.00000E+00  9.000E+00
      21     1     1     2   511   501  8.910059069E+01 -4.821305096E+01 -1.785131721E+02  2.052568297E+02  4.264961200E-06  0.00000E+00  9.000E+00
#rwgt            1           1   4.1321048893307878E-002           4      243578           0
</event>
<event>
      5   9999  3.79277E-02  1.11581E+02 -1.00000E+00  1.21725E-01
      21    -1     0     0   502   501  0.000000000E+00  0.000000000E+00  7.475627796E+02  7.475627796E+02  0.000000000E+00  0.00000E+00  9.000E+00
      21    -1     0     0   501   512  0.000000000E+00  0.000000000E+00 -1.945066371E+02  1.945066371E+02  0.000000000E+00  0.00000E+00  9.000E+00
      25     1     1     2     0     0  1.206947789E+02  2.162769175E+02  7.258511393E+01  2.867691292E+02  1.250000000E+02  0.00000E+00  9.000E+00
      25     1     1     2     0     0 -2.192038632E+02 -1.638715854E+02  4.469569213E+02  5.387946915E+02  1.250000000E+02  0.00000E+00  9.000E+00
      21     1     1     2   502   512  9.850908422E+01 -5.240533213E+01  3.351410727E+01  1.165055960E+02  6.743495762E-07  0.00000E+00  9.000E+00
#rwgt            1           1   2.6205474308001769E-002           4      243715           0
</event>
<event>
      5   9999  3.79277E-02  5.81220E+01 -1.00000E+00  1.35446E-01
      21    -1     0     0   502   511  0.000000000E+00  0.000000000E+00  1.097796682E+02  1.097796682E+02  0.000000000E+00  0.00000E+00  9.000E+00
      21    -1     0     0   501   502  0.000000000E+00  0.000000000E+00 -3.524620736E+02  3.524620736E+02  0.000000000E+00  0.00000E+00  9.000E+00
      25     1     1     2     0     0  3.608939002E+01 -4.476760753E+00  6.805762909E+00  1.303602849E+02  1.250000000E+02  0.00000E+00  9.000E+00
      25     1     1     2     0     0  1.991945380E+01  2.000660676E+01 -2.412571341E+02  2.731795265E+02  1.250000000E+02  0.00000E+00  9.000E+00
      21     1     1     2   501   511 -5.600884383E+01 -1.552984600E+01 -8.231034244E+00  5.870193036E+01  1.105501472E-06  0.00000E+00  9.000E+00
#rwgt            1           1   4.7336225302228516E-002           4      243936           0
</event>
<event>
      5   9999  3.79277E-02  2.90454E+01 -1.00000E+00  1.54022E-01
      21    -1     0     0   502   501  0.000000000E+00  0.000000000E+00  1.399609432E+02  1.399609432E+02  0.000000000E+00  0.00000E+00  9.000E+00
      21    -1     0     0   512   502  0.000000000E+00  0.000000000E+00 -4.609734920E+02  4.609734920E+02  0.000000000E+00  0.00000E+00  9.000E+00
      25     1     1     2     0     0  1.178138333E+02  7.778003457E+01 -3.200003983E+02  3.714230580E+02  1.250000000E+02  0.00000E+00  9.000E+00
      25     1     1     2     0     0 -1.363972234E+02 -5.545751605E+01  1.924335444E+01  1.941006062E+02  1.250000000E+02  0.00000E+00  9.000E+00
      21     1     1     2   512   501  1.858339018E+01 -2.232251852E+01 -2.025550492E+01  3.541077100E+01  0.000000000E+00  0.00000E+00  9.000E+00
#rwgt            1           1   4.6003613579350962E-002           4      244061           0
</event>
<event>
      5   9999  3.79277E-02  1.80310E+01 -1.00000E+00  1.70170E-01
      21    -1     0     0   502   501  0.000000000E+00  0.000000000E+00  1.856663420E+03  1.856663420E+03  0.000000000E+00  0.00000E+00  9.000E+00
      21    -1     0     0   511   502  0.000000000E+00  0.000000000E+00 -1.682490558E+02  1.682490558E+02  0.000000000E+00  0.00000E+00  9.000E+00
      25     1     1     2     0     0 -1.756378316E+02 -1.167088024E+02  1.274436390E+03  1.297799178E+03  1.250000000E+02  0.00000E+00  9.000E+00
      25     1     1     2     0     0  1.717734733E+02  1.343208436E+02  5.422031696E+02  5.976265492E+02  1.250000000E+02  0.00000E+00  9.000E+00
      21     1     1     2   511   501  3.864358233E+00 -1.761204128E+01 -1.282251959E+02  1.294867488E+02  2.697398305E-06  0.00000E+00  9.000E+00
#rwgt            1           1   2.4423135720836462E-002           4      244178           0
</event>
<event>
      5   9999 -3.79277E-02  5.16725E+01 -1.00000E+00  1.38265E-01
      21    -1     0     0   502   501  0.000000000E+00  0.000000000E+00  1.213903816E+02  1.213903816E+02  0.000000000E+00  0.00000E+00  9.000E+00
       2    -1     0     0   501     0  0.000000000E+00  0.000000000E+00 -3.024724223E+03  3.024724223E+03  0.000000000E+00  0.00000E+00  9.000E+00
      25     1     1     2     0     0  9.116591194E+01 -1.407220605E+02 -1.169768977E+02  2.396299573E+02  1.250000000E+02  0.00000E+00  9.000E+00
      25     1     1     2     0     0 -1.391955742E+02  1.597798351E+02 -1.932180464E+02  3.128309720E+02  1.250000000E+02  0.00000E+00  9.000E+00
       2     1     1     2   502     0  4.802966228E+01 -1.905777458E+01 -2.593138897E+03  2.593653675E+03  5.285799584E-05  0.00000E+00  9.000E+00
#rwgt            1           1 -0.11446854174286360                4      244447           0
</event>
<event>
      5   9999  3.79277E-02  3.57969E+01 -1.00000E+00  1.47895E-01
      21    -1     0     0   502   501  0.000000000E+00  0.000000000E+00  3.279915837E+02  3.279915837E+02  0.000000000E+00  0.00000E+00  9.000E+00
      21    -1     0     0   501   511  0.000000000E+00  0.000000000E+00 -2.067812500E+02  2.067812500E+02  0.000000000E+00  0.00000E+00  9.000E+00
      25     1     1     2     0     0  1.538411220E+02 -3.991188132E+00 -5.933471675E+01  2.069507888E+02  1.250000000E+02  0.00000E+00  9.000E+00
      25     1     1     2     0     0 -1.532690746E+02  3.978353758E+01  2.024895827E+02  2.858341655E+02  1.250000000E+02  0.00000E+00  9.000E+00
      21     1     1     2   502   511 -5.720473152E-01 -3.579234945E+01 -2.194453217E+01  4.198787931E+01  5.331201500E-07  0.00000E+00  9.000E+00
#rwgt            1           1   4.1390199940474812E-002           4      244521           0
</event>
<event>
      5   9999  3.79277E-02  5.63565E+01 -1.00000E+00  1.36174E-01
      21    -1     0     0   502   501  0.000000000E+00  0.000000000E+00  4.409492706E+02  4.409492706E+02  0.000000000E+00  0.00000E+00  9.000E+00
      21    -1     0     0   501   512  0.000000000E+00  0.000000000E+00 -8.714944685E+02  8.714944685E+02  0.000000000E+00  0.00000E+00  9.000E+00
      25     1     1     2     0     0  9.575810062E+01  1.031026158E+02 -1.546593696E+01  1.888490361E+02  1.250000000E+02  0.00000E+00  9.000E+00
      25     1     1     2     0     0 -1.438045701E+02 -7.364778380E+01  3.236469340E+02  3.827219465E+02  1.250000000E+02  0.00000E+00  9.000E+00
      21     1     1     2   502   512  4.804646952E+01 -2.945483204E+01 -7.387261949E+02  7.408727565E+02  0.000000000E+00  0.00000E+00  9.000E+00
#rwgt            1           1   4.3770978065154731E-002           4      244624           0
</event>
<event>
      5   9999  3.79277E-02  8.98462E+00 -1.00000E+00  2.01291E-01
       1    -1     0     0   502     0  0.000000000E+00  0.000000000E+00  1.295829819E+03  1.295829819E+03  0.000000000E+00  0.00000E+00  9.000E+00
      21    -1     0     0   501   502  0.000000000E+00  0.000000000E+00 -4.337222015E+02  4.337222015E+02  0.000000000E+00  0.00000E+00  9.000E+00
      25     1     1     2     0     0  1.473774192E+02  4.444677641E+00 -4.081615899E+01  1.975621869E+02  1.250000000E+02  0.00000E+00  9.000E+00
      25     1     1     2     0     0 -1.418832102E+02  2.664262823E+00 -2.860890942E+02  3.429430178E+02  1.250000000E+02  0.00000E+00  9.000E+00
       1     1     1     2   501     0 -5.494209029E+00 -7.108940464E+00  1.189012871E+03  1.189046816E+03  1.525878906E-05  0.00000E+00  9.000E+00
#rwgt            1           1   3.1566370725942344E-002           4      244787           0
</event>
<event>
      5   9999  3.79277E-02  1.53365E+01 -1.00000E+00  1.76481E-01
      21    -1     0     0   502   501  0.000000000E+00  0.000000000E+00  5.854420776E+01  5.854420776E+01  0.000000000E+00  0.00000E+00  9.000E+00
      -4    -1     0     0     0   502  0.000000000E+00  0.000000000E+00 -8.914483922E+02  8.914483922E+02  0.000000000E+00  0.00000E+00  9.000E+00
      25     1     1     2     0     0 -3.988879808E+01 -3.969721107E+01 -6.451330266E+01  1.515056138E+02  1.250000000E+02  0.00000E+00  9.000E+00
      25     1     1     2     0     0  5.517227617E+01  3.842345520E+01 -3.227269924E+02  3.525592909E+02  1.250000000E+02  0.00000E+00  9.000E+00
      -4     1     1     2     0   501 -1.528347809E+01  1.273755869E+00 -4.456638894E+02  4.459276954E+02  5.394796609E-06  0.00000E+00  9.000E+00
#rwgt            1           1   3.8410310824040859E-002           4      245237           0
</event>
<event>
      5   9999 -3.79277E-02  2.93810E+01 -1.00000E+00  1.53671E-01
      21    -1     0     0   502   501  0.000000000E+00  0.000000000E+00  1.980765268E+03  1.980765268E+03  0.000000000E+00  0.00000E+00  9.000E+00
      21    -1     0     0   511   502  0.000000000E+00  0.000000000E+00 -3.367705282E+01  3.367705282E+01  0.000000000E+00  0.00000E+00  9.000E+00
      25     1     1     2     0     0 -4.205724254E+01 -1.875529031E+02  7.074824481E+02  7.437078173E+02  1.250000000E+02  0.00000E+00  9.000E+00
      25     1     1     2     0     0  2.350511706E+01  2.103358935E+02  1.162911427E+03  1.188604924E+03  1.250000000E+02  0.00000E+00  9.000E+00
      21     1     1     2   511   501  1.855212548E+01 -2.278299038E+01  7.669434021E+01  8.212957951E+01  0.000000000E+00  0.00000E+00  9.000E+00
#rwgt            1           1  -9.1761760257095162E-002           4      245429           0
</event>
<event>
      5   9999  3.79277E-02  1.12218E+01 -1.00000E+00  1.90142E-01
      21    -1     0     0   502   512  0.000000000E+00  0.000000000E+00  2.661426505E+03  2.661426505E+03  0.000000000E+00  0.00000E+00  9.000E+00
      21    -1     0     0   501   502  0.000000000E+00  0.000000000E+00 -1.254010636E+02  1.254010636E+02  0.000000000E+00  0.00000E+00  9.000E+00
      25     1     1     2     0     0 -4.369859895E+01 -2.364242538E+01  2.073412030E+02  2.471515856E+02  1.250000000E+02  0.00000E+00  9.000E+00
      25     1     1     2     0     0  4.248291511E+01  1.248664713E+01 -6.380357521E+01  1.471618519E+02  1.250000000E+02  0.00000E+00  9.000E+00
      21     1     1     2   501   512  1.215683843E+00  1.115577825E+01  2.392487814E+03  2.392514132E+03  5.285799584E-05  0.00000E+00  9.000E+00
#rwgt            1           1   2.8881921804250268E-002           4      245856           0
</event>
<event>
      5   9999  3.79277E-02  8.06342E+01 -1.00000E+00  1.28184E-01
      21    -1     0     0   502   501  0.000000000E+00  0.000000000E+00  3.594616074E+02  3.594616074E+02  0.000000000E+00  0.00000E+00  9.000E+00
      21    -1     0     0   511   502  0.000000000E+00  0.000000000E+00 -1.028440366E+02  1.028440366E+02  0.000000000E+00  0.00000E+00  9.000E+00
      25     1     1     2     0     0  2.173057439E+01 -7.626756482E+01  1.258882500E+02  1.943239841E+02  1.250000000E+02  0.00000E+00  9.000E+00
      25     1     1     2     0     0  5.803119803E+01  6.443837309E+01  9.794903124E+01  1.809390411E+02  1.250000000E+02  0.00000E+00  9.000E+00
      21     1     1     2   511   501 -7.976177242E+01  1.182919173E+01  3.278028957E+01  8.704261888E+01  1.168007728E-06  0.00000E+00  9.000E+00
#rwgt            1           1   6.7224560777384548E-002           4      246080           0
</event>
<event>
      5   9999  3.79277E-02  8.58341E+01 -1.00000E+00  1.26887E-01
      21    -1     0     0   502   501  0.000000000E+00  0.000000000E+00  3.757319943E+02  3.757319943E+02  0.000000000E+00  0.00000E+00  9.000E+00
       2    -1     0     0   501     0  0.000000000E+00  0.000000000E+00 -8.133234111E+02  8.133234111E+02  0.000000000E+00  0.00000E+00  9.000E+00
      25     1     1     2     0     0 -1.642070381E+02  1.548137462E+01  4.645185682E+01  2.120999748E+02  1.250000000E+02  0.00000E+00  9.000E+00
      25     1     1     2     0     0  1.593013006E+02 -1.011751836E+02  1.911847822E+02  2.962936771E+02  1.250000000E+02  0.00000E+00  9.000E+00
       2     1     1     2   502     0  4.905737482E+00  8.569380896E+01 -6.752280558E+02  6.806617534E+02  1.078959322E-05  0.00000E+00  9.000E+00
#rwgt            1           1   2.6433729070904435E-002           4      246170           0
</event>
<event>
      5   9999  3.79277E-02  4.15934E+01 -1.00000E+00  1.43796E-01
      21    -1     0     0   502   501  0.000000000E+00  0.000000000E+00  2.704566966E+02  2.704566966E+02  0.000000000E+00  0.00000E+00  9.000E+00
      21    -1     0     0   501   511  0.000000000E+00  0.000000000E+00 -2.345174902E+02  2.345174902E+02  0.000000000E+00  0.00000E+00  9.000E+00
      25     1     1     2     0     0 -1.513950778E+02  2.744508326E+01  1.028965233E+02  2.233526286E+02  1.250000000E+02  0.00000E+00  9.000E+00
      25     1     1     2     0     0  1.929556676E+02 -2.579370935E+01 -6.338704482E+01  2.398752229E+02  1.250000000E+02  0.00000E+00  9.000E+00
      21     1     1     2   502   511 -4.156058980E+01 -1.651373913E+00 -3.570272124E+00  4.174633521E+01  5.264139692E-07  0.00000E+00  9.000E+00
#rwgt            1           1   3.1924587587253014E-002           4      246328           0
</event>
<event>
      5   9999 -3.79277E-02  1.59545E+02 -1.00000E+00  1.15342E-01
      21    -1     0     0   502   512  0.000000000E+00  0.000000000E+00  7.453723434E+02  7.453723434E+02  0.000000000E+00  0.00000E+00  9.000E+00
      21    -1     0     0   501   502  0.000000000E+00  0.000000000E+00 -1.913441384E+02  1.913441384E+02  0.000000000E+00  0.00000E+00  9.000E+00
      25     1     1     2     0     0 -4.393980362E+01  2.600982844E+02  4.379982234E+01  2.951698635E+02  1.250000000E+02  0.00000E+00  9.000E+00
      25     1     1     2     0     0  1.329261911E+02 -1.276740544E+02  2.374952852E+02  3.255749483E+02  1.250000000E+02  0.00000E+00  9.000E+00
      21     1     1     2   501   512 -8.898638751E+01 -1.324242300E+02  2.727330974E+02  3.159716701E+02  0.000000000E+00  0.00000E+00  9.000E+00
#rwgt            1           1  -6.7142621364853231E-002           4      246400           0
</event>
<event>
      5   9999  3.79277E-02  6.21889E+00 -1.00000E+00  2.23082E-01
      21    -1     0     0   502   501  0.000000000E+00  0.000000000E+00  3.106150495E+02  3.106150495E+02  0.000000000E+00  0.00000E+00  9.000E+00
      21    -1     0     0   501   511  0.000000000E+00  0.000000000E+00 -3.146385084E+02  3.146385084E+02  0.000000000E+00  0.00000E+00  9.000E+00
      25     1     1     2     0     0 -1.219208854E+02  8.959119167E+01  2.332636306E+02  3.048412789E+02  1.250000000E+02  0.00000E+00  9.000E+00
      25     1     1     2     0     0  1.275882577E+02 -9.215156752E+01 -2.033648625E+02  2.859247142E+02  1.250000000E+02  0.00000E+00  9.000E+00
      21     1     1     2   502   511 -5.667372325E+00  2.560375849E+00 -3.392222706E+01  3.448756475E+01  4.768371582E-07  0.00000E+00  9.000E+00
#rwgt            1           1   3.9341145087970875E-002           4      246515           0
</event>
<event>
      5   9999  3.79277E-02  1.43584E+01 -1.00000E+00  1.79191E-01
      21    -1     0     0   502   512  0.000000000E+00  0.000000000E+00  8.843084228E+02  8.843084228E+02  0.000000000E+00  0.00000E+00  9.000E+00
      21    -1     0     0   501   502  0.000000000E+00  0.000000000E+00 -1.033967114E+02  1.033967114E+02  0.000000000E+00  0.00000E+00  9.000E+00
      25     1     1     2     0     0  1.124444761E+02 -2.129762776E+02  4.342011146E+02  5.120139284E+02  1.250000000E+02  0.00000E+00  9.000E+00
      25     1     1     2     0     0 -9.842036415E+01  2.160563964E+02  2.167063997E+02  3.448965035E+02  1.250000000E+02  0.00000E+00  9.000E+00
      21     1     1     2   501   512 -1.402411199E+01 -3.080118754E+00  1.300041972E+02  1.307947022E+02  2.697398305E-06  0.00000E+00  9.000E+00
#rwgt            1           1   2.7378615289650556E-002           4      246818           0
</event>
<event>
      5   9999  3.79277E-02  1.13522E+02 -1.00000E+00  1.21400E-01
      21    -1     0     0   502   501  0.000000000E+00  0.000000000E+00  2.141944530E+02  2.141944530E+02  0.000000000E+00  0.00000E+00  9.000E+00
      21    -1     0     0   501   511  0.000000000E+00  0.000000000E+00 -3.156232600E+02  3.156232600E+02  0.000000000E+00  0.00000E+00  9.000E+00
      25     1     1     2     0     0  1.587677962E+01  6.505645320E+01 -1.507905466E+02  2.069956598E+02  1.250000000E+02  0.00000E+00  9.000E+00
      25     1     1     2     0     0 -5.846429714E+01  4.017444390E+01  1.216001899E+02  1.882648830E+02  1.250000000E+02  0.00000E+00  9.000E+00
      21     1     1     2   502   511  4.258751751E+01 -1.052308971E+02 -7.223845027E+01  1.345571702E+02  2.132480600E-06  0.00000E+00  9.000E+00
#rwgt            2          11   2.1881774323469576E-003           4      247004           0
</event>
<event>
      5   9999  3.79277E-02  1.26748E+02 -1.00000E+00  1.19368E-01
      21    -1     0     0   502   501  0.000000000E+00  0.000000000E+00  4.525006573E+02  4.525006573E+02  0.000000000E+00  0.00000E+00  9.000E+00
      21    -1     0     0   512   502  0.000000000E+00  0.000000000E+00 -2.095014615E+02  2.095014615E+02  0.000000000E+00  0.00000E+00  9.000E+00
      25     1     1     2     0     0 -6.319456066E+01  2.123337822E+01  5.154931862E+00  1.417602983E+02  1.250000000E+02  0.00000E+00  9.000E+00
      25     1     1     2     0     0  1.354840966E+02  8.287813351E+01  3.132246157E+02  3.727725651E+02  1.250000000E+02  0.00000E+00  9.000E+00
      21     1     1     2   512   501 -7.228953591E+01 -1.041115117E+02 -7.538035164E+01  1.474692554E+02  3.162979880E-06  0.00000E+00  9.000E+00
#rwgt            1           1   3.9497409887914052E-002           4      247129           0
</event>
<event>
      5   9999  3.79277E-02  5.77986E+00 -1.00000E+00  2.28023E-01
      21    -1     0     0   502   501  0.000000000E+00  0.000000000E+00  4.866945716E+01  4.866945716E+01  0.000000000E+00  0.00000E+00  9.000E+00
       2    -1     0     0   501     0  0.000000000E+00  0.000000000E+00 -1.116757946E+03  1.116757946E+03  0.000000000E+00  0.00000E+00  9.000E+00
      25     1     1     2     0     0  1.998073550E+01  2.487817635E+01 -3.787968339E+02  4.001627105E+02  1.250000000E+02  0.00000E+00  9.000E+00
      25     1     1     2     0     0 -1.562413489E+01 -2.107991066E+01 -6.942863821E+01  1.453747297E+02  1.250000000E+02  0.00000E+00  9.000E+00
       2     1     1     2   502     0 -4.356600603E+00 -3.798265687E+00 -6.198630170E+02  6.198899633E+02  7.629394531E-06  0.00000E+00  9.000E+00
#rwgt            1           1   3.6565492123324612E-002           4      247255           0
</event>
<event>
      5   9999  3.79277E-02  1.59785E+01 -1.00000E+00  1.74837E-01
      21    -1     0     0   502   501  0.000000000E+00  0.000000000E+00  7.114978228E+01  7.114978228E+01  0.000000000E+00  0.00000E+00  9.000E+00
      21    -1     0     0   501   511  0.000000000E+00  0.000000000E+00 -5.801813907E+02  5.801813907E+02  0.000000000E+00  0.00000E+00  9.000E+00
      25     1     1     2     0     0 -3.652869122E+01  1.375744133E+02 -2.124183725E+02  2.846183927E+02  1.250000000E+02  0.00000E+00  9.000E+00
      25     1     1     2     0     0  4.903499342E+01 -1.475194402E+02 -2.704760752E+02  3.360784478E+02  1.250000000E+02  0.00000E+00  9.000E+00
      21     1     1     2   502   511 -1.250630221E+01  9.945026920E+00 -2.613716074E+01  3.063433248E+01  5.840038640E-07  0.00000E+00  9.000E+00
#rwgt            1           1   2.5849257856672556E-002           4      247529           0
</event>
<event>
      5   9999  3.79277E-02  1.23462E+02 -1.00000E+00  1.19846E-01
      21    -1     0     0   502   501  0.000000000E+00  0.000000000E+00  2.145972611E+02  2.145972611E+02  0.000000000E+00  0.00000E+00  9.000E+00
      21    -1     0     0   512   502  0.000000000E+00  0.000000000E+00 -6.637589112E+02  6.637589112E+02  0.000000000E+00  0.00000E+00  9.000E+00
      25     1     1     2     0     0 -1.368646342E+01 -1.031502866E+02  1.391262647E+02  2.140290131E+02  1.250000000E+02  0.00000E+00  9.000E+00
      25     1     1     2     0     0 -5.602000771E+01  1.249017973E+00 -1.269856989E+02  1.867891031E+02  1.250000000E+02  0.00000E+00  9.000E+00
      21     1     1     2   512   501  6.970647113E+01  1.019012686E+02 -4.613022159E+02  4.775380561E+02  0.000000000E+00  0.00000E+00  9.000E+00
#rwgt            1           1   3.2958700860375688E-002           4      247794           0
</event>
<event>
      5   9999  3.79277E-02  6.15700E+01 -1.00000E+00  1.34107E-01
      21    -1     0     0   502   501  0.000000000E+00  0.000000000E+00  7.356363145E+02  7.356363145E+02  0.000000000E+00  0.00000E+00  9.000E+00
      21    -1     0     0   511   502  0.000000000E+00  0.000000000E+00 -5.446494443E+02  5.446494443E+02  0.000000000E+00  0.00000E+00  9.000E+00
      25     1     1     2     0     0  5.120165971E+01  1.609413560E+02  5.918740726E+02  6.280634107E+02  1.250000000E+02  0.00000E+00  9.000E+00
      25     1     1     2     0     0 -2.552552205E+01 -2.169020968E+02 -5.118272933E+00  2.516928060E+02  1.250000000E+02  0.00000E+00  9.000E+00
      21     1     1     2   511   501 -2.567613766E+01  5.596074074E+01 -3.957689295E+02  4.005295421E+02  5.394796609E-06  0.00000E+00  9.000E+00
#rwgt            1           1   4.9015883057471253E-002           4      247933           0
</event>
<event>
      5   9999  3.79277E-02  4.66375E+01 -1.00000E+00  1.40823E-01
      21    -1     0     0   502   501  0.000000000E+00  0.000000000E+00  9.214948648E+02  9.214948648E+02  0.000000000E+00  0.00000E+00  9.000E+00
      21    -1     0     0   501   512  0.000000000E+00  0.000000000E+00 -9.667312860E+01  9.667312860E+01  0.000000000E+00  0.00000E+00  9.000E+00
      25     1     1     2     0     0  1.255022640E+02 -1.645528664E+02  3.343630973E+02  4.126162199E+02  1.250000000E+02  0.00000E+00  9.000E+00
      25     1     1     2     0     0 -1.719133332E+02  1.599623160E+02  4.915324632E+02  5.589018689E+02  1.250000000E+02  0.00000E+00  9.000E+00
      21     1     1     2   502   512  4.641106925E+01  4.590550390E+00 -1.073824267E+00  4.664990461E+01  1.133272251E-06  0.00000E+00  9.000E+00
#rwgt            1           1   2.2422818888098134E-002           4      248104           0
</event>
<event>
      5   9999  3.79277E-02  1.85850E+01 -1.00000E+00  1.69042E-01
      21    -1     0     0   502   501  0.000000000E+00  0.000000000E+00  4.533725715E+01  4.533725715E+01  0.000000000E+00  0.00000E+00  9.000E+00
      21    -1     0     0   501   511  0.000000000E+00  0.000000000E+00 -8.185968951E+02  8.185968951E+02  0.000000000E+00  0.00000E+00  9.000E+00
      25     1     1     2     0     0 -1.119600533E+01 -1.170417559E+02 -2.473325283E+02  3.010357167E+02  1.250000000E+02  0.00000E+00  9.000E+00
      25     1     1     2     0     0  6.618842578E-01  1.323530536E+02 -4.767765179E+02  5.103514641E+02  1.250000000E+02  0.00000E+00  9.000E+00
      21     1     1     2   502   511  1.053412107E+01 -1.531129762E+01 -4.915059176E+01  5.254697148E+01  6.743495762E-07  0.00000E+00  9.000E+00
#rwgt            1           1   2.2464246418769679E-002           4      248223           0
</event>
<event>
      5   9999  3.79277E-02  9.15270E+01 -1.00000E+00  1.25582E-01
       1    -1     0     0   502     0  0.000000000E+00  0.000000000E+00  6.838120026E+02  6.838120026E+02  0.000000000E+00  0.00000E+00  9.000E+00
      21    -1     0     0   501   502  0.000000000E+00  0.000000000E+00 -1.017914368E+02  1.017914368E+02  0.000000000E+00  0.00000E+00  9.000E+00
      25     1     1     2     0     0  1.619047917E+02  6.378559015E+01  1.097656133E+02  2.407389726E+02  1.250000000E+02  0.00000E+00  9.000E+00
      25     1     1     2     0     0 -9.903153762E+01  2.728703206E+00  3.917318643E+02  4.229580886E+02  1.250000000E+02  0.00000E+00  9.000E+00
       1     1     1     2   501     0 -6.287325403E+01 -6.651429336E+01  8.052308818E+01  1.219063781E+02  2.132480600E-06  0.00000E+00  9.000E+00
#rwgt            1           1   2.8076119995614934E-002           4      248535           0
</event>
<event>
      5   9999  3.79277E-02  6.19358E+01 -1.00000E+00  1.33971E-01
      21    -1     0     0   502   501  0.000000000E+00  0.000000000E+00  1.525133817E+03  1.525133817E+03  0.000000000E+00  0.00000E+00  9.000E+00
      21    -1     0     0   501   511  0.000000000E+00  0.000000000E+00 -5.969900843E+01  5.969900843E+01  0.000000000E+00  0.00000E+00  9.000E+00
      25     1     1     2     0     0 -1.586593796E+02 -9.052345877E+01  4.288621658E+02  4.826127356E+02  1.250000000E+02  0.00000E+00  9.000E+00
      25     1     1     2     0     0  1.853534768E+02  1.464114165E+02  9.880150081E+02  1.023518867E+03  1.250000000E+02  0.00000E+00  9.000E+00
      21     1     1     2   502   511 -2.669409720E+01 -5.588795778E+01  4.855763487E+01  7.870122333E+01  1.784161275E-06  0.00000E+00  9.000E+00
#rwgt            1           1  0.30267246577821272                4      248625           0
</event>
<event>
      5   9999  3.79277E-02  3.40226E+01 -1.00000E+00  1.49339E-01
      21    -1     0     0   512   501  0.000000000E+00  0.000000000E+00  3.081920086E+03  3.081920086E+03  0.000000000E+00  0.00000E+00  9.000E+00
      21    -1     0     0   501   502  0.000000000E+00  0.000000000E+00 -1.953168189E+01  1.953168189E+01  0.000000000E+00  0.00000E+00  9.000E+00
      25     1     1     2     0     0 -1.546119818E+02  5.736612834E+01  9.543404569E+02  9.765175089E+02  1.250000000E+02  0.00000E+00  9.000E+00
      25     1     1     2     0     0  1.285773495E+02 -3.546329999E+01  1.013191646E+03  1.029549461E+03  1.250000000E+02  0.00000E+00  9.000E+00
      21     1     1     2   512   502  2.603463236E+01 -2.190282835E+01  1.094856301E+03  1.095384798E+03  1.525878906E-05  0.00000E+00  9.000E+00
#rwgt            1           1  0.14127668752902894                4      248749           0
</event>
<event>
      5   9999  3.79277E-02  2.76093E+01 -1.00000E+00  1.55588E-01
      21    -1     0     0   511   501  0.000000000E+00  0.000000000E+00  7.085874800E+01  7.085874800E+01  0.000000000E+00  0.00000E+00  9.000E+00
      21    -1     0     0   501   502  0.000000000E+00  0.000000000E+00 -1.173888135E+03  1.173888135E+03  0.000000000E+00  0.00000E+00  9.000E+00
      25     1     1     2     0     0  2.048349644E+02 -6.962118158E+01 -2.749214659E+02  3.714986998E+02  1.250000000E+02  0.00000E+00  9.000E+00
      25     1     1     2     0     0 -1.924330763E+02  4.495401770E+01 -8.014695945E+02  8.348831436E+02  1.250000000E+02  0.00000E+00  9.000E+00
      21     1     1     2   511   502 -1.240188819E+01  2.466716389E+01 -2.663832617E+01  3.836503911E+01  5.840038640E-07  0.00000E+00  9.000E+00
#rwgt            1           1   2.9007848986691218E-002           4      248873           0
</event>
<event>
      5   9999  3.79277E-02  3.12956E+01 -1.00000E+00  1.51775E-01
      21    -1     0     0   502   512  0.000000000E+00  0.000000000E+00  1.016072645E+03  1.016072645E+03  0.000000000E+00  0.00000E+00  9.000E+00
      21    -1     0     0   501   502  0.000000000E+00  0.000000000E+00 -8.623271594E+01  8.623271594E+01  0.000000000E+00  0.00000E+00  9.000E+00
      25     1     1     2     0     0  2.155207865E+02  7.770677189E+01  4.868256315E+02  5.523692128E+02  1.250000000E+02  0.00000E+00  9.000E+00
      25     1     1     2     0     0 -2.468158754E+02 -7.787884306E+01  3.564703331E+02  4.579075114E+02  1.250000000E+02  0.00000E+00  9.000E+00
      21     1     1     2   501   512  3.129508890E+01  1.720711733E-01  8.654396456E+01  9.202863685E+01  1.348699152E-06  0.00000E+00  9.000E+00
#rwgt            1           1   4.0273759099500352E-002           4      249087           0
</event>
<event>
      5   9999  3.79277E-02  2.34297E+01 -1.00000E+00  1.60890E-01
      21    -1     0     0   502   501  0.000000000E+00  0.000000000E+00  3.952873035E+02  3.952873035E+02  0.000000000E+00  0.00000E+00  9.000E+00
      21    -1     0     0   501   511  0.000000000E+00  0.000000000E+00 -3.286181557E+02  3.286181557E+02  0.000000000E+00  0.00000E+00  9.000E+00
      25     1     1     2     0     0  2.862793683E+02 -9.377806817E+01 -4.734954273E+01  3.295712093E+02  1.250000000E+02  0.00000E+00  9.000E+00
      25     1     1     2     0     0 -2.723691082E+02  1.126316029E+02  1.482853046E+02  3.528233845E+02  1.250000000E+02  0.00000E+00  9.000E+00
      21     1     1     2   502   511 -1.391026014E+01 -1.885353478E+01 -3.426661408E+01  4.151086546E+01  6.743495762E-07  0.00000E+00  9.000E+00
#rwgt            1           1   4.1638148531320925E-002           4      249273           0
</event>
<event>
      5   9999  3.79277E-02  2.22283E+01 -1.00000E+00  1.62671E-01
      21    -1     0     0   502   501  0.000000000E+00  0.000000000E+00  4.726601355E+02  4.726601355E+02  0.000000000E+00  0.00000E+00  9.000E+00
      21    -1     0     0   501   512  0.000000000E+00  0.000000000E+00 -3.913228800E+02  3.913228800E+02  0.000000000E+00  0.00000E+00  9.000E+00
      25     1     1     2     0     0  1.538727236E+02  1.356318592E+02  1.655143866E+02  2.917067508E+02  1.250000000E+02  0.00000E+00  9.000E+00
      25     1     1     2     0     0 -1.536713981E+02 -1.578592863E+02  1.777279485E+02  3.094295987E+02  1.250000000E+02  0.00000E+00  9.000E+00
      21     1     1     2   502   512 -2.013254827E-01  2.222742709E+01 -2.619050797E+02  2.628466660E+02  5.394796609E-06  0.00000E+00  9.000E+00
#rwgt            1           1   3.9185660940488462E-002           4      249473           0
</event>
<event>
      5   9999 -3.79277E-02  4.92355E+01 -1.00000E+00  1.39458E-01
      21    -1     0     0   502   501  0.000000000E+00  0.000000000E+00  9.455159537E+01  9.455159537E+01  0.000000000E+00  0.00000E+00  9.000E+00
       2    -1     0     0   501     0  0.000000000E+00  0.000000000E+00 -1.724560139E+03  1.724560139E+03  0.000000000E+00  0.00000E+00  9.000E+00
      25     1     1     2     0     0 -2.132955232E+01 -1.661857929E+02 -1.430251080E+03  1.445446581E+03  1.250000000E+02  0.00000E+00  9.000E+00
      25     1     1     2     0     0  2.777997396E+01  2.149969653E+02 -1.144551382E+02  2.751734011E+02  1.250000000E+02  0.00000E+00  9.000E+00
       2     1     1     2   502     0 -6.450421639E+00 -4.881117236E+01 -8.530232600E+01  9.849175248E+01  9.536743164E-07  0.00000E+00  9.000E+00
#rwgt            1           1  -3.7828089247227262E-002           4      249625           0
</event>
<event>
      5   9999  3.79277E-02  1.72607E+01 -1.00000E+00  1.71826E-01
      21    -1     0     0   502   501  0.000000000E+00  0.000000000E+00  2.374664728E+02  2.374664728E+02  0.000000000E+00  0.00000E+00  9.000E+00
       1    -1     0     0   501     0  0.000000000E+00  0.000000000E+00 -2.877650325E+02  2.877650325E+02  0.000000000E+00  0.00000E+00  9.000E+00
      25     1     1     2     0     0  8.955233292E+01 -1.444041592E+01  1.460588258E+02  2.125707565E+02  1.250000000E+02  0.00000E+00  9.000E+00
      25     1     1     2     0     0 -7.234339360E+01  1.577655905E+01 -3.376677544E+01  1.491565002E+02  1.250000000E+02  0.00000E+00  9.000E+00
       1     1     1     2   502     0 -1.720893932E+01 -1.336143128E+00 -1.625906100E+02  1.635042487E+02  1.907348633E-06  0.00000E+00  9.000E+00
#rwgt            1           1   4.0402211426755756E-002           4      249844           0
</event>
<event>
      5   9999  3.79277E-02  5.13018E+00 -1.00000E+00  2.36582E-01
      21    -1     0     0   502   511  0.000000000E+00  0.000000000E+00  1.089596335E+02  1.089596335E+02  0.000000000E+00  0.00000E+00  9.000E+00
      21    -1     0     0   501   502  0.000000000E+00  0.000000000E+00 -3.901215394E+02  3.901215394E+02  0.000000000E+00  0.00000E+00  9.000E+00
      25     1     1     2     0     0 -5.580847778E+01  1.328135179E+02 -7.585014325E+01  2.052614454E+02  1.250000000E+02  0.00000E+00  9.000E+00
      25     1     1     2     0     0  5.827896364E+01 -1.373096811E+02 -2.103910972E+02  2.866004185E+02  1.250000000E+02  0.00000E+00  9.000E+00
      21     1     1     2   501   511 -2.470485864E+00  4.496163126E+00  5.079334464E+00  7.219308960E+00  1.032382731E-07  0.00000E+00  9.000E+00
#rwgt            1           1   3.3274225497898449E-002           4      250011           0
</event>
<event>
      5   9999  3.79277E-02  8.41928E+01 -1.00000E+00  1.27285E-01
      21    -1     0     0   502   501  0.000000000E+00  0.000000000E+00  3.669622254E+02  3.669622254E+02  0.000000000E+00  0.00000E+00  9.000E+00
       2    -1     0     0   501     0  0.000000000E+00  0.000000000E+00 -1.442151519E+03  1.442151519E+03  0.000000000E+00  0.00000E+00  9.000E+00
      25     1     1     2     0     0  1.374692633E+02  1.275250975E+02 -6.262077512E+01  2.338948702E+02  1.250000000E+02  0.00000E+00  9.000E+00
      25     1     1     2     0     0 -1.755422916E+02 -2.026175666E+02  2.017109419E+02  3.580241312E+02  1.250000000E+02  0.00000E+00  9.000E+00
       2     1     1     2   502     0  3.807302831E+01  7.509246905E+01 -1.214279461E+03  1.217194743E+03  2.642899792E-05  0.00000E+00  9.000E+00
#rwgt            1           1   3.7621104909185757E-002           4      250365           0
</event>
<event>
      5   9999  3.79277E-02  5.55754E+01 -1.00000E+00  1.36506E-01
      21    -1     0     0   502   501  0.000000000E+00  0.000000000E+00  1.823776835E+02  1.823776835E+02  0.000000000E+00  0.00000E+00  9.000E+00
      21    -1     0     0   511   502  0.000000000E+00  0.000000000E+00 -2.528154249E+02  2.528154249E+02  0.000000000E+00  0.00000E+00  9.000E+00
      25     1     1     2     0     0 -1.086523766E+02  3.209312131E+01  3.854984053E+01  1.730502747E+02  1.250000000E+02  0.00000E+00  9.000E+00
      25     1     1     2     0     0  6.580972467E+01 -6.749275759E+01 -2.084465359E+01  1.579420519E+02  1.250000000E+02  0.00000E+00  9.000E+00
      21     1     1     2   511   501  4.284265197E+01  3.539963628E+01 -8.814292842E+01  1.042007817E+02  1.348699152E-06  0.00000E+00  9.000E+00
#rwgt            1           1   4.7980688414622746E-002           4      250485           0
</event>
<event>
      5   9999  3.79277E-02  2.18620E+02 -1.00000E+00  1.10259E-01
      21    -1     0     0   512   501  0.000000000E+00  0.000000000E+00  7.539966808E+02  7.539966808E+02  0.000000000E+00  0.00000E+00  9.000E+00
      21    -1     0     0   501   502  0.000000000E+00  0.000000000E+00 -7.106455579E+02  7.106455579E+02  0.000000000E+00  0.00000E+00  9.000E+00
      25     1     1     2     0     0  7.573816848E+01 -6.740833028E+01 -2.544605896E+00  1.609708923E+02  1.250000000E+02  0.00000E+00  9.000E+00
      25     1     1     2     0     0  3.828019415E+01  2.539413177E+02 -5.768388113E+02  6.436766116E+02  1.250000000E+02  0.00000E+00  9.000E+00
      21     1     1     2   512   502 -1.140183626E+02 -1.865329874E+02  6.227345401E+02  6.599947347E+02  7.629394531E-06  0.00000E+00  9.000E+00
#rwgt            1           1   3.7291650182276433E-002           4      250660           0
</event>
<event>
      5   9999  3.79277E-02  6.98178E+01 -1.00000E+00  1.31278E-01
      21    -1     0     0   502   501  0.000000000E+00  0.000000000E+00  3.895788566E+01  3.895788566E+01  0.000000000E+00  0.00000E+00  9.000E+00
      21    -1     0     0   511   502  0.000000000E+00  0.000000000E+00 -2.084998691E+03  2.084998691E+03  0.000000000E+00  0.00000E+00  9.000E+00
      25     1     1     2     0     0 -1.462315862E+02 -1.127126357E+02 -6.171367921E+02  6.561788134E+02  1.250000000E+02  0.00000E+00  9.000E+00
      25     1     1     2     0     0  8.268446385E+01  1.416312599E+02 -5.719935051E+02  6.080277167E+02  1.250000000E+02  0.00000E+00  9.000E+00
      21     1     1     2   511   501  6.354712234E+01 -2.891862417E+01 -8.569105077E+02  8.597500461E+02  0.000000000E+00  0.00000E+00  9.000E+00
#rwgt            1           1   4.7043833252315842E-002           4      250698           0
</event>
<event>
      5   9999  3.79277E-02  2.40406E+01 -1.00000E+00  1.60034E-01
      21    -1     0     0   512   501  0.000000000E+00  0.000000000E+00  8.959128209E+01  8.959128209E+01  0.000000000E+00  0.00000E+00  9.000E+00
      21    -1     0     0   501   502  0.000000000E+00  0.000000000E+00 -8.696816788E+02  8.696816788E+02  0.000000000E+00  0.00000E+00  9.000E+00
      25     1     1     2     0     0 -7.255055998E+01 -3.631157830E+00 -7.279689320E+02  7.421863210E+02  1.250000000E+02  0.00000E+00  9.000E+00
      25     1     1     2     0     0  7.995335645E+01 -1.924127420E+01 -8.823406393E+01  1.737038165E+02  1.250000000E+02  0.00000E+00  9.000E+00
      21     1     1     2   512   502 -7.402796470E+00  2.287243203E+01  3.611259923E+01  4.338282340E+01  9.536743164E-07  0.00000E+00  9.000E+00
#rwgt            1           1   4.5433814764056418E-002           4      250954           0
</event>
<event>
      5   9999  3.79277E-02  4.25984E+01 -1.00000E+00  1.43165E-01
      21    -1     0     0   502   501  0.000000000E+00  0.000000000E+00  3.991161328E+02  3.991161328E+02  0.000000000E+00  0.00000E+00  9.000E+00
       1    -1     0     0   501     0  0.000000000E+00  0.000000000E+00 -2.229514523E+02  2.229514523E+02  0.000000000E+00  0.00000E+00  9.000E+00
      25     1     1     2     0     0 -7.874366046E+01 -9.173953861E+01 -2.266885145E+01  1.753726998E+02  1.250000000E+02  0.00000E+00  9.000E+00
      25     1     1     2     0     0  4.298723750E+01  6.858563647E+01  3.010984780E+02  3.359124672E+02  1.250000000E+02  0.00000E+00  9.000E+00
       1     1     1     2   502     0  3.575642296E+01  2.315390215E+01 -1.022649461E+02  1.107824182E+02  1.348699152E-06  0.00000E+00  9.000E+00
#rwgt            1           1   2.8592851880651887E-002           4      251096           0
</event>
<event>
      5   9999  3.79277E-02  7.46050E+01 -1.00000E+00  1.29834E-01
      21    -1     0     0   511   501  0.000000000E+00  0.000000000E+00  2.318284410E+03  2.318284410E+03  0.000000000E+00  0.00000E+00  9.000E+00
      21    -1     0     0   501   502  0.000000000E+00  0.000000000E+00 -4.592039343E+01  4.592039343E+01  0.000000000E+00  0.00000E+00  9.000E+00
      25     1     1     2     0     0 -2.356046714E+02  1.455662222E+02  9.319255796E+02  9.802088411E+02  1.250000000E+02  0.00000E+00  9.000E+00
      25     1     1     2     0     0  2.004626830E+02 -7.975627919E+01  7.870765268E+02  8.256275252E+02  1.250000000E+02  0.00000E+00  9.000E+00
      21     1     1     2   511   502  3.514198843E+01 -6.580994302E+01  5.533619097E+02  5.583684366E+02  0.000000000E+00  0.00000E+00  9.000E+00
#rwgt            1           1   3.1456679832238189E-002           4      251207           0
</event>
<event>
      5   9999  3.79277E-02  2.80014E+01 -1.00000E+00  1.55149E-01
      21    -1     0     0   502   501  0.000000000E+00  0.000000000E+00  9.012280281E+01  9.012280281E+01  0.000000000E+00  0.00000E+00  9.000E+00
      21    -1     0     0   512   502  0.000000000E+00  0.000000000E+00 -7.402297618E+02  7.402297618E+02  0.000000000E+00  0.00000E+00  9.000E+00
      25     1     1     2     0     0 -3.616700885E+01  4.681283378E+01 -1.065084030E+01  1.387008808E+02  1.250000000E+02  0.00000E+00  9.000E+00
      25     1     1     2     0     0  3.471468306E+01 -7.477652377E+01 -1.927954244E+02  2.441141401E+02  1.250000000E+02  0.00000E+00  9.000E+00
      21     1     1     2   512   501  1.452325787E+00  2.796368998E+01 -4.466606943E+02  4.475375437E+02  5.394796609E-06  0.00000E+00  9.000E+00
#rwgt            1           1   4.3011276621233337E-002           4      251265           0
</event>
<event>
      5   9999  3.79277E-02  1.12959E+02 -1.00000E+00  1.21494E-01
       3    -1     0     0   502     0  0.000000000E+00  0.000000000E+00  4.111340741E+02  4.111340741E+02  0.000000000E+00  0.00000E+00  9.000E+00
      21    -1     0     0   501   502  0.000000000E+00  0.000000000E+00 -3.369753266E+02  3.369753266E+02  0.000000000E+00  0.00000E+00  9.000E+00
      25     1     1     2     0     0 -1.689726140E+02  6.441906670E+01 -1.124293816E+02  2.469148158E+02  1.250000000E+02  0.00000E+00  9.000E+00
      25     1     1     2     0     0  2.088928811E+02 -1.700893214E+02  1.703458700E+01  2.974588882E+02  1.250000000E+02  0.00000E+00  9.000E+00
       3     1     1     2   501     0 -3.992026709E+01  1.056702547E+02  1.695535420E+02  2.037356966E+02  2.697398305E-06  0.00000E+00  9.000E+00
#rwgt            1           1   2.8536472085840585E-002           4      251436           0
</event>
<event>
      5   9999  3.79277E-02  3.43665E+01 -1.00000E+00  1.49051E-01
      21    -1     0     0   502   501  0.000000000E+00  0.000000000E+00  7.295991406E+02  7.295991406E+02  0.000000000E+00  0.00000E+00  9.000E+00
      21    -1     0     0   511   502  0.000000000E+00  0.000000000E+00 -8.622880388E+01  8.622880388E+01  0.000000000E+00  0.00000E+00  9.000E+00
      25     1     1     2     0     0 -7.353501499E+01 -7.241651144E+01  7.388173968E+01  1.781433721E+02  1.250000000E+02  0.00000E+00  9.000E+00
      25     1     1     2     0     0  4.893883719E+01  4.841470539E+01  5.834073048E+02  6.006064241E+02  1.250000000E+02  0.00000E+00  9.000E+00
      21     1     1     2   511   501  2.459617780E+01  2.400180605E+01 -1.391870768E+01  3.707814828E+01  5.331201500E-07  0.00000E+00  9.000E+00
#rwgt            1           1   4.3465417522172291E-002           4      251507           0
</event>
<event>
      5   9999  3.79277E-02  4.35113E+02 -1.00000E+00  1.00598E-01
      21    -1     0     0   502   501  0.000000000E+00  0.000000000E+00  6.226371166E+02  6.226371166E+02  0.000000000E+00  0.00000E+00  9.000E+00
       2    -1     0     0   501     0  0.000000000E+00  0.000000000E+00 -7.167264319E+02  7.167264319E+02  0.000000000E+00  0.00000E+00  9.000E+00
      25     1     1     2     0     0  2.502120871E+00  1.469812735E+01  1.819635728E+02  2.212646320E+02  1.250000000E+02  0.00000E+00  9.000E+00
      25     1     1     2     0     0 -1.532503687E+02  3.934661683E+02  1.907911864E+02  4.799245544E+02  1.250000000E+02  0.00000E+00  9.000E+00
       2     1     1     2   502     0  1.507482478E+02 -4.081642957E+02 -4.668440745E+02  6.381743621E+02  7.629394531E-06  0.00000E+00  9.000E+00
#rwgt            1           1   3.6417463585290279E-002           4      251645           0
</event>
<event>
      5   9999  3.79277E-02  4.73741E+01 -1.00000E+00  1.40426E-01
      21    -1     0     0   502   501  0.000000000E+00  0.000000000E+00  7.135848292E+02  7.135848292E+02  0.000000000E+00  0.00000E+00  9.000E+00
      21    -1     0     0   501   511  0.000000000E+00  0.000000000E+00 -7.608893357E+02  7.608893357E+02  0.000000000E+00  0.00000E+00  9.000E+00
      25     1     1     2     0     0 -5.602275843E+01 -2.213899350E+01  6.259134423E+02  6.411094460E+02  1.250000000E+02  0.00000E+00  9.000E+00
      25     1     1     2     0     0  5.954788560E+01  6.938174554E+01  3.579213852E+00  1.549115492E+02  1.250000000E+02  0.00000E+00  9.000E+00
      21     1     1     2   502   511 -3.525127174E+00 -4.724275204E+01 -6.767971627E+02  6.784531697E+02  1.321449896E-05  0.00000E+00  9.000E+00
#rwgt            1           1   2.6642756872765246E-002           4      251674           0
</event>
<event>
      5   9999 -3.79277E-02  9.10847E+01 -1.00000E+00  1.25680E-01
      21    -1     0     0   502   501  0.000000000E+00  0.000000000E+00  5.533005026E+01  5.533005026E+01  0.000000000E+00  0.00000E+00  9.000E+00
      21    -1     0     0   501   512  0.000000000E+00  0.000000000E+00 -1.970239031E+03  1.970239031E+03  0.000000000E+00  0.00000E+00  9.000E+00
      25     1     1     2     0     0  1.975762991E+02 -1.002158740E+02 -7.302353861E+02  7.732711908E+02  1.250000000E+02  0.00000E+00  9.000E+00
      25     1     1     2     0     0 -2.811793111E+02  6.406395690E+01 -8.901727296E+02  9.440330948E+02  1.250000000E+02  0.00000E+00  9.000E+00
      21     1     1     2   502   512  8.360301199E+01  3.615191712E+01 -2.945008647E+02  3.082647953E+02  5.394796609E-06  0.00000E+00  9.000E+00
#rwgt            1           1  -9.1966615101196206E-002           4      251821           0
</event>
<event>
      5   9999  3.79277E-02  2.65322E+01 -1.00000E+00  1.56840E-01
      21    -1     0     0   502   511  0.000000000E+00  0.000000000E+00  1.341069172E+02  1.341069172E+02  0.000000000E+00  0.00000E+00  9.000E+00
      21    -1     0     0   501   502  0.000000000E+00  0.000000000E+00 -5.853763062E+02  5.853763062E+02  0.000000000E+00  0.00000E+00  9.000E+00
      25     1     1     2     0     0  1.113521417E+02  1.892298871E+02 -2.089150816E+02  3.278380102E+02  1.250000000E+02  0.00000E+00  9.000E+00
      25     1     1     2     0     0 -1.122848852E+02 -1.627140414E+02 -2.673279547E+02  3.552083756E+02  1.250000000E+02  0.00000E+00  9.000E+00
      21     1     1     2   501   511  9.327435521E-01 -2.651584567E+01  2.497364722E+01  3.643683765E+01  0.000000000E+00  0.00000E+00  9.000E+00
#rwgt            1           1   3.9880304060787491E-002           4      251903           0
</event>
<event>
      5   9999  3.79277E-02  1.04099E+02 -1.00000E+00  1.23048E-01
      21    -1     0     0   502   501  0.000000000E+00  0.000000000E+00  5.754870393E+01  5.754870393E+01  0.000000000E+00  0.00000E+00  9.000E+00
       2    -1     0     0   501     0  0.000000000E+00  0.000000000E+00 -2.368077492E+03  2.368077492E+03  0.000000000E+00  0.00000E+00  9.000E+00
      25     1     1     2     0     0  9.143191605E+01  9.886395659E+01 -1.654155656E+02  2.472269939E+02  1.250000000E+02  0.00000E+00  9.000E+00
      25     1     1     2     0     0  9.087176264E+00 -7.179719066E+01 -3.290567631E+02  3.593616099E+02  1.250000000E+02  0.00000E+00  9.000E+00
       2     1     1     2   502     0 -1.005190923E+02 -2.706676593E+01 -1.816056459E+03  1.819037592E+03  3.051757812E-05  0.00000E+00  9.000E+00
#rwgt            1           1  0.10560974567028220                4      252051           0
</event>
<event>
      5   9999  3.79277E-02  2.18106E+01 -1.00000E+00  1.63322E-01
      21    -1     0     0   511   501  0.000000000E+00  0.000000000E+00  2.587973925E+02  2.587973925E+02  0.000000000E+00  0.00000E+00  9.000E+00
      21    -1     0     0   501   502  0.000000000E+00  0.000000000E+00 -1.110193118E+02  1.110193118E+02  0.000000000E+00  0.00000E+00  9.000E+00
      25     1     1     2     0     0  2.947012835E+01  5.030924409E+01 -1.158170201E+01  1.384147547E+02  1.250000000E+02  0.00000E+00  9.000E+00
      25     1     1     2     0     0 -2.201895207E+01 -7.080757906E+01  1.313240748E+02  1.958814951E+02  1.250000000E+02  0.00000E+00  9.000E+00
      21     1     1     2   511   502 -7.451176283E+00  2.049833497E+01  2.803570795E+01  3.552045445E+01  7.539457465E-07  0.00000E+00  9.000E+00
#rwgt            1           1   4.2526315073974315E-002           4      252174           0
</event>
<event>
      5   9999  3.79277E-02  4.25195E+01 -1.00000E+00  1.43214E-01
      21    -1     0     0   502   501  0.000000000E+00  0.000000000E+00  1.808500077E+02  1.808500077E+02  0.000000000E+00  0.00000E+00  9.000E+00
      21    -1     0     0   512   502  0.000000000E+00  0.000000000E+00 -4.011916801E+02  4.011916801E+02  0.000000000E+00  0.00000E+00  9.000E+00
      25     1     1     2     0     0  2.161473129E+02 -2.889447854E+01 -1.177098184E+02  2.775520728E+02  1.250000000E+02  0.00000E+00  9.000E+00
      25     1     1     2     0     0 -1.742909690E+02  3.637471779E+01 -2.900787552E+01  2.194696307E+02  1.250000000E+02  0.00000E+00  9.000E+00
      21     1     1     2   512   501 -4.185634390E+01 -7.480239248E+00 -7.362397859E+01  8.501998428E+01  0.000000000E+00  0.00000E+00  9.000E+00
#rwgt            1           1   3.4431599806422575E-002           4      252375           0
</event>
<event>
      5   9999  3.79277E-02  2.76983E+01 -1.00000E+00  1.55487E-01
       2    -1     0     0   502     0  0.000000000E+00  0.000000000E+00  1.238665966E+03  1.238665966E+03  0.000000000E+00  0.00000E+00  9.000E+00
      21    -1     0     0   501   502  0.000000000E+00  0.000000000E+00 -2.149537526E+02  2.149537526E+02  0.000000000E+00  0.00000E+00  9.000E+00
      25     1     1     2     0     0  1.265610160E+02 -2.068774578E+02  7.238214304E+00  2.729347267E+02  1.250000000E+02  0.00000E+00  9.000E+00
      25     1     1     2     0     0 -1.492801715E+02  2.227216022E+02  1.853456836E+02  3.490952651E+02  1.250000000E+02  0.00000E+00  9.000E+00
       2     1     1     2   501     0  2.271915551E+01 -1.584414444E+01  8.311283151E+02  8.315897264E+02  1.525878906E-05  0.00000E+00  9.000E+00
#rwgt            1           1   3.5922756289940398E-002           4      252457           0
</event>
<event>
      5   9999  3.79277E-02  6.82841E+01 -1.00000E+00  1.31769E-01
      21    -1     0     0   502   511  0.000000000E+00  0.000000000E+00  1.331506072E+02  1.331506072E+02  0.000000000E+00  0.00000E+00  9.000E+00
      21    -1     0     0   501   502  0.000000000E+00  0.000000000E+00 -8.159796839E+02  8.159796839E+02  0.000000000E+00  0.00000E+00  9.000E+00
      25     1     1     2     0     0 -2.319815068E+02  6.742533842E+00 -5.940998016E+02  6.499541950E+02  1.250000000E+02  0.00000E+00  9.000E+00
      25     1     1     2     0     0  1.678873282E+02  1.680868481E+01 -9.525637966E+01  2.305807120E+02  1.250000000E+02  0.00000E+00  9.000E+00
      21     1     1     2   501   511  6.409417861E+01 -2.355121865E+01  6.527104522E+00  6.859538414E+01  1.105501472E-06  0.00000E+00  9.000E+00
#rwgt            1           1  0.30813253223411952                4      252691           0
</event>
<event>
      5   9999  3.79277E-02  8.06318E+01 -1.00000E+00  1.28184E-01
      21    -1     0     0   502   512  0.000000000E+00  0.000000000E+00  4.294164926E+02  4.294164926E+02  0.000000000E+00  0.00000E+00  9.000E+00
      21    -1     0     0   501   502  0.000000000E+00  0.000000000E+00 -3.175931692E+02  3.175931692E+02  0.000000000E+00  0.00000E+00  9.000E+00
      25     1     1     2     0     0 -8.295928796E+01 -2.496179332E+02 -6.549137057E-01  2.912332140E+02  1.250000000E+02  0.00000E+00  9.000E+00
      25     1     1     2     0     0  7.038884724E+01  1.699720080E+02 -8.838268916E+01  2.393356911E+02  1.250000000E+02  0.00000E+00  9.000E+00
      21     1     1     2   501   512  1.257044072E+01  7.964592524E+01  2.008609264E+02  2.164407566E+02  2.697398305E-06  0.00000E+00  9.000E+00
#rwgt            1           1  0.23860089015693961                4      252824           0
</event>
<event>
      5   9999  3.79277E-02  1.20336E+01 -1.00000E+00  1.86900E-01
       1    -1     0     0   502     0  0.000000000E+00  0.000000000E+00  6.493705070E+02  6.493705070E+02  0.000000000E+00  0.00000E+00  9.000E+00
      21    -1     0     0   501   502  0.000000000E+00  0.000000000E+00 -1.235689092E+02  1.235689092E+02  0.000000000E+00  0.00000E+00  9.000E+00
      25     1     1     2     0     0 -5.748237900E+01  8.706675655E+01  5.046942959E+02  5.303076243E+02  1.250000000E+02  0.00000E+00  9.000E+00
      25     1     1     2     0     0  4.791734108E+01 -9.436867190E+01 -4.942299723E+01  1.710822915E+02  1.250000000E+02  0.00000E+00  9.000E+00
       1     1     1     2   501     0  9.565037918E+00  7.301915346E+00  7.053029916E+01  7.154950047E+01  1.348699152E-06  0.00000E+00  9.000E+00
#rwgt            1           1   4.5551063888148176E-002           4      252915           0
</event>
<event>
      5   9999  3.79277E-02  3.16468E+01 -1.00000E+00  1.51445E-01
      21    -1     0     0   502   501  0.000000000E+00  0.000000000E+00  2.589879919E+02  2.589879919E+02  0.000000000E+00  0.00000E+00  9.000E+00
      21    -1     0     0   501   511  0.000000000E+00  0.000000000E+00 -3.188727816E+02  3.188727816E+02  0.000000000E+00  0.00000E+00  9.000E+00
      25     1     1     2     0     0 -2.009443586E+02  1.114799041E+02  1.340122946E+01  2.619370100E+02  1.250000000E+02  0.00000E+00  9.000E+00
      25     1     1     2     0     0  2.256896598E+02 -9.175204959E+01 -5.473441710E+01  2.792402506E+02  1.250000000E+02  0.00000E+00  9.000E+00
      21     1     1     2   502   511 -2.474530127E+01 -1.972785447E+01 -1.855160205E+01  3.668351285E+01  6.307962682E-07  0.00000E+00  9.000E+00
#rwgt            1           1   4.3170778919137544E-002           4      253289           0
</event>
<event>
      5   9999  3.79277E-02  3.73593E+01 -1.00000E+00  1.46704E-01
      21    -1     0     0   502   501  0.000000000E+00  0.000000000E+00  5.960409186E+02  5.960409186E+02  0.000000000E+00  0.00000E+00  9.000E+00
      21    -1     0     0   501   512  0.000000000E+00  0.000000000E+00 -1.924305801E+03  1.924305801E+03  0.000000000E+00  0.00000E+00  9.000E+00
      25     1     1     2     0     0  2.085685616E+00 -4.663799558E+01  5.090998560E+02  5.262956547E+02  1.250000000E+02  0.00000E+00  9.000E+00
      25     1     1     2     0     0  1.683841848E+01  7.884967100E+01  7.377769654E+00  1.489303006E+02  1.250000000E+02  0.00000E+00  9.000E+00
      21     1     1     2   502   512 -1.892410409E+01 -3.221167542E+01 -1.844742508E+03  1.845120764E+03  0.000000000E+00  0.00000E+00  9.000E+00
#rwgt            1           1   4.4675100883831476E-002           4      253462           0
</event>
<event>
      5   9999  3.79277E-02  2.21677E+02 -1.00000E+00  1.10045E-01
      21    -1     0     0   502   501  0.000000000E+00  0.000000000E+00  8.268750944E+02  8.268750944E+02  0.000000000E+00  0.00000E+00  9.000E+00
      21    -1     0     0   501   511  0.000000000E+00  0.000000000E+00 -1.739325345E+02  1.739325345E+02  0.000000000E+00  0.00000E+00  9.000E+00
      25     1     1     2     0     0  1.746563077E+02 -1.637061555E+02  4.879436228E+02  5.576903354E+02  1.250000000E+02  0.00000E+00  9.000E+00
      25     1     1     2     0     0  3.351473603E+00  3.159341917E+01  1.794270465E+02  2.209715853E+02  1.250000000E+02  0.00000E+00  9.000E+00
      21     1     1     2   502   511 -1.780077813E+02  1.321127364E+02 -1.442810939E+01  2.221457082E+02  3.320786542E-06  0.00000E+00  9.000E+00
#rwgt            1           1   3.1904958616933779E-002           4      253605           0
</event>
<event>
      5   9999 -3.79277E-02  3.70306E+01 -1.00000E+00  1.46949E-01
      21    -1     0     0   502   501  0.000000000E+00  0.000000000E+00  6.879424197E+01  6.879424197E+01  0.000000000E+00  0.00000E+00  9.000E+00
      21    -1     0     0   512   502  0.000000000E+00  0.000000000E+00 -1.122480853E+03  1.122480853E+03  0.000000000E+00  0.00000E+00  9.000E+00
      25     1     1     2     0     0  9.921608260E+01  1.456169968E+02 -3.253932864E+02  3.905815300E+02  1.250000000E+02  0.00000E+00  9.000E+00
      25     1     1     2     0     0 -1.362466462E+02 -1.456880552E+02 -3.574101485E+02  4.279663214E+02  1.250000000E+02  0.00000E+00  9.000E+00
      21     1     1     2   512   501  3.703056362E+01  7.105839999E-02 -3.708831759E+02  3.727272432E+02  5.394796609E-06  0.00000E+00  9.000E+00
#rwgt            1           1 -0.10937210713516582                4      253686           0
</event>
<event>
      5   9999  3.79277E-02  9.62012E+01 -1.00000E+00  1.24589E-01
      21    -1     0     0   502   501  0.000000000E+00  0.000000000E+00  4.833370670E+02  4.833370670E+02  0.000000000E+00  0.00000E+00  9.000E+00
       1    -1     0     0   501     0  0.000000000E+00  0.000000000E+00 -5.808579684E+02  5.808579684E+02  0.000000000E+00  0.00000E+00  9.000E+00
      25     1     1     2     0     0  2.924861294E+01 -1.611989150E+02  2.084752963E+02  2.931339638E+02  1.250000000E+02  0.00000E+00  9.000E+00
      25     1     1     2     0     0  6.597800351E+01  1.748576762E+02  1.722486704E+02  2.832364883E+02  1.250000000E+02  0.00000E+00  9.000E+00
       1     1     1     2   502     0 -9.522661646E+01 -1.365876117E+01 -4.782448681E+02  4.878245833E+02  5.394796609E-06  0.00000E+00  9.000E+00
#rwgt            1           1   4.6665706538463268E-002           4      253837           0
</event>
<event>
      5   9999  3.79277E-02  9.61673E+01 -1.00000E+00  1.24596E-01
      21    -1     0     0   511   501  0.000000000E+00  0.000000000E+00  4.672193787E+02  4.672193787E+02  0.000000000E+00  0.00000E+00  9.000E+00
      21    -1     0     0   501   502  0.000000000E+00  0.000000000E+00 -1.897484965E+02  1.897484965E+02  0.000000000E+00  0.00000E+00  9.000E+00
      25     1     1     2     0     0  1.863902664E+02  1.502811651E+02  2.313663991E+01  2.710831313E+02  1.250000000E+02  0.00000E+00  9.000E+00
      25     1     1     2     0     0 -1.020180192E+02 -1.041349863E+02  1.902711689E+02  2.703329232E+02  1.250000000E+02  0.00000E+00  9.000E+00
      21     1     1     2   511   502 -8.437224718E+01 -4.614617877E+01  6.406307329E+01  1.155518207E+02  9.536743164E-07  0.00000E+00  9.000E+00
#rwgt            1           1   3.8766407632489813E-002           4      253936           0
</event>
<event>
      5   9999  3.79277E-02  2.38751E+01 -1.00000E+00  1.60263E-01
      21    -1     0     0   512   501  0.000000000E+00  0.000000000E+00  4.904536275E+01  4.904536275E+01  0.000000000E+00  0.00000E+00  9.000E+00
      21    -1     0     0   501   502  0.000000000E+00  0.000000000E+00 -1.431915968E+03  1.431915968E+03  0.000000000E+00  0.00000E+00  9.000E+00
      25     1     1     2     0     0 -6.860096513E+01  3.760961022E+01 -1.186264253E+02  1.892559219E+02  1.250000000E+02  0.00000E+00  9.000E+00
      25     1     1     2     0     0  6.422606874E+01 -6.108042750E+01 -1.257630212E+03  1.266931157E+03  1.250000000E+02  0.00000E+00  9.000E+00
      21     1     1     2   512   502  4.374896396E+00  2.347081728E+01 -6.613967985E+00  2.477425185E+01  3.769728732E-07  0.00000E+00  9.000E+00
#rwgt            1           1   2.9280971930569333E-002           4      254020           0
</event>
<event>
      5   9999  3.79277E-02  9.04354E+00 -1.00000E+00  2.00944E-01
      21    -1     0     0   502   511  0.000000000E+00  0.000000000E+00  9.178352857E+02  9.178352857E+02  0.000000000E+00  0.00000E+00  9.000E+00
      21    -1     0     0   501   502  0.000000000E+00  0.000000000E+00 -1.334404821E+02  1.334404821E+02  0.000000000E+00  0.00000E+00  9.000E+00
      25     1     1     2     0     0  2.052123118E+02  2.125773568E+02  4.236752782E+02  5.314385824E+02  1.250000000E+02  0.00000E+00  9.000E+00
      25     1     1     2     0     0 -1.979196897E+02 -2.179255596E+02  2.427397755E+02  4.015113344E+02  1.250000000E+02  0.00000E+00  9.000E+00
      21     1     1     2   501   511 -7.292622100E+00  5.348202741E+00  1.179797500E+02  1.183258510E+02  1.348699152E-06  0.00000E+00  9.000E+00
#rwgt            1           1   3.1664145000179042E-002           4      254320           0
</event>
<event>
      5   9999  3.79277E-02  3.15935E+01 -1.00000E+00  1.51495E-01
      21    -1     0     0   502   512  0.000000000E+00  0.000000000E+00  9.550883450E+02  9.550883450E+02  0.000000000E+00  0.00000E+00  9.000E+00
      21    -1     0     0   501   502  0.000000000E+00  0.000000000E+00 -2.703707418E+02  2.703707418E+02  0.000000000E+00  0.00000E+00  9.000E+00
      25     1     1     2     0     0  7.002347193E+00  1.191874581E+02 -1.819755357E+02  2.509876065E+02  1.250000000E+02  0.00000E+00  9.000E+00
      25     1     1     2     0     0 -3.850964758E+01 -1.168545817E+02  9.000171689E+01  1.971377571E+02  1.250000000E+02  0.00000E+00  9.000E+00
      21     1     1     2   501   512  3.150730039E+01 -2.332876384E+00  7.766914220E+02  7.773337233E+02  1.525878906E-05  0.00000E+00  9.000E+00
#rwgt            1           1   3.8249307269351239E-002           4      254563           0
</event>
<event>
      5   9999  3.79277E-02  6.22674E+01 -1.00000E+00  1.33848E-01
      21    -1     0     0   502   501  0.000000000E+00  0.000000000E+00  1.871120020E+03  1.871120020E+03  0.000000000E+00  0.00000E+00  9.000E+00
       3    -1     0     0   501     0  0.000000000E+00  0.000000000E+00 -2.846568348E+02  2.846568348E+02  0.000000000E+00  0.00000E+00  9.000E+00
      25     1     1     2     0     0  2.311148298E+02  3.315483457E+01  4.947977035E+02  5.612157117E+02  1.250000000E+02  0.00000E+00  9.000E+00
      25     1     1     2     0     0 -1.875588158E+02 -7.765315260E+01  1.328478128E+03  1.349699025E+03  1.250000000E+02  0.00000E+00  9.000E+00
       3     1     1     2   502     0 -4.355601407E+01  4.449831804E+01 -2.368126471E+02  2.448621173E+02  9.725607898E-06  0.00000E+00  9.000E+00
#rwgt            1           1   1.1819979998885035E-002           4      254691           0
</event>
<event>
      5   9999  3.79277E-02  3.77072E+01 -1.00000E+00  1.46448E-01
      21    -1     0     0   511   501  0.000000000E+00  0.000000000E+00  6.033655985E+02  6.033655985E+02  0.000000000E+00  0.00000E+00  9.000E+00
      21    -1     0     0   501   502  0.000000000E+00  0.000000000E+00 -5.727304681E+02  5.727304681E+02  0.000000000E+00  0.00000E+00  9.000E+00
      25     1     1     2     0     0 -6.754529797E+01 -1.754806720E+02 -2.122876294E+02  3.099142964E+02  1.250000000E+02  0.00000E+00  9.000E+00
      25     1     1     2     0     0  3.298364240E+01  1.604034451E+02 -2.768231127E+02  3.450698793E+02  1.250000000E+02  0.00000E+00  9.000E+00
      21     1     1     2   511   502  3.456165557E+01  1.507722697E+01  5.197458725E+02  5.211118908E+02  0.000000000E+00  0.00000E+00  9.000E+00
#rwgt            1           1   3.7802326511947794E-002           4      254923           0
</event>
<event>
      5   9999  3.79277E-02  2.65513E+01 -1.00000E+00  1.56817E-01
      21    -1     0     0   502   512  0.000000000E+00  0.000000000E+00  1.275454535E+02  1.275454535E+02  0.000000000E+00  0.00000E+00  9.000E+00
      21    -1     0     0   501   502  0.000000000E+00  0.000000000E+00 -2.908765151E+02  2.908765151E+02  0.000000000E+00  0.00000E+00  9.000E+00
      25     1     1     2     0     0  8.291078087E+01 -3.609695598E+01  1.786199409E+01  1.553101370E+02  1.250000000E+02  0.00000E+00  9.000E+00
      25     1     1     2     0     0 -9.566889102E+01  1.281177464E+01 -1.752348700E+02  2.359002712E+02  1.250000000E+02  0.00000E+00  9.000E+00
      21     1     1     2   501   512  1.275811015E+01  2.328518134E+01 -5.958185695E+00  2.721156044E+01  2.920019320E-07  0.00000E+00  9.000E+00
#rwgt            1           1   2.3642861716741608E-002           4      255118           0
</event>
<event>
      5   9999  3.79277E-02  1.07578E+02 -1.00000E+00  1.22418E-01
      21    -1     0     0   502   501  0.000000000E+00  0.000000000E+00  1.070747516E+02  1.070747516E+02  0.000000000E+00  0.00000E+00  9.000E+00
      21    -1     0     0   501   511  0.000000000E+00  0.000000000E+00 -9.197720362E+02  9.197720362E+02  0.000000000E+00  0.00000E+00  9.000E+00
      25     1     1     2     0     0 -7.611128306E+01  1.971488157E+02 -3.289504469E+02  4.104801816E+02  1.250000000E+02  0.00000E+00  9.000E+00
      25     1     1     2     0     0 -3.139771419E+01 -1.932840706E+02 -1.792604156E+02  2.934345669E+02  1.250000000E+02  0.00000E+00  9.000E+00
      21     1     1     2   502   511  1.075089972E+02 -3.864745098E+00 -3.044864222E+02  3.229320394E+02  0.000000000E+00  0.00000E+00  9.000E+00
#rwgt            1           1   3.4836046695750800E-002           4      255306           0
</event>
<event>
      5   9999 -3.79277E-02  4.33504E+01 -1.00000E+00  1.42706E-01
      21    -1     0     0   502   501  0.000000000E+00  0.000000000E+00  8.955282153E+01  8.955282153E+01  0.000000000E+00  0.00000E+00  9.000E+00
      21    -1     0     0   501   512  0.000000000E+00  0.000000000E+00 -2.032154185E+03  2.032154185E+03  0.000000000E+00  0.00000E+00  9.000E+00
      25     1     1     2     0     0 -2.183641661E+02 -9.591604842E+00 -4.559300379E+02  5.208378897E+02  1.250000000E+02  0.00000E+00  9.000E+00
      25     1     1     2     0     0  1.965720771E+02  4.706640419E+01 -1.921392098E+02  3.056113608E+02  1.250000000E+02  0.00000E+00  9.000E+00
      21     1     1     2   502   512  2.179208906E+01 -3.747479934E+01 -1.294532116E+03  1.295257756E+03  0.000000000E+00  0.00000E+00  9.000E+00
#rwgt            1           1  -8.6255698921473889E-002           4      255506           0
</event>
<event>
      5   9999  3.79277E-02  8.50637E+01 -1.00000E+00  1.27073E-01
      21    -1     0     0   511   501  0.000000000E+00  0.000000000E+00  2.116665526E+02  2.116665526E+02  0.000000000E+00  0.00000E+00  9.000E+00
      21    -1     0     0   501   502  0.000000000E+00  0.000000000E+00 -7.834966360E+02  7.834966360E+02  0.000000000E+00  0.00000E+00  9.000E+00
      25     1     1     2     0     0 -1.838475616E+02 -6.676070972E+01 -5.976022891E+02  6.411009391E+02  1.250000000E+02  0.00000E+00  9.000E+00
      25     1     1     2     0     0  1.280148908E+02  2.584780823E+00 -9.789214921E+01  2.039665812E+02  1.250000000E+02  0.00000E+00  9.000E+00
      21     1     1     2   511   502  5.583267078E+01  6.417592890E+01  1.236643549E+02  1.500956683E+02  5.046370146E-06  0.00000E+00  9.000E+00
#rwgt            1           1   5.1406904230555453E-002           4      255650           0
</event>
<event>
      5   9999  3.79277E-02  3.51894E+02 -1.00000E+00  1.03388E-01
      21    -1     0     0   502   501  0.000000000E+00  0.000000000E+00  2.350736767E+02  2.350736767E+02  0.000000000E+00  0.00000E+00  9.000E+00
      21    -1     0     0   512   502  0.000000000E+00  0.000000000E+00 -1.271302694E+03  1.271302694E+03  0.000000000E+00  0.00000E+00  9.000E+00
      25     1     1     2     0     0  1.826126979E+02 -1.908865375E+02 -5.714151301E+02  6.418140841E+02  1.250000000E+02  0.00000E+00  9.000E+00
      25     1     1     2     0     0 -2.566998823E+02 -1.531200905E+02 -6.230663168E+01  3.299207602E+02  1.250000000E+02  0.00000E+00  9.000E+00
      21     1     1     2   512   501  7.408718442E+01  3.440066280E+02 -4.025072556E+02  5.346415265E+02  7.629394531E-06  0.00000E+00  9.000E+00
#rwgt            2          11   1.0301696050575959E-003           4      255772           0
</event>
<event>
      5   9999  3.79277E-02  1.28277E+01 -1.00000E+00  1.84033E-01
      21    -1     0     0   502   501  0.000000000E+00  0.000000000E+00  7.591026569E+02  7.591026569E+02  0.000000000E+00  0.00000E+00  9.000E+00
       2    -1     0     0   501     0  0.000000000E+00  0.000000000E+00 -2.505738101E+03  2.505738101E+03  0.000000000E+00  0.00000E+00  9.000E+00
      25     1     1     2     0     0 -1.379454729E+02 -3.265186426E+02  3.243776559E+02  4.964768284E+02  1.250000000E+02  0.00000E+00  9.000E+00
      25     1     1     2     0     0  1.499980555E+02  3.221270168E+02  2.469173035E+02  4.503980311E+02  1.250000000E+02  0.00000E+00  9.000E+00
       2     1     1     2   502     0 -1.205258260E+01  4.391625736E+00 -2.317930403E+03  2.317965898E+03  3.051757812E-05  0.00000E+00  9.000E+00
#rwgt            1           1  0.27064164501971139                4      255822           0
</event>
<event>
      5   9999  3.79277E-02  1.33167E+01 -1.00000E+00  1.82396E-01
      21    -1     0     0   502   501  0.000000000E+00  0.000000000E+00  1.363225627E+02  1.363225627E+02  0.000000000E+00  0.00000E+00  9.000E+00
      21    -1     0     0   501   511  0.000000000E+00  0.000000000E+00 -3.414169515E+02  3.414169515E+02  0.000000000E+00  0.00000E+00  9.000E+00
      25     1     1     2     0     0  5.315169706E+01 -1.345603059E+02 -1.351474085E+02  2.341397037E+02  1.250000000E+02  0.00000E+00  9.000E+00
      25     1     1     2     0     0 -6.080573478E+01  1.454575597E+02 -3.243554605E+01  2.037947588E+02  1.250000000E+02  0.00000E+00  9.000E+00
      21     1     1     2   502   511  7.654037719E+00 -1.089725378E+01 -3.751143434E+01  3.980505169E+01  0.000000000E+00  0.00000E+00  9.000E+00
#rwgt            1           1   4.0995271868593898E-002           4      256091           0
</event>
<event>
      5   9999  3.79277E-02  5.83936E+01 -1.00000E+00  1.35336E-01
       1    -1     0     0   502     0  0.000000000E+00  0.000000000E+00  1.670407430E+03  1.670407430E+03  0.000000000E+00  0.00000E+00  9.000E+00
      21    -1     0     0   501   502  0.000000000E+00  0.000000000E+00 -5.375180234E+01  5.375180234E+01  0.000000000E+00  0.00000E+00  9.000E+00
      25     1     1     2     0     0 -7.701135703E+01 -9.905636488E+00  7.029983598E+01  1.630826100E+02  1.250000000E+02  0.00000E+00  9.000E+00
      25     1     1     2     0     0  3.798516175E+01 -3.353131467E+01  1.335204766E+03  1.341999996E+03  1.250000000E+02  0.00000E+00  9.000E+00
       1     1     1     2   501     0  3.902619528E+01  4.343695116E+01  2.111510251E+02  2.190766260E+02  2.697398305E-06  0.00000E+00  9.000E+00
#rwgt            1           1   3.5562961661109491E-002           4      256314           0
</event>
<event>
      5   9999  3.79277E-02  8.76212E+01 -1.00000E+00  1.26465E-01
      21    -1     0     0   502   501  0.000000000E+00  0.000000000E+00  9.203474237E+02  9.203474237E+02  0.000000000E+00  0.00000E+00  9.000E+00
      21    -1     0     0   511   502  0.000000000E+00  0.000000000E+00 -9.390104698E+01  9.390104698E+01  0.000000000E+00  0.00000E+00  9.000E+00
      25     1     1     2     0     0 -6.342454756E+01 -1.682621055E+02  3.406282235E+02  4.049535727E+02  1.250000000E+02  0.00000E+00  9.000E+00
      25     1     1     2     0     0 -5.511927494E+00  2.223476412E+02  4.442793481E+02  5.123260623E+02  1.250000000E+02  0.00000E+00  9.000E+00
      21     1     1     2   511   501  6.893647506E+01 -5.408553573E+01  4.153880500E+01  9.696883566E+01  2.023048729E-06  0.00000E+00  9.000E+00
#rwgt            1           1   3.6657055555060991E-002           4      256511           0
</event>
<event>
      5   9999  3.79277E-02  7.67159E+01 -1.00000E+00  1.29237E-01
      21    -1     0     0   502   501  0.000000000E+00  0.000000000E+00  3.004301028E+02  3.004301028E+02  0.000000000E+00  0.00000E+00  9.000E+00
      21    -1     0     0   512   502  0.000000000E+00  0.000000000E+00 -2.422025264E+02  2.422025264E+02  0.000000000E+00  0.00000E+00  9.000E+00
      25     1     1     2     0     0  4.388951303E+01  1.677691587E+02  1.610223843E+02  2.676303201E+02  1.250000000E+02  0.00000E+00  9.000E+00
      25     1     1     2     0     0  1.358631969E+01 -1.169571448E+02 -4.114014761E+01  1.765816342E+02  1.250000000E+02  0.00000E+00  9.000E+00
      21     1     1     2   512   501 -5.747583273E+01 -5.081201391E+01 -6.165466032E+01  9.842067488E+01  9.536743164E-07  0.00000E+00  9.000E+00
#rwgt            1           1   3.8240700097392263E-002           4      256716           0
</event>
<event>
      5   9999  3.79277E-02  2.25344E+01 -1.00000E+00  1.62204E-01
      21    -1     0     0   502   501  0.000000000E+00  0.000000000E+00  2.042905160E+02  2.042905160E+02  0.000000000E+00  0.00000E+00  9.000E+00
      21    -1     0     0   511   502  0.000000000E+00  0.000000000E+00 -4.029568527E+02  4.029568527E+02  0.000000000E+00  0.00000E+00  9.000E+00
      25     1     1     2     0     0 -1.909140800E+02  1.388416806E+02 -6.861337424E+01  2.757861370E+02  1.250000000E+02  0.00000E+00  9.000E+00
      25     1     1     2     0     0  1.968261974E+02 -1.170966117E+02 -7.424253371E+01  2.712731507E+02  1.250000000E+02  0.00000E+00  9.000E+00
      21     1     1     2   511   501 -5.912117414E+00 -2.174506890E+01 -5.581042870E+01  6.018808109E+01  6.743495762E-07  0.00000E+00  9.000E+00
#rwgt            1           1   3.9470687896019943E-002           4      256789           0
</event>
<event>
      5   9999  3.79277E-02  2.08876E+02 -1.00000E+00  1.10966E-01
       2    -1     0     0   502     0  0.000000000E+00  0.000000000E+00  3.743617093E+03  3.743617093E+03  0.000000000E+00  0.00000E+00  9.000E+00
      21    -1     0     0   501   502  0.000000000E+00  0.000000000E+00 -8.514039950E+01  8.514039950E+01  0.000000000E+00  0.00000E+00  9.000E+00
      25     1     1     2     0     0 -6.776483221E+01 -1.166687945E+02  3.440979425E+01  1.871168459E+02  1.250000000E+02  0.00000E+00  9.000E+00
      25     1     1     2     0     0 -3.877874078E+01 -6.299130310E+01  1.252714558E+03  1.261106839E+03  1.250000000E+02  0.00000E+00  9.000E+00
       2     1     1     2   501     0  1.065435730E+02  1.796600976E+02  2.371352341E+03  2.380533808E+03  3.051757812E-05  0.00000E+00  9.000E+00
#rwgt            1           1   5.0058770314726053E-002           4      257047           0
</event>
<event>
      5   9999  3.79277E-02  7.57957E+01 -1.00000E+00  1.29495E-01
      21    -1     0     0   502   501  0.000000000E+00  0.000000000E+00  6.779736084E+02  6.779736084E+02  0.000000000E+00  0.00000E+00  9.000E+00
      21    -1     0     0   511   502  0.000000000E+00  0.000000000E+00 -1.715984753E+02  1.715984753E+02  0.000000000E+00  0.00000E+00  9.000E+00
      25     1     1     2     0     0  7.638995166E+01 -1.185047004E+02  2.869871043E+02  3.433152876E+02  1.250000000E+02  0.00000E+00  9.000E+00
      25     1     1     2     0     0 -1.805464000E+01  1.668987729E+02  3.187266734E+02  3.813041604E+02  1.250000000E+02  0.00000E+00  9.000E+00
      21     1     1     2   511   501 -5.833531167E+01 -4.839407255E+01 -9.933864455E+01  1.249526356E+02  1.348699152E-06  0.00000E+00  9.000E+00
#rwgt            1           1   4.6677067779955818E-002           4      257141           0
</event>
<event>
      5   9999  3.79277E-02  2.31743E+01 -1.00000E+00  1.61258E-01
      21    -1     0     0   502   501  0.000000000E+00  0.000000000E+00  8.722919104E+02  8.722919104E+02  0.000000000E+00  0.00000E+00  9.000E+00
      21    -1     0     0   512   502  0.000000000E+00  0.000000000E+00 -2.431810725E+02  2.431810725E+02  0.000000000E+00  0.00000E+00  9.000E+00
      25     1     1     2     0     0 -1.207617775E+02 -1.763837140E+02  3.397095017E+02  4.203833572E+02  1.250000000E+02  0.00000E+00  9.000E+00
      25     1     1     2     0     0  1.398925983E+02  1.894627509E+02  4.552752905E+02  5.276046467E+02  1.250000000E+02  0.00000E+00  9.000E+00
      21     1     1     2   512   501 -1.913082081E+01 -1.307903694E+01 -1.658739543E+02  1.674849791E+02  0.000000000E+00  0.00000E+00  9.000E+00
#rwgt            1           1   3.8863420955870955E-002           4      257240           0
</event>
<event>
      5   9999  3.79277E-02  1.01776E+01 -1.00000E+00  1.94877E-01
      21    -1     0     0   502   511  0.000000000E+00  0.000000000E+00  2.449839584E+01  2.449839584E+01  0.000000000E+00  0.00000E+00  9.000E+00
      21    -1     0     0   501   502  0.000000000E+00  0.000000000E+00 -1.672969234E+03  1.672969234E+03  0.000000000E+00  0.00000E+00  9.000E+00
      25     1     1     2     0     0  7.847359213E+01  8.124150903E+01 -1.205380670E+03  1.217097304E+03  1.250000000E+02  0.00000E+00  9.000E+00
      25     1     1     2     0     0 -8.669339513E+01 -8.724305333E+01 -4.195048642E+02  4.546827754E+02  1.250000000E+02  0.00000E+00  9.000E+00
      21     1     1     2   501   511  8.219803000E+00  6.001544299E+00 -2.358530415E+01  2.568755082E+01  3.371747881E-07  0.00000E+00  9.000E+00
#rwgt            1           1   5.1944198451123261E-002           4      257395           0
</event>
<event>
      5   9999  3.79277E-02  2.83110E+01 -1.00000E+00  1.54809E-01
       1    -1     0     0   502     0  0.000000000E+00  0.000000000E+00  8.152256629E+02  8.152256629E+02  0.000000000E+00  0.00000E+00  9.000E+00
      21    -1     0     0   501   502  0.000000000E+00  0.000000000E+00 -7.811318195E+02  7.811318195E+02  0.000000000E+00  0.00000E+00  9.000E+00
      25     1     1     2     0     0 -2.388201593E+01 -1.994138636E+02 -3.573845276E+02  4.285848110E+02  1.250000000E+02  0.00000E+00  9.000E+00
      25     1     1     2     0     0 -4.383470536E+00  2.010189194E+02 -3.517497410E+02  4.240055437E+02  1.250000000E+02  0.00000E+00  9.000E+00
       1     1     1     2   501     0  2.826548647E+01 -1.605055741E+00  7.432281120E+02  7.437671278E+02  1.525878906E-05  0.00000E+00  9.000E+00
#rwgt            1           1   3.8412836233272338E-002           4      257601           0
</event>
<event>
      5   9999  3.79277E-02  5.04379E+01 -1.00000E+00  1.38860E-01
      21    -1     0     0   502   501  0.000000000E+00  0.000000000E+00  2.895329002E+02  2.895329002E+02  0.000000000E+00  0.00000E+00  9.000E+00
      21    -1     0     0   501   511  0.000000000E+00  0.000000000E+00 -1.837394805E+02  1.837394805E+02  0.000000000E+00  0.00000E+00  9.000E+00
      25     1     1     2     0     0 -4.298251397E+01  1.324960021E+02  1.064782782E+02  2.153260570E+02  1.250000000E+02  0.00000E+00  9.000E+00
      25     1     1     2     0     0  9.338990043E+01 -1.342492651E+02 -1.223836749E+01  2.062021249E+02  1.250000000E+02  0.00000E+00  9.000E+00
      21     1     1     2   502   511 -5.040738646E+01  1.753263033E+00  1.155350905E+01  5.174419882E+01  6.529361695E-07  0.00000E+00  9.000E+00
#rwgt            1           1   3.7115130939278804E-002           4      257866           0
</event>
<event>
      5   9999  3.79277E-02  1.47949E+01 -1.00000E+00  1.77949E-01
      21    -1     0     0   512   501  0.000000000E+00  0.000000000E+00  6.220670767E+02  6.220670767E+02  0.000000000E+00  0.00000E+00  9.000E+00
      21    -1     0     0   501   502  0.000000000E+00  0.000000000E+00 -2.053681867E+02  2.053681867E+02  0.000000000E+00  0.00000E+00  9.000E+00
      25     1     1     2     0     0  3.124629545E+02  1.022188017E+01  1.298394947E+02  3.608613018E+02  1.250000000E+02  0.00000E+00  9.000E+00
      25     1     1     2     0     0 -2.979113206E+02 -1.289391551E+01  2.037841020E+02  3.821915334E+02  1.250000000E+02  0.00000E+00  9.000E+00
      21     1     1     2   512   502 -1.455163396E+01  2.672035341E+00  8.307529323E+01  8.438242808E+01  0.000000000E+00  0.00000E+00  9.000E+00
#rwgt            1           1   3.8281217830553313E-002           4      257955           0
</event>
<event>
      5   9999  3.79277E-02  2.31328E+01 -1.00000E+00  1.61318E-01
      21    -1     0     0   502   501  0.000000000E+00  0.000000000E+00  3.805552114E+02  3.805552114E+02  0.000000000E+00  0.00000E+00  9.000E+00
      21    -1     0     0   511   502  0.000000000E+00  0.000000000E+00 -1.507863510E+02  1.507863510E+02  0.000000000E+00  0.00000E+00  9.000E+00
      25     1     1     2     0     0 -2.519200420E+01  1.949124920E+02  1.546258222E+02  2.795704947E+02  1.250000000E+02  0.00000E+00  9.000E+00
      25     1     1     2     0     0  3.315361762E+01 -1.731929619E+02  7.450856736E+01  2.286295935E+02  1.250000000E+02  0.00000E+00  9.000E+00
      21     1     1     2   511   501 -7.961613411E+00 -2.171953005E+01  6.344707768E-01  2.314147417E+01  3.251049553E-07  0.00000E+00  9.000E+00
#rwgt            1           1   4.0062392122042143E-002           4      258392           0
</event>
<event>
      5   9999  3.79277E-02  7.42093E+01 -1.00000E+00  1.29949E-01
       1    -1     0     0   502     0  0.000000000E+00  0.000000000E+00  4.494311439E+02  4.494311439E+02  0.000000000E+00  0.00000E+00  9.000E+00
      21    -1     0     0   501   502  0.000000000E+00  0.000000000E+00 -4.022525782E+02  4.022525782E+02  0.000000000E+00  0.00000E+00  9.000E+00
      25     1     1     2     0     0  1.030670605E+02 -1.508249112E+02 -1.879579852E+02  2.903862548E+02  1.250000000E+02  0.00000E+00  9.000E+00
      25     1     1     2     0     0 -4.482059613E+01  1.968072472E+02 -6.979666394E+01  2.474642452E+02  1.250000000E+02  0.00000E+00  9.000E+00
       1     1     1     2   501     0 -5.824646433E+01 -4.598233598E+01  3.049332147E+02  3.138332221E+02  5.394796609E-06  0.00000E+00  9.000E+00
#rwgt            1           1   3.3552094309324293E-002           4      258789           0
</event>
<event>
      5   9999  3.79277E-02  4.02820E+01 -1.00000E+00  1.44651E-01
      21    -1     0     0   502   501  0.000000000E+00  0.000000000E+00  3.782599482E+02  3.782599482E+02  0.000000000E+00  0.00000E+00  9.000E+00
      21    -1     0     0   511   502  0.000000000E+00  0.000000000E+00 -5.147320105E+02  5.147320105E+02  0.000000000E+00  0.00000E+00  9.000E+00
      25     1     1     2     0     0  9.137061045E+01  6.238163974E+01  3.149675315E+02  3.564682360E+02  1.250000000E+02  0.00000E+00  9.000E+00
      25     1     1     2     0     0 -6.763415715E+01 -2.983598975E+01 -8.580604690E+01  1.686779274E+02  1.250000000E+02  0.00000E+00  9.000E+00
      21     1     1     2   511   501 -2.373645330E+01 -3.254564999E+01 -3.656335468E+02  3.678457953E+02  5.394796609E-06  0.00000E+00  9.000E+00
#rwgt            1           1   4.4798324362100496E-002           4      258879           0
</event>
<event>
      5   9999  3.79277E-02  3.58512E+01 -1.00000E+00  1.47853E-01
      21    -1     0     0   502   501  0.000000000E+00  0.000000000E+00  1.024400590E+02  1.024400590E+02  0.000000000E+00  0.00000E+00  9.000E+00
      21    -1     0     0   501   512  0.000000000E+00  0.000000000E+00 -2.776394459E+02  2.776394459E+02  0.000000000E+00  0.00000E+00  9.000E+00
      25     1     1     2     0     0  2.119624447E+01  6.460332433E+01 -1.793250555E+01  1.434205182E+02  1.250000000E+02  0.00000E+00  9.000E+00
      25     1     1     2     0     0  1.463423488E+01 -6.338332069E+01 -1.282175233E+02  1.905159822E+02  1.250000000E+02  0.00000E+00  9.000E+00
      21     1     1     2   502   512 -3.583047935E+01 -1.220003649E+00 -2.904935801E+01  4.614300446E+01  4.768371582E-07  0.00000E+00  9.000E+00
#rwgt            1           1  0.10440109880116463                4      259057           0
</event>
<event>
      5   9999  3.79277E-02  5.02899E+01 -1.00000E+00  1.38932E-01
      21    -1     0     0   502   501  0.000000000E+00  0.000000000E+00  1.107516558E+02  1.107516558E+02  0.000000000E+00  0.00000E+00  9.000E+00
      21    -1     0     0   501   511  0.000000000E+00  0.000000000E+00 -4.347333401E+02  4.347333401E+02  0.000000000E+00  0.00000E+00  9.000E+00
      25     1     1     2     0     0  5.966146372E+01 -1.427052226E+02 -2.423950917E+02  3.135357257E+02  1.250000000E+02  0.00000E+00  9.000E+00
      25     1     1     2     0     0 -4.678264104E+01  9.409233305E+01 -4.387886524E+01  1.690926890E+02  1.250000000E+02  0.00000E+00  9.000E+00
      21     1     1     2   502   511 -1.287882268E+01  4.861288959E+01 -3.770772740E+01  6.285658131E+01  0.000000000E+00  0.00000E+00  9.000E+00
#rwgt            1           1   3.4196555573631979E-002           4      259171           0
</event>
<event>
      5   9999  3.79277E-02  3.83677E+02 -1.00000E+00  1.02233E-01
      21    -1     0     0   502   501  0.000000000E+00  0.000000000E+00  2.560649512E+02  2.560649512E+02  0.000000000E+00  0.00000E+00  9.000E+00
       2    -1     0     0   501     0  0.000000000E+00  0.000000000E+00 -1.130506545E+03  1.130506545E+03  0.000000000E+00  0.00000E+00  9.000E+00
      25     1     1     2     0     0  2.684234661E+02  7.092987380E+00 -2.445263065E+02  3.840827804E+02  1.250000000E+02  0.00000E+00  9.000E+00
      25     1     1     2     0     0 -8.616020444E+01 -3.447138762E+02 -2.007441308E+02  4.268189819E+02  1.250000000E+02  0.00000E+00  9.000E+00
       2     1     1     2   502     0 -1.822632617E+02  3.376208888E+02 -4.291711565E+02  5.756697340E+02  5.394796609E-06  0.00000E+00  9.000E+00
#rwgt            2          13   1.6435530884019458E-004           4      259311           0
</event>
<event>
      5   9999  3.79277E-02  5.12278E+01 -1.00000E+00  1.38477E-01
      21    -1     0     0   511   501  0.000000000E+00  0.000000000E+00  3.464984594E+02  3.464984594E+02  0.000000000E+00  0.00000E+00  9.000E+00
      21    -1     0     0   501   502  0.000000000E+00  0.000000000E+00 -4.514072303E+02  4.514072303E+02  0.000000000E+00  0.00000E+00  9.000E+00
      25     1     1     2     0     0 -2.069488175E+02  1.561730084E+02 -1.196390100E+02  3.116990766E+02  1.250000000E+02  0.00000E+00  9.000E+00
      25     1     1     2     0     0  1.643970782E+02 -1.276486553E+02 -1.687739812E+02  2.956860417E+02  1.250000000E+02  0.00000E+00  9.000E+00
      21     1     1     2   511   502  4.255173931E+01 -2.852435311E+01  1.835042203E+02  1.905205714E+02  0.000000000E+00  0.00000E+00  9.000E+00
#rwgt            2          11   7.6880581740604575E-004           4      259360           0
</event>
<event>
      5   9999  3.79277E-02  1.48779E+02 -1.00000E+00  1.16534E-01
      21    -1     0     0   502   501  0.000000000E+00  0.000000000E+00  2.270356113E+02  2.270356113E+02  0.000000000E+00  0.00000E+00  9.000E+00
      21    -1     0     0   501   512  0.000000000E+00  0.000000000E+00 -1.250583455E+03  1.250583455E+03  0.000000000E+00  0.00000E+00  9.000E+00
      25     1     1     2     0     0 -8.833748356E+01 -8.560903851E+01  1.100295148E+02  2.070360176E+02  1.250000000E+02  0.00000E+00  9.000E+00
      25     1     1     2     0     0 -2.072503442E+01  1.868046483E+02 -1.393197044E+02  2.652555064E+02  1.250000000E+02  0.00000E+00  9.000E+00
      21     1     1     2   502   512  1.090625180E+02 -1.011956097E+02 -9.942576540E+02  1.005327542E+03  0.000000000E+00  0.00000E+00  9.000E+00
#rwgt            1           1   4.3412697269636834E-002           4      259455           0
</event>
<event>
      5   9999  3.79277E-02  1.80395E+01 -1.00000E+00  1.70153E-01
      21    -1     0     0   511   501  0.000000000E+00  0.000000000E+00  5.055618304E+02  5.055618304E+02  0.000000000E+00  0.00000E+00  9.000E+00
      21    -1     0     0   501   502  0.000000000E+00  0.000000000E+00 -1.378719887E+02  1.378719887E+02  0.000000000E+00  0.00000E+00  9.000E+00
      25     1     1     2     0     0  8.407481669E+01  1.754346144E+02  1.246100336E+02  2.626757301E+02  1.250000000E+02  0.00000E+00  9.000E+00
      25     1     1     2     0     0 -6.611951699E+01 -1.771755053E+02  1.202461993E+02  2.566068951E+02  1.250000000E+02  0.00000E+00  9.000E+00
      21     1     1     2   511   502 -1.795529970E+01  1.740890920E+00  1.228336087E+02  1.241511938E+02  1.907348633E-06  0.00000E+00  9.000E+00
#rwgt            1           1   4.0604414209755815E-002           4      259503           0
</event>
<event>
      5   9999  3.79277E-02  1.21883E+01 -1.00000E+00  1.86320E-01
      21    -1     0     0   502   512  0.000000000E+00  0.000000000E+00  2.518954708E+02  2.518954708E+02  0.000000000E+00  0.00000E+00  9.000E+00
      21    -1     0     0   501   502  0.000000000E+00  0.000000000E+00 -3.754873842E+02  3.754873842E+02  0.000000000E+00  0.00000E+00  9.000E+00
      25     1     1     2     0     0 -2.274726709E+02  5.652208327E+01 -2.023650932E+02  3.339389059E+02  1.250000000E+02  0.00000E+00  9.000E+00
      25     1     1     2     0     0  2.217419976E+02 -6.727915610E+01  5.837609692E+01  2.696827155E+02  1.250000000E+02  0.00000E+00  9.000E+00
      21     1     1     2   501   512  5.730673318E+00  1.075707283E+01  2.039708294E+01  2.376123366E+01  0.000000000E+00  0.00000E+00  9.000E+00
#rwgt            1           1   5.1070105513748978E-002           4      259625           0
</event>
<event>
      5   9999  3.79277E-02  9.51163E+00 -1.00000E+00  1.98305E-01
      21    -1     0     0   511   501  0.000000000E+00  0.000000000E+00  9.427742569E+01  9.427742569E+01  0.000000000E+00  0.00000E+00  9.000E+00
      21    -1     0     0   501   502  0.000000000E+00  0.000000000E+00 -4.833253948E+02  4.833253948E+02  0.000000000E+00  0.00000E+00  9.000E+00
      25     1     1     2     0     0 -5.390517984E+01  1.529985341E+02 -1.478902656E+02  2.526080967E+02  1.250000000E+02  0.00000E+00  9.000E+00
      25     1     1     2     0     0  4.444084905E+01 -1.520511158E+02 -2.424023375E+02  3.154020040E+02  1.250000000E+02  0.00000E+00  9.000E+00
      21     1     1     2   511   502  9.464330781E+00 -9.474183286E-01  1.244634057E+00  9.592719769E+00  1.307571588E-07  0.00000E+00  9.000E+00
#rwgt            1           1   3.7420335512626135E-002           4      259845           0
</event>
<event>
      5   9999  3.79277E-02  6.21400E+01 -1.00000E+00  1.33895E-01
      21    -1     0     0   502   512  0.000000000E+00  0.000000000E+00  5.447046328E+02  5.447046328E+02  0.000000000E+00  0.00000E+00  9.000E+00
      21    -1     0     0   501   502  0.000000000E+00  0.000000000E+00 -2.042366346E+02  2.042366346E+02  0.000000000E+00  0.00000E+00  9.000E+00
      25     1     1     2     0     0 -1.411736817E+02 -2.270761885E+02  2.653244183E+02  3.968824142E+02  1.250000000E+02  0.00000E+00  9.000E+00
      25     1     1     2     0     0  1.280787552E+02  1.663316674E+02 -1.247186500E+01  2.446445146E+02  1.250000000E+02  0.00000E+00  9.000E+00
      21     1     1     2   501   512  1.309492646E+01  6.074452106E+01  8.761544489E+01  1.074143385E+02  9.536743164E-07  0.00000E+00  9.000E+00
#rwgt            1           1   3.9094602246741716E-002           4      260053           0
</event>
<event>
      5   9999  3.79277E-02  1.68178E+01 -1.00000E+00  1.72828E-01
      21    -1     0     0   511   501  0.000000000E+00  0.000000000E+00  4.402952835E+01  4.402952835E+01  0.000000000E+00  0.00000E+00  9.000E+00
      21    -1     0     0   501   502  0.000000000E+00  0.000000000E+00 -9.758079922E+02  9.758079922E+02  0.000000000E+00  0.00000E+00  9.000E+00
      25     1     1     2     0     0  9.166519113E+01 -3.529105626E+00 -1.595370290E+02  2.224680325E+02  1.250000000E+02  0.00000E+00  9.000E+00
      25     1     1     2     0     0 -1.081967690E+02  4.395617781E-01 -7.564321802E+02  7.742876579E+02  1.250000000E+02  0.00000E+00  9.000E+00
      21     1     1     2   511   502  1.653157788E+01  3.089543848E+00 -1.580925463E+01  2.308183009E+01  1.685873940E-07  0.00000E+00  9.000E+00
#rwgt            1           1   4.6755226166585541E-002           4      260103           0
</event>
<event>
      5   9999  3.79277E-02  2.95075E+01 -1.00000E+00  1.53541E-01
      21    -1     0     0   502   501  0.000000000E+00  0.000000000E+00  5.615323616E+02  5.615323616E+02  0.000000000E+00  0.00000E+00  9.000E+00
      21    -1     0     0   512   502  0.000000000E+00  0.000000000E+00 -1.808225919E+02  1.808225919E+02  0.000000000E+00  0.00000E+00  9.000E+00
      25     1     1     2     0     0  2.125266270E+02  7.290822154E+01  1.602133461E+02  3.029463521E+02  1.250000000E+02  0.00000E+00  9.000E+00
      25     1     1     2     0     0 -1.908941022E+02 -9.297624993E+01  2.800095684E+02  3.729819027E+02  1.250000000E+02  0.00000E+00  9.000E+00
      21     1     1     2   512   501 -2.163252474E+01  2.006802840E+01 -5.951314485E+01  6.642669870E+01  1.907348633E-06  0.00000E+00  9.000E+00
#rwgt            1           1   4.1973217536066885E-002           4      260320           0
</event>
<event>
      5   9999  3.79277E-02  1.28504E+02 -1.00000E+00  1.19120E-01
      21    -1     0     0   502   511  0.000000000E+00  0.000000000E+00  7.649466409E+01  7.649466409E+01  0.000000000E+00  0.00000E+00  9.000E+00
      21    -1     0     0   501   502  0.000000000E+00  0.000000000E+00 -1.454121885E+03  1.454121885E+03  0.000000000E+00  0.00000E+00  9.000E+00
      25     1     1     2     0     0 -1.394216500E+01 -2.259045593E+02 -5.761683108E+02  6.315236942E+02  1.250000000E+02  0.00000E+00  9.000E+00
      25     1     1     2     0     0 -1.143814454E+02  2.190944282E+02 -5.874370805E+02  6.494557776E+02  1.250000000E+02  0.00000E+00  9.000E+00
      21     1     1     2   501   511  1.283236104E+02  6.810131108E+00 -2.140218301E+02  2.496370778E+02  3.814697266E-06  0.00000E+00  9.000E+00
#rwgt            1           1   2.9626313020663504E-002           4      260489           0
</event>
<event>
      5   9999  3.79277E-02  6.84373E+01 -1.00000E+00  1.31719E-01
      21    -1     0     0   502   501  0.000000000E+00  0.000000000E+00  8.076009225E+02  8.076009225E+02  0.000000000E+00  0.00000E+00  9.000E+00
      -4    -1     0     0     0   502  0.000000000E+00  0.000000000E+00 -5.359820923E+02  5.359820923E+02  0.000000000E+00  0.00000E+00  9.000E+00
      25     1     1     2     0     0 -1.498346902E+02 -4.495708004E+01  5.551661729E+02  5.901745953E+02  1.250000000E+02  0.00000E+00  9.000E+00
      25     1     1     2     0     0  8.282262205E+01  5.885108170E+01  2.046478854E+02  2.604396159E+02  1.250000000E+02  0.00000E+00  9.000E+00
      -4     1     1     2     0   501  6.701206810E+01 -1.389400166E+01 -4.881952281E+02  4.929688036E+02  7.629394531E-06  0.00000E+00  9.000E+00
#rwgt            1           1   3.9135856749902873E-002           4      260574           0
</event>
<event>
      5   9999  3.79277E-02  7.94735E+01 -1.00000E+00  1.28488E-01
      21    -1     0     0   502   501  0.000000000E+00  0.000000000E+00  4.666957754E+02  4.666957754E+02  0.000000000E+00  0.00000E+00  9.000E+00
      21    -1     0     0   501   511  0.000000000E+00  0.000000000E+00 -1.540037552E+02  1.540037552E+02  0.000000000E+00  0.00000E+00  9.000E+00
      25     1     1     2     0     0 -1.118561109E+02  3.269587973E+01  1.682982062E+02  2.398543231E+02  1.250000000E+02  0.00000E+00  9.000E+00
      25     1     1     2     0     0  1.882126946E+02 -1.065720897E+01  1.844353901E+02  2.918544288E+02  1.250000000E+02  0.00000E+00  9.000E+00
      21     1     1     2   502   511 -7.635658370E+01 -2.203867076E+01 -4.004157604E+01  8.899077871E+01  1.430511475E-06  0.00000E+00  9.000E+00
#rwgt            2          11   1.8503395481628865E-003           4      260754           0
</event>
<event>
      5   9999  3.79277E-02  1.67871E+01 -1.00000E+00  1.72899E-01
      21    -1     0     0   512   501  0.000000000E+00  0.000000000E+00  4.035803408E+02  4.035803408E+02  0.000000000E+00  0.00000E+00  9.000E+00
      21    -1     0     0   501   502  0.000000000E+00  0.000000000E+00 -8.710122397E+01  8.710122397E+01  0.000000000E+00  0.00000E+00  9.000E+00
      25     1     1     2     0     0 -4.627636776E+01  1.120170790E+02  1.502586139E+02  2.299825629E+02  1.250000000E+02  0.00000E+00  9.000E+00
      25     1     1     2     0     0  6.199958870E+01 -1.061358639E+02  1.225076155E+02  2.138735291E+02  1.250000000E+02  0.00000E+00  9.000E+00
      21     1     1     2   512   502 -1.572322094E+01 -5.881215116E+00  4.371288752E+01  4.682547280E+01  4.768371582E-07  0.00000E+00  9.000E+00
#rwgt            1           1   2.8797000257228280E-002           4      260984           0
</event>
<event>
      5   9999  3.79277E-02  9.93981E+00 -1.00000E+00  1.96061E-01
      21    -1     0     0   511   501  0.000000000E+00  0.000000000E+00  4.141992479E+01  4.141992479E+01  0.000000000E+00  0.00000E+00  9.000E+00
      21    -1     0     0   501   502  0.000000000E+00  0.000000000E+00 -8.879273270E+02  8.879273270E+02  0.000000000E+00  0.00000E+00  9.000E+00
      25     1     1     2     0     0  1.413897856E+01  1.308998923E+02 -5.464639844E+02  5.758320752E+02  1.250000000E+02  0.00000E+00  9.000E+00
      25     1     1     2     0     0 -1.014198528E+01 -1.217991261E+02 -2.934791999E+02  3.416034657E+02  1.250000000E+02  0.00000E+00  9.000E+00
      21     1     1     2   511   502 -3.996993271E+00 -9.100766235E+00 -6.564217871E+00  1.191171094E+01  1.685873940E-07  0.00000E+00  9.000E+00
#rwgt            1           1   3.7208508924468288E-002           4      261154           0
</event>
<event>
      5   9999  3.79277E-02  1.03449E+02 -1.00000E+00  1.23169E-01
      21    -1     0     0   512   501  0.000000000E+00  0.000000000E+00  3.907590520E+02  3.907590520E+02  0.000000000E+00  0.00000E+00  9.000E+00
      21    -1     0     0   501   502  0.000000000E+00  0.000000000E+00 -2.270211075E+02  2.270211075E+02  0.000000000E+00  0.00000E+00  9.000E+00
      25     1     1     2     0     0  4.245889828E+01 -4.406366868E+01  1.084468647E+02  1.764372052E+02  1.250000000E+02  0.00000E+00  9.000E+00
      25     1     1     2     0     0 -2.682347306E+01 -5.819721350E+01 -1.536577558E+02  2.081877045E+02  1.250000000E+02  0.00000E+00  9.000E+00
      21     1     1     2   512   502 -1.563542522E+01  1.022608822E+02  2.089488357E+02  2.331552497E+02  0.000000000E+00  0.00000E+00  9.000E+00
#rwgt            1           1   4.3607619754455214E-002           4      261576           0
</event>
<event>
      5   9999  3.79277E-02  1.44854E+02 -1.00000E+00  1.16998E-01
       2    -1     0     0   502     0  0.000000000E+00  0.000000000E+00  7.012769851E+01  7.012769851E+01  0.000000000E+00  0.00000E+00  9.000E+00
      21    -1     0     0   501   502  0.000000000E+00  0.000000000E+00 -1.767859908E+03  1.767859908E+03  0.000000000E+00  0.00000E+00  9.000E+00
      25     1     1     2     0     0 -6.341680357E+01 -1.762913001E+02 -1.246001271E+03  1.266192908E+03  1.250000000E+02  0.00000E+00  9.000E+00
      25     1     1     2     0     0  3.246730210E+01  3.478174522E+01 -3.936126000E+02  4.157159780E+02  1.250000000E+02  0.00000E+00  9.000E+00
       2     1     1     2   501     0  3.094950147E+01  1.415095549E+02 -5.811833908E+01  1.560787209E+02  3.090257978E-06  0.00000E+00  9.000E+00
#rwgt            1           1   3.8619714778348538E-002           4      261675           0
</event>
<event>
      5   9999  3.79277E-02  1.79375E+01 -1.00000E+00  1.70366E-01
      21    -1     0     0   511   501  0.000000000E+00  0.000000000E+00  1.449412723E+02  1.449412723E+02  0.000000000E+00  0.00000E+00  9.000E+00
      21    -1     0     0   501   502  0.000000000E+00  0.000000000E+00 -3.582746540E+02  3.582746540E+02  0.000000000E+00  0.00000E+00  9.000E+00
      25     1     1     2     0     0  9.442325474E+01  2.924553770E+01 -2.739013286E+02  3.168879775E+02  1.250000000E+02  0.00000E+00  9.000E+00
      25     1     1     2     0     0 -7.959215976E+01 -1.915628124E+01  3.233777795E+01  1.528810220E+02  1.250000000E+02  0.00000E+00  9.000E+00
      21     1     1     2   511   502 -1.483109498E+01 -1.008925646E+01  2.823016887E+01  3.344692674E+01  0.000000000E+00  0.00000E+00  9.000E+00
#rwgt            1           1   4.3198986579617016E-002           4      261712           0
</event>
<event>
      5   9999  3.79277E-02  2.59737E+01 -1.00000E+00  1.57518E-01
      21    -1     0     0   502   501  0.000000000E+00  0.000000000E+00  1.872027337E+02  1.872027337E+02  0.000000000E+00  0.00000E+00  9.000E+00
      21    -1     0     0   501   512  0.000000000E+00  0.000000000E+00 -1.930308187E+02  1.930308187E+02  0.000000000E+00  0.00000E+00  9.000E+00
      25     1     1     2     0     0  6.018143260E+01  4.557992212E+01  7.652169536E+01  1.648632888E+02  1.250000000E+02  0.00000E+00  9.000E+00
      25     1     1     2     0     0 -8.599479288E+01 -4.269794039E+01 -3.513983495E+01  1.614869237E+02  1.250000000E+02  0.00000E+00  9.000E+00
      21     1     1     2   502   512  2.581336028E+01 -2.881981729E+00 -4.720994537E+01  5.388334000E+01  0.000000000E+00  0.00000E+00  9.000E+00
#rwgt            1           1   2.5018472358132079E-002           4      261835           0
</event>
<event>
      5   9999  3.79277E-02  8.29232E+01 -1.00000E+00  1.27600E-01
      21    -1     0     0   502   501  0.000000000E+00  0.000000000E+00  1.284199649E+02  1.284199649E+02  0.000000000E+00  0.00000E+00  9.000E+00
      21    -1     0     0   511   502  0.000000000E+00  0.000000000E+00 -6.234551295E+02  6.234551295E+02  0.000000000E+00  0.00000E+00  9.000E+00
      25     1     1     2     0     0  2.192899457E+02 -8.055550874E+01 -1.539580388E+02  3.064397950E+02  1.250000000E+02  0.00000E+00  9.000E+00
      25     1     1     2     0     0 -1.365019288E+02  7.582310627E+01 -2.074584319E+02  2.881768918E+02  1.250000000E+02  0.00000E+00  9.000E+00
      21     1     1     2   511   501 -8.278801688E+01  4.732402476E+00 -1.336186940E+02  1.572584076E+02  1.907348633E-06  0.00000E+00  9.000E+00
#rwgt            1           1   3.7343950071930802E-002           4      261995           0
</event>
<event>
      5   9999  3.79277E-02  1.95096E+01 -1.00000E+00  1.67264E-01
      21    -1     0     0   502   501  0.000000000E+00  0.000000000E+00  3.055316138E+02  3.055316138E+02  0.000000000E+00  0.00000E+00  9.000E+00
      21    -1     0     0   501   512  0.000000000E+00  0.000000000E+00 -2.643289673E+02  2.643289673E+02  0.000000000E+00  0.00000E+00  9.000E+00
      25     1     1     2     0     0 -7.265311484E+01 -1.426842008E+02  1.341029074E+02  2.434046960E+02  1.250000000E+02  0.00000E+00  9.000E+00
      25     1     1     2     0     0  8.510853726E+01  1.577003788E+02  1.290135185E+01  2.188705496E+02  1.250000000E+02  0.00000E+00  9.000E+00
      21     1     1     2   502   512 -1.245542243E+01 -1.501617797E+01 -1.058016128E+02  1.075853355E+02  1.907348633E-06  0.00000E+00  9.000E+00
#rwgt            1           1   4.1713058850471427E-002           4      262144           0
</event>
<event>
      5   9999  3.79277E-02  2.02104E+01 -1.00000E+00  1.65995E-01
      21    -1     0     0   511   501  0.000000000E+00  0.000000000E+00  7.704687621E+01  7.704687621E+01  0.000000000E+00  0.00000E+00  9.000E+00
      21    -1     0     0   501   502  0.000000000E+00  0.000000000E+00 -1.060192592E+03  1.060192592E+03  0.000000000E+00  0.00000E+00  9.000E+00
      25     1     1     2     0     0 -8.729701158E+01  2.025052635E+02 -7.173176933E+02  7.607882905E+02  1.250000000E+02  0.00000E+00  9.000E+00
      25     1     1     2     0     0  6.746286293E+01 -1.986235261E+02 -2.566473065E+02  3.542532751E+02  1.250000000E+02  0.00000E+00  9.000E+00
      21     1     1     2   511   502  1.983414865E+01 -3.881737354E+00 -9.180716303E+00  2.219790281E+01  1.192092896E-07  0.00000E+00  9.000E+00
#rwgt            1           1   2.9397724108333634E-002           4      262422           0
</event>
<event>
      5   9999 -3.79277E-02  4.50104E+01 -1.00000E+00  1.41732E-01
      21    -1     0     0   512   501  0.000000000E+00  0.000000000E+00  1.495073969E+02  1.495073969E+02  0.000000000E+00  0.00000E+00  9.000E+00
      21    -1     0     0   501   502  0.000000000E+00  0.000000000E+00 -2.487235132E+03  2.487235132E+03  0.000000000E+00  0.00000E+00  9.000E+00
      25     1     1     2     0     0  1.097339727E+02  2.017920767E+02 -5.335668371E+02  5.942054835E+02  1.250000000E+02  0.00000E+00  9.000E+00
      25     1     1     2     0     0 -1.408612764E+02 -1.692800719E+02 -1.910424574E+03  1.927133803E+03  1.250000000E+02  0.00000E+00  9.000E+00
      21     1     1     2   512   502  3.112730372E+01 -3.251200478E+01  1.062636760E+02  1.154032423E+02  7.387129490E-06  0.00000E+00  9.000E+00
#rwgt            1           1 -0.18044770142391853                4      262755           0
</event>
<event>
      5   9999  3.79277E-02  5.12050E+01 -1.00000E+00  1.38488E-01
      21    -1     0     0   502   501  0.000000000E+00  0.000000000E+00  4.610767141E+02  4.610767141E+02  0.000000000E+00  0.00000E+00  9.000E+00
      -1    -1     0     0     0   502  0.000000000E+00  0.000000000E+00 -9.045650666E+02  9.045650666E+02  0.000000000E+00  0.00000E+00  9.000E+00
      25     1     1     2     0     0  1.815263478E+02 -2.353523178E+02 -6.076078824E+01  3.281149217E+02  1.250000000E+02  0.00000E+00  9.000E+00
      25     1     1     2     0     0 -1.696605816E+02  2.851635178E+02  2.300126241E+02  4.226508630E+02  1.250000000E+02  0.00000E+00  9.000E+00
      -1     1     1     2     0   501 -1.186576626E+01 -4.981119994E+01 -6.127401883E+02  6.148759959E+02  0.000000000E+00  0.00000E+00  9.000E+00
#rwgt            1           1   2.9710112758517700E-002           4      262993           0
</event>
<event>
      5   9999  3.79277E-02  1.87489E+01 -1.00000E+00  1.68718E-01
      -1    -1     0     0     0   501  0.000000000E+00  0.000000000E+00  6.309401925E+02  6.309401925E+02  0.000000000E+00  0.00000E+00  9.000E+00
      21    -1     0     0   501   502  0.000000000E+00  0.000000000E+00 -6.930615041E+02  6.930615041E+02  0.000000000E+00  0.00000E+00  9.000E+00
      25     1     1     2     0     0  1.617402918E+02  8.641102033E+01 -4.077116747E+02  4.641988756E+02  1.250000000E+02  0.00000E+00  9.000E+00
      25     1     1     2     0     0 -1.666075082E+02 -6.830495329E+01 -2.101988152E+02  3.036974981E+02  1.250000000E+02  0.00000E+00  9.000E+00
      -1     1     1     2     0   502  4.867216377E+00 -1.810606705E+01  5.557891783E+02  5.561053229E+02  0.000000000E+00  0.00000E+00  9.000E+00
#rwgt            1           1   3.9219778606009351E-002           4      263212           0
</event>
<event>
      5   9999  3.79277E-02  3.22291E+01 -1.00000E+00  1.50909E-01
      21    -1     0     0   502   511  0.000000000E+00  0.000000000E+00  2.324500271E+02  2.324500271E+02  0.000000000E+00  0.00000E+00  9.000E+00
      21    -1     0     0   501   502  0.000000000E+00  0.000000000E+00 -2.668839563E+02  2.668839563E+02  0.000000000E+00  0.00000E+00  9.000E+00
      25     1     1     2     0     0  1.813183698E+01 -1.691620024E+02  4.957861762E+01  2.168584466E+02  1.250000000E+02  0.00000E+00  9.000E+00
      25     1     1     2     0     0 -4.426992588E+01  1.503069206E+02 -1.204351216E+02  2.338410042E+02  1.250000000E+02  0.00000E+00  9.000E+00
      21     1     1     2   501   511  2.613808890E+01  1.885508180E+01  3.642257483E+01  4.863453257E+01  4.768371582E-07  0.00000E+00  9.000E+00
#rwgt            1           1   6.1104464674691307E-002           4      263440           0
</event>
<event>
      5   9999  3.79277E-02  4.35335E+01 -1.00000E+00  1.42596E-01
      21    -1     0     0   502   501  0.000000000E+00  0.000000000E+00  1.411401717E+03  1.411401717E+03  0.000000000E+00  0.00000E+00  9.000E+00
      21    -1     0     0   501   512  0.000000000E+00  0.000000000E+00 -1.697863233E+02  1.697863233E+02  0.000000000E+00  0.00000E+00  9.000E+00
      25     1     1     2     0     0 -1.799653327E+02 -3.415938941E+01  2.896968537E+01  2.236484463E+02  1.250000000E+02  0.00000E+00  9.000E+00
      25     1     1     2     0     0  2.198965364E+02  1.681968850E+01  1.264599737E+03  1.289757684E+03  1.250000000E+02  0.00000E+00  9.000E+00
      21     1     1     2   502   512 -3.993120372E+01  1.733970091E+01 -5.195402855E+01  6.778191012E+01  2.697398305E-06  0.00000E+00  9.000E+00
#rwgt            1           1   6.0775578584864619E-002           4      263659           0
</event>
<event>
      5   9999  3.79277E-02  9.67757E+00 -1.00000E+00  1.97417E-01
      21    -1     0     0   511   501  0.000000000E+00  0.000000000E+00  9.999207257E+01  9.999207257E+01  0.000000000E+00  0.00000E+00  9.000E+00
      21    -1     0     0   501   502  0.000000000E+00  0.000000000E+00 -6.265476283E+02  6.265476283E+02  0.000000000E+00  0.00000E+00  9.000E+00
      25     1     1     2     0     0  9.993849719E+01  1.031970433E+02 -4.933907598E+02  5.288636637E+02  1.250000000E+02  0.00000E+00  9.000E+00
      25     1     1     2     0     0 -9.953070482E+01 -9.352806478E+01 -3.249327795E+01  1.879751931E+02  1.250000000E+02  0.00000E+00  9.000E+00
      21     1     1     2   511   502 -4.077923710E-01 -9.668978494E+00 -6.715180258E-01  9.700844097E+00  6.787801965E-08  0.00000E+00  9.000E+00
#rwgt            1           1   4.2802805930852984E-002           4      263865           0
</event>
<event>
      5   9999  3.79277E-02  1.59922E+01 -1.00000E+00  1.74803E-01
      21    -1     0     0   502   512  0.000000000E+00  0.000000000E+00  4.859730044E+01  4.859730044E+01  0.000000000E+00  0.00000E+00  9.000E+00
      21    -1     0     0   501   502  0.000000000E+00  0.000000000E+00 -1.313444242E+03  1.313444242E+03  0.000000000E+00  0.00000E+00  9.000E+00
      25     1     1     2     0     0 -1.532160806E+02  9.982924091E+01 -3.282690060E+02  3.960133647E+02  1.250000000E+02  0.00000E+00  9.000E+00
      25     1     1     2     0     0  1.451081940E+02 -8.604476819E+01 -9.170906414E+02  9.408189702E+02  1.250000000E+02  0.00000E+00  9.000E+00
      21     1     1     2   501   512  8.107886598E+00 -1.378447272E+01 -1.948729393E+01  2.520920740E+01  2.384185791E-07  0.00000E+00  9.000E+00
#rwgt            1           1   2.6787243800048294E-002           4      264220           0
</event>
<event>
      5   9999  3.79277E-02  4.40603E+01 -1.00000E+00  1.42283E-01
      21    -1     0     0   502   511  0.000000000E+00  0.000000000E+00  1.086743919E+03  1.086743919E+03  0.000000000E+00  0.00000E+00  9.000E+00
      21    -1     0     0   501   502  0.000000000E+00  0.000000000E+00 -1.194988892E+02  1.194988892E+02  0.000000000E+00  0.00000E+00  9.000E+00
      25     1     1     2     0     0 -9.546420810E+01  2.622656684E+02  4.299362718E+02  5.276048651E+02  1.250000000E+02  0.00000E+00  9.000E+00
      25     1     1     2     0     0  9.123298331E+01 -3.061222807E+02  3.654101308E+02  5.011824734E+02  1.250000000E+02  0.00000E+00  9.000E+00
      21     1     1     2   501   511  4.231224792E+00  4.385661229E+01  1.718986268E+02  1.774554693E+02  1.907348633E-06  0.00000E+00  9.000E+00
#rwgt            1           1   3.5193549437886419E-002           4      264493           0
</event>
<event>
      5   9999  3.79277E-02  2.85916E+02 -1.00000E+00  1.06275E-01
      21    -1     0     0   512   501  0.000000000E+00  0.000000000E+00  7.445604632E+02  7.445604632E+02  0.000000000E+00  0.00000E+00  9.000E+00
      21    -1     0     0   501   502  0.000000000E+00  0.000000000E+00 -5.681591476E+02  5.681591476E+02  0.000000000E+00  0.00000E+00  9.000E+00
      25     1     1     2     0     0  5.454612956E+02 -2.142995953E+02 -4.940656821E+01  6.012639608E+02  1.250000000E+02  0.00000E+00  9.000E+00
      25     1     1     2     0     0 -2.626021229E+02  2.559998444E+02  1.516803462E+02  4.160861962E+02  1.250000000E+02  0.00000E+00  9.000E+00
      21     1     1     2   512   502 -2.828591727E+02 -4.170024903E+01  7.412753754E+01  2.953694537E+02  7.509239077E-06  0.00000E+00  9.000E+00
#rwgt            2          11   1.9752756735457954E-003           4      264671           0
</event>
<event>
      5   9999  3.79277E-02  2.24559E+01 -1.00000E+00  1.62323E-01
      21    -1     0     0   502   501  0.000000000E+00  0.000000000E+00  2.905089947E+02  2.905089947E+02  0.000000000E+00  0.00000E+00  9.000E+00
      21    -1     0     0   511   502  0.000000000E+00  0.000000000E+00 -2.002482315E+02  2.002482315E+02  0.000000000E+00  0.00000E+00  9.000E+00
      25     1     1     2     0     0 -5.563495841E+01 -1.394858229E+02 -4.231866427E+01  1.999185152E+02  1.250000000E+02  0.00000E+00  9.000E+00
      25     1     1     2     0     0  7.250561981E+01  1.543063234E+02  1.526205142E+02  2.607403454E+02  1.250000000E+02  0.00000E+00  9.000E+00
      21     1     1     2   511   501 -1.687066141E+01 -1.482050058E+01 -2.004108673E+01  3.009836559E+01  4.768371582E-07  0.00000E+00  9.000E+00
#rwgt            1           1  0.10466318533758670                4      264691           0
</event>
<event>
      5   9999  3.79277E-02  9.16663E+01 -1.00000E+00  1.25552E-01
      21    -1     0     0   502   512  0.000000000E+00  0.000000000E+00  6.814051063E+02  6.814051063E+02  0.000000000E+00  0.00000E+00  9.000E+00
      21    -1     0     0   501   502  0.000000000E+00  0.000000000E+00 -1.615253001E+02  1.615253001E+02  0.000000000E+00  0.00000E+00  9.000E+00
      25     1     1     2     0     0 -6.472682423E+01 -2.043863405E+02  2.664235083E+02  3.641013921E+02  1.250000000E+02  0.00000E+00  9.000E+00
      25     1     1     2     0     0  1.539773072E+02  2.252921457E+02  1.351738696E+02  3.291846550E+02  1.250000000E+02  0.00000E+00  9.000E+00
      21     1     1     2   501   512 -8.925048300E+01 -2.090580515E+01  1.182824284E+02  1.496443593E+02  1.907348633E-06  0.00000E+00  9.000E+00
#rwgt            2          11   2.9437210706256024E-003           4      265061           0
</event>
<event>
      5   9999  3.79277E-02  1.89186E+01 -1.00000E+00  1.68386E-01
      21    -1     0     0   502   501  0.000000000E+00  0.000000000E+00  2.058703401E+02  2.058703401E+02  0.000000000E+00  0.00000E+00  9.000E+00
      21    -1     0     0   501   511  0.000000000E+00  0.000000000E+00 -3.667307026E+02  3.667307026E+02  0.000000000E+00  0.00000E+00  9.000E+00
      25     1     1     2     0     0  9.156938940E+01 -1.989289079E+02 -1.441087324E+02  2.904306978E+02  1.250000000E+02  0.00000E+00  9.000E+00
      25     1     1     2     0     0 -1.102172970E+02  2.021179212E+02 -1.024140190E+01  2.621629130E+02  1.250000000E+02  0.00000E+00  9.000E+00
      21     1     1     2   502   511  1.864790755E+01 -3.189013300E+00 -6.510228235E+00  2.000743196E+01  1.884864366E-07  0.00000E+00  9.000E+00
#rwgt            1           1  0.12020567451564064                4      265141           0
</event>
<event>
      5   9999  3.79277E-02  5.82518E+00 -1.00000E+00  2.27485E-01
      21    -1     0     0   502   501  0.000000000E+00  0.000000000E+00  1.713827736E+03  1.713827736E+03  0.000000000E+00  0.00000E+00  9.000E+00
      21    -1     0     0   512   502  0.000000000E+00  0.000000000E+00 -4.063418055E+01  4.063418055E+01  0.000000000E+00  0.00000E+00  9.000E+00
      25     1     1     2     0     0 -1.723067029E+02 -4.737106919E+01  7.501017103E+02  7.811601589E+02  1.250000000E+02  0.00000E+00  9.000E+00
      25     1     1     2     0     0  1.703758402E+02  4.187520264E+01  9.352932270E+02  9.597811626E+02  1.250000000E+02  0.00000E+00  9.000E+00
      21     1     1     2   512   501  1.930862688E+00  5.495866551E+00 -1.220138171E+01  1.352059524E+01  5.591411304E-07  0.00000E+00  9.000E+00
#rwgt            1           1   4.5139562485263629E-002           4      265366           0
</event>
<event>
      5   9999  3.79277E-02  2.13642E+01 -1.00000E+00  1.64039E-01
      21    -1     0     0   502   511  0.000000000E+00  0.000000000E+00  5.032737703E+01  5.032737703E+01  0.000000000E+00  0.00000E+00  9.000E+00
      21    -1     0     0   501   502  0.000000000E+00  0.000000000E+00 -5.672890077E+02  5.672890077E+02  0.000000000E+00  0.00000E+00  9.000E+00
      25     1     1     2     0     0  7.213958303E+01  5.246960904E+01 -2.027300170E+02  2.543258522E+02  1.250000000E+02  0.00000E+00  9.000E+00
      25     1     1     2     0     0 -6.983006951E+01 -3.123059227E+01 -3.079173795E+02  3.410127579E+02  1.250000000E+02  0.00000E+00  9.000E+00
      21     1     1     2   501   511 -2.309513527E+00 -2.123901677E+01 -6.314234191E+00  2.227777457E+01  1.884864366E-07  0.00000E+00  9.000E+00
#rwgt            1           1   3.0065202742870143E-002           4      265765           0
</event>
<event>
      5   9999  3.79277E-02  1.39954E+02 -1.00000E+00  1.17599E-01
      21    -1     0     0   502   512  0.000000000E+00  0.000000000E+00  3.089188833E+02  3.089188833E+02  0.000000000E+00  0.00000E+00  9.000E+00
      21    -1     0     0   501   502  0.000000000E+00  0.000000000E+00 -4.183131885E+02  4.183131885E+02  0.000000000E+00  0.00000E+00  9.000E+00
      25     1     1     2     0     0  4.283059552E+01  6.971761492E+01  4.303083685E+00  1.494607717E+02  1.250000000E+02  0.00000E+00  9.000E+00
      25     1     1     2     0     0  4.044560843E+01  4.276448455E+01 -3.084303361E+02  3.379628983E+02  1.250000000E+02  0.00000E+00  9.000E+00
      21     1     1     2   501   512 -8.327620396E+01 -1.124820995E+02  1.947329472E+02  2.398084018E+02  0.000000000E+00  0.00000E+00  9.000E+00
#rwgt            2          11   2.7896841462859583E-003           4      265996           0
</event>
<event>
      5   9999  3.79277E-02  3.19354E+01 -1.00000E+00  1.51178E-01
      21    -1     0     0   511   501  0.000000000E+00  0.000000000E+00  7.069067374E+02  7.069067374E+02  0.000000000E+00  0.00000E+00  9.000E+00
      21    -1     0     0   501   502  0.000000000E+00  0.000000000E+00 -9.588812247E+01  9.588812247E+01  0.000000000E+00  0.00000E+00  9.000E+00
      25     1     1     2     0     0 -2.314783276E+01 -4.487924365E+01  5.440849241E+02  5.605384673E+02  1.250000000E+02  0.00000E+00  9.000E+00
      25     1     1     2     0     0  6.666613777E+00  1.752533148E+01 -3.846829075E+01  1.321226339E+02  1.250000000E+02  0.00000E+00  9.000E+00
      21     1     1     2   511   502  1.648121898E+01  2.735391217E+01  1.054019815E+02  1.101337587E+02  1.348699152E-06  0.00000E+00  9.000E+00
#rwgt            1           1   4.3931173473449381E-002           4      266016           0
</event>
<event>
      5   9999  3.79277E-02  6.71270E+01 -1.00000E+00  1.32149E-01
      21    -1     0     0   502   501  0.000000000E+00  0.000000000E+00  4.420533915E+02  4.420533915E+02  0.000000000E+00  0.00000E+00  9.000E+00
      21    -1     0     0   501   512  0.000000000E+00  0.000000000E+00 -1.385401958E+02  1.385401958E+02  0.000000000E+00  0.00000E+00  9.000E+00
      25     1     1     2     0     0 -2.672102507E+01  1.192491040E+02  1.478248058E+02  2.289356574E+02  1.250000000E+02  0.00000E+00  9.000E+00
      25     1     1     2     0     0  1.318765731E+01 -1.849977129E+02  1.725063760E+02  2.824562229E+02  1.250000000E+02  0.00000E+00  9.000E+00
      21     1     1     2   502   512  1.353336776E+01  6.574860886E+01 -1.681798614E+01  6.920170711E+01  1.039242493E-06  0.00000E+00  9.000E+00
#rwgt            1           1   4.4329731394880223E-002           4      266134           0
</event>
<event>
      5   9999  3.79277E-02  1.32235E+02 -1.00000E+00  1.18605E-01
      21    -1     0     0   502   501  0.000000000E+00  0.000000000E+00  1.660173425E+02  1.660173425E+02  0.000000000E+00  0.00000E+00  9.000E+00
      21    -1     0     0   511   502  0.000000000E+00  0.000000000E+00 -7.086203787E+02  7.086203787E+02  0.000000000E+00  0.00000E+00  9.000E+00
      25     1     1     2     0     0 -5.198234687E+01  2.761550013E+02 -3.539271407E+02  4.688850286E+02  1.250000000E+02  0.00000E+00  9.000E+00
      25     1     1     2     0     0 -9.003586831E+00 -1.588230775E+02 -3.901408606E+01  2.060410964E+02  1.250000000E+02  0.00000E+00  9.000E+00
      21     1     1     2   511   501  6.098593370E+01 -1.173319238E+02 -1.496618095E+02  1.997115962E+02  1.907348633E-06  0.00000E+00  9.000E+00
#rwgt            1           1   9.0494632941653233E-002           4      266215           0
</event>
<event>
      5   9999  3.79277E-02  3.95913E+01 -1.00000E+00  1.45117E-01
      21    -1     0     0   502   501  0.000000000E+00  0.000000000E+00  8.401671349E+02  8.401671349E+02  0.000000000E+00  0.00000E+00  9.000E+00
      21    -1     0     0   512   502  0.000000000E+00  0.000000000E+00 -4.685768004E+02  4.685768004E+02  0.000000000E+00  0.00000E+00  9.000E+00
      25     1     1     2     0     0 -7.774247517E+01 -1.010405060E+02  3.260732804E+01  1.814974218E+02  1.250000000E+02  0.00000E+00  9.000E+00
      25     1     1     2     0     0  6.722575628E+01  6.287158345E+01  7.238705246E+02  7.403280859E+02  1.250000000E+02  0.00000E+00  9.000E+00
      21     1     1     2   512   501  1.051671889E+01  3.816892251E+01 -3.848875181E+02  3.869184276E+02  0.000000000E+00  0.00000E+00  9.000E+00
#rwgt            1           1   4.9672422675498429E-002           4      266304           0
</event>
<event>
      5   9999  3.79277E-02  1.49859E+01 -1.00000E+00  1.77422E-01
      21    -1     0     0   511   501  0.000000000E+00  0.000000000E+00  2.600749382E+01  2.600749382E+01  0.000000000E+00  0.00000E+00  9.000E+00
      21    -1     0     0   501   502  0.000000000E+00  0.000000000E+00 -2.324761792E+03  2.324761792E+03  0.000000000E+00  0.00000E+00  9.000E+00
      25     1     1     2     0     0 -1.494975949E+02  2.479858822E+00 -1.293327799E+03  1.307928697E+03  1.250000000E+02  0.00000E+00  9.000E+00
      25     1     1     2     0     0  1.640028608E+02  1.285041607E+00 -1.006884418E+03  1.027783937E+03  1.250000000E+02  0.00000E+00  9.000E+00
      21     1     1     2   511   502 -1.450526595E+01 -3.764900428E+00  1.457919651E+00  1.505665120E+01  8.955585481E-07  0.00000E+00  9.000E+00
#rwgt            1           1   7.7546915277353967E-002           4      266471           0
</event>
<event>
      5   9999  3.79277E-02  4.07882E+01 -1.00000E+00  1.44317E-01
      21    -1     0     0   502   501  0.000000000E+00  0.000000000E+00  1.889907831E+02  1.889907831E+02  0.000000000E+00  0.00000E+00  9.000E+00
      21    -1     0     0   512   502  0.000000000E+00  0.000000000E+00 -3.678720601E+02  3.678720601E+02  0.000000000E+00  0.00000E+00  9.000E+00
      25     1     1     2     0     0  1.143448350E+02 -1.235464331E+02 -3.706639835E+01  2.129257624E+02  1.250000000E+02  0.00000E+00  9.000E+00
      25     1     1     2     0     0 -1.195131604E+02  8.308702132E+01  4.628053032E+00  1.919199508E+02  1.250000000E+02  0.00000E+00  9.000E+00
      21     1     1     2   512   501  5.168325461E+00  4.045941182E+01 -1.464429316E+02  1.520171300E+02  2.697398305E-06  0.00000E+00  9.000E+00
#rwgt            1           1   3.4716779651913811E-002           4      267188           0
</event>
<event>
      5   9999  3.79277E-02  1.16814E+02 -1.00000E+00  1.20866E-01
      21    -1     0     0   502   511  0.000000000E+00  0.000000000E+00  9.734081717E+01  9.734081717E+01  0.000000000E+00  0.00000E+00  9.000E+00
      21    -1     0     0   501   502  0.000000000E+00  0.000000000E+00 -1.798956376E+03  1.798956376E+03  0.000000000E+00  0.00000E+00  9.000E+00
      25     1     1     2     0     0  2.077790193E+02 -2.014181837E+02 -3.577668774E+02  4.768265347E+02  1.250000000E+02  0.00000E+00  9.000E+00
      25     1     1     2     0     0 -1.040748029E+02  2.551863438E+02 -1.180379344E+03  1.218553253E+03  1.250000000E+02  0.00000E+00  9.000E+00
      21     1     1     2   501   511 -1.037042165E+02 -5.376816007E+01 -1.634693374E+02  2.009174055E+02  3.303624740E-06  0.00000E+00  9.000E+00
#rwgt            1           1   3.5824560614655110E-002           4      267345           0
</event>
<event>
      5   9999  3.79277E-02  3.23321E+01 -1.00000E+00  1.50815E-01
      21    -1     0     0   502   501  0.000000000E+00  0.000000000E+00  2.045628349E+02  2.045628349E+02  0.000000000E+00  0.00000E+00  9.000E+00
      21    -1     0     0   512   502  0.000000000E+00  0.000000000E+00 -5.227433337E+02  5.227433337E+02  0.000000000E+00  0.00000E+00  9.000E+00
      25     1     1     2     0     0  1.201050125E+02 -1.268157101E+02 -7.268911108E+01  2.267512850E+02  1.250000000E+02  0.00000E+00  9.000E+00
      25     1     1     2     0     0 -1.506447656E+02  1.374312064E+02  1.349458708E+01  2.395585227E+02  1.250000000E+02  0.00000E+00  9.000E+00
      21     1     1     2   512   501  3.053975310E+01 -1.061549630E+01 -2.589859748E+02  2.609963609E+02  3.814697266E-06  0.00000E+00  9.000E+00
#rwgt            1           1   2.1654791277735778E-002           4      267401           0
</event>
<event>
      5   9999  3.79277E-02  7.40137E+01 -1.00000E+00  1.30006E-01
      21    -1     0     0   502   501  0.000000000E+00  0.000000000E+00  3.982129972E+02  3.982129972E+02  0.000000000E+00  0.00000E+00  9.000E+00
      21    -1     0     0   511   502  0.000000000E+00  0.000000000E+00 -1.498802922E+02  1.498802922E+02  0.000000000E+00  0.00000E+00  9.000E+00
      25     1     1     2     0     0 -1.040872098E+02  4.743720882E+01  7.777248749E+00  1.696169851E+02  1.250000000E+02  0.00000E+00  9.000E+00
      25     1     1     2     0     0  3.020068553E+01 -4.310105259E+01  2.673315226E+02  2.997681189E+02  1.250000000E+02  0.00000E+00  9.000E+00
      21     1     1     2   511   501  7.388652425E+01 -4.336156236E+00 -2.677606633E+01  7.870818538E+01  1.215700987E-06  0.00000E+00  9.000E+00
#rwgt            1           1   4.4540953484004109E-002           4      267524           0
</event>
<event>
      5   9999  3.79277E-02  2.96006E+01 -1.00000E+00  1.53445E-01
      21    -1     0     0   502   501  0.000000000E+00  0.000000000E+00  1.078854763E+03  1.078854763E+03  0.000000000E+00  0.00000E+00  9.000E+00
      21    -1     0     0   512   502  0.000000000E+00  0.000000000E+00 -7.611533172E+01  7.611533172E+01  0.000000000E+00  0.00000E+00  9.000E+00
      25     1     1     2     0     0 -8.075066755E+00 -1.500934465E+02  7.817419650E+02  8.058155802E+02  1.250000000E+02  0.00000E+00  9.000E+00
      25     1     1     2     0     0 -6.203141163E+00  1.241642038E+02  2.511836118E+02  3.068769058E+02  1.250000000E+02  0.00000E+00  9.000E+00
      21     1     1     2   512   501  1.427820792E+01  2.592924269E+01 -3.018614535E+01  4.227760895E+01  3.371747881E-07  0.00000E+00  9.000E+00
#rwgt            1           1   2.9816965420039119E-002           4      267578           0
</event>
<event>
      5   9999  3.79277E-02  3.20217E+01 -1.00000E+00  1.51098E-01
      21    -1     0     0   511   501  0.000000000E+00  0.000000000E+00  2.116339963E+03  2.116339963E+03  0.000000000E+00  0.00000E+00  9.000E+00
      21    -1     0     0   501   502  0.000000000E+00  0.000000000E+00 -2.696363634E+01  2.696363634E+01  0.000000000E+00  0.00000E+00  9.000E+00
      25     1     1     2     0     0  9.674284568E+00 -6.388625189E+01  6.547778628E+02  6.697268806E+02  1.250000000E+02  0.00000E+00  9.000E+00
      25     1     1     2     0     0  2.866750938E+00  3.442247798E+01  1.987760384E+02  2.373395009E+02  1.250000000E+02  0.00000E+00  9.000E+00
      21     1     1     2   511   502 -1.254103551E+01  2.946377391E+01  1.235822425E+03  1.236237218E+03  1.525878906E-05  0.00000E+00  9.000E+00
#rwgt            1           1   3.9040926570758833E-002           4      267699           0
</event>
<event>
      5   9999  3.79277E-02  1.18608E+01 -1.00000E+00  1.87562E-01
      21    -1     0     0   512   501  0.000000000E+00  0.000000000E+00  3.773136223E+02  3.773136223E+02  0.000000000E+00  0.00000E+00  9.000E+00
      21    -1     0     0   501   502  0.000000000E+00  0.000000000E+00 -8.641079689E+01  8.641079689E+01  0.000000000E+00  0.00000E+00  9.000E+00
      25     1     1     2     0     0  2.445964844E+01  2.166278660E+01  2.738822148E+02  3.028267134E+02  1.250000000E+02  0.00000E+00  9.000E+00
      25     1     1     2     0     0 -1.877969060E+01 -3.207515469E+01 -1.059910840E+01  1.308389599E+02  1.250000000E+02  0.00000E+00  9.000E+00
      21     1     1     2   512   502 -5.679957837E+00  1.041236809E+01  2.761971892E+01  3.005874588E+01  4.768371582E-07  0.00000E+00  9.000E+00
#rwgt            1           1   4.4722961093307673E-002           4      267794           0
</event>
<event>
      5   9999  3.79277E-02  4.72501E+01 -1.00000E+00  1.40492E-01
      21    -1     0     0   502   501  0.000000000E+00  0.000000000E+00  5.152337395E+02  5.152337395E+02  0.000000000E+00  0.00000E+00  9.000E+00
      21    -1     0     0   501   511  0.000000000E+00  0.000000000E+00 -2.244048284E+02  2.244048284E+02  0.000000000E+00  0.00000E+00  9.000E+00
      25     1     1     2     0     0 -6.296190717E+01  1.061792810E+01  6.381151217E+01  1.541877143E+02  1.250000000E+02  0.00000E+00  9.000E+00
      25     1     1     2     0     0  8.036214148E+01  3.331161295E+01  3.884548337E+02  4.172408120E+02  1.250000000E+02  0.00000E+00  9.000E+00
      21     1     1     2   502   511 -1.740023431E+01 -4.392954104E+01 -1.614374348E+02  1.682100416E+02  2.697398305E-06  0.00000E+00  9.000E+00
#rwgt            1           1   2.6845050602722426E-002           4      268057           0
</event>
<event>
      5   9999  3.79277E-02  6.30557E+01 -1.00000E+00  1.33561E-01
       1    -1     0     0   502     0  0.000000000E+00  0.000000000E+00  5.597331381E+02  5.597331381E+02  0.000000000E+00  0.00000E+00  9.000E+00
      21    -1     0     0   501   502  0.000000000E+00  0.000000000E+00 -2.144524975E+02  2.144524975E+02  0.000000000E+00  0.00000E+00  9.000E+00
      25     1     1     2     0     0 -3.905629908E+01 -1.263288222E+02  8.184623014E-01  1.819616325E+02  1.250000000E+02  0.00000E+00  9.000E+00
      25     1     1     2     0     0  1.020891824E+02  1.280255010E+02 -3.378567604E+01  2.087563220E+02  1.250000000E+02  0.00000E+00  9.000E+00
       1     1     1     2   501     0 -6.303288329E+01 -1.696678795E+00  3.782478544E+02  3.834676811E+02  5.394796609E-06  0.00000E+00  9.000E+00
#rwgt            1           1   3.2570484036531365E-002           4      268196           0
</event>
<event>
      5   9999  3.79277E-02  1.10354E+02 -1.00000E+00  1.21934E-01
      21    -1     0     0   511   501  0.000000000E+00  0.000000000E+00  1.422223675E+03  1.422223675E+03  0.000000000E+00  0.00000E+00  9.000E+00
      21    -1     0     0   501   502  0.000000000E+00  0.000000000E+00 -6.649629784E+01  6.649629784E+01  0.000000000E+00  0.00000E+00  9.000E+00
      25     1     1     2     0     0  4.297119640E+01 -1.910286096E+01  6.529323902E+01  1.486595106E+02  1.250000000E+02  0.00000E+00  9.000E+00
      25     1     1     2     0     0 -1.507096327E+02  4.298584967E+01  4.528332002E+02  4.952212474E+02  1.250000000E+02  0.00000E+00  9.000E+00
      21     1     1     2   511   502  1.077384363E+02 -2.388298871E+01  8.376009382E+02  8.448392152E+02  0.000000000E+00  0.00000E+00  9.000E+00
#rwgt            1           1   4.3429647060294466E-002           4      268409           0
</event>
<event>
      5   9999  3.79277E-02  1.40492E+01 -1.00000E+00  1.80105E-01
       2    -1     0     0   502     0  0.000000000E+00  0.000000000E+00  2.330059085E+03  2.330059085E+03  0.000000000E+00  0.00000E+00  9.000E+00
      21    -1     0     0   501   502  0.000000000E+00  0.000000000E+00 -2.051526634E+02  2.051526634E+02  0.000000000E+00  0.00000E+00  9.000E+00
      25     1     1     2     0     0 -2.568905740E+02 -6.055403693E+01  2.734089878E+02  4.000462885E+02  1.250000000E+02  0.00000E+00  9.000E+00
      25     1     1     2     0     0  2.464357089E+02  5.116912191E+01 -2.580112086E+00  2.810346859E+02  1.250000000E+02  0.00000E+00  9.000E+00
       2     1     1     2   501     0  1.045486502E+01  9.384915012E+00  1.854077546E+03  1.854130774E+03  3.737624730E-05  0.00000E+00  9.000E+00
#rwgt            1           1   5.6269944313853279E-002           4      268458           0
</event>
<event>
      5   9999  3.79277E-02  1.63713E+01 -1.00000E+00  1.73878E-01
      21    -1     0     0   502   511  0.000000000E+00  0.000000000E+00  4.168119538E+02  4.168119538E+02  0.000000000E+00  0.00000E+00  9.000E+00
      21    -1     0     0   501   502  0.000000000E+00  0.000000000E+00 -5.491236001E+02  5.491236001E+02  0.000000000E+00  0.00000E+00  9.000E+00
      25     1     1     2     0     0 -7.074485606E+01  1.521964910E+00 -2.463712608E+01  1.457365397E+02  1.250000000E+02  0.00000E+00  9.000E+00
      25     1     1     2     0     0  6.811879220E+01 -1.768122829E+01 -4.526493191E+02  4.748359735E+02  1.250000000E+02  0.00000E+00  9.000E+00
      21     1     1     2   501   511  2.626063861E+00  1.615926338E+01  3.449747989E+02  3.453630407E+02  5.394796609E-06  0.00000E+00  9.000E+00
#rwgt            1           1   4.0136654774017538E-002           4      268708           0
</event>
<event>
      5   9999 -3.79277E-02  6.03420E+01 -1.00000E+00  1.34572E-01
      21    -1     0     0   512   501  0.000000000E+00  0.000000000E+00  1.240317573E+03  1.240317573E+03  0.000000000E+00  0.00000E+00  9.000E+00
      21    -1     0     0   501   502  0.000000000E+00  0.000000000E+00 -5.490734134E+02  5.490734134E+02  0.000000000E+00  0.00000E+00  9.000E+00
      25     1     1     2     0     0 -1.944434570E+02  7.016713279E+02 -3.938405079E+01  7.398155269E+02  1.250000000E+02  0.00000E+00  9.000E+00
      25     1     1     2     0     0  2.141733595E+02 -6.446460272E+02  6.932164429E+02  9.785769081E+02  1.250000000E+02  0.00000E+00  9.000E+00
      21     1     1     2   512   502 -1.972990251E+01 -5.702530073E+01  3.741176780E+01  7.099855172E+01  0.000000000E+00  0.00000E+00  9.000E+00
#rwgt            1           1  -2.2596246262364707E-002           4      268952           0
</event>
<event>
      5   9999  3.79277E-02  9.50097E+01 -1.00000E+00  1.24836E-01
      -3    -1     0     0     0   501  0.000000000E+00  0.000000000E+00  2.800659893E+02  2.800659893E+02  0.000000000E+00  0.00000E+00  9.000E+00
      21    -1     0     0   501   502  0.000000000E+00  0.000000000E+00 -3.997531244E+02  3.997531244E+02  0.000000000E+00  0.00000E+00  9.000E+00
      25     1     1     2     0     0 -4.247495942E+01 -1.323786524E+02  3.295282715E+01  1.898397182E+02  1.250000000E+02  0.00000E+00  9.000E+00
      25     1     1     2     0     0  7.971877751E+01  4.497309072E+01 -2.865721078E+02  3.257702186E+02  1.250000000E+02  0.00000E+00  9.000E+00
      -3     1     1     2     0   502 -3.724381809E+01  8.740556165E+01  1.339321455E+02  1.642091770E+02  2.697398305E-06  0.00000E+00  9.000E+00
#rwgt            1           1   5.0507545993109360E-002           4      269123           0
</event>
<event>
      5   9999  3.79277E-02  7.45003E+01 -1.00000E+00  1.29865E-01
       5    -1     0     0   502     0  0.000000000E+00  0.000000000E+00  3.314300381E+02  3.314300381E+02  0.000000000E+00  0.00000E+00  9.000E+00
      21    -1     0     0   501   502  0.000000000E+00  0.000000000E+00 -1.990395014E+02  1.990395014E+02  0.000000000E+00  0.00000E+00  9.000E+00
      25     1     1     2     0     0 -1.167509613E+02 -4.846394646E+01  2.539485712E+01  1.795812904E+02  1.250000000E+02  0.00000E+00  9.000E+00
      25     1     1     2     0     0  1.244670507E+02  1.225635935E+02 -6.762236993E+00  2.149060470E+02  1.250000000E+02  0.00000E+00  9.000E+00
       5     1     1     2   501     0 -7.716089412E+00 -7.409964706E+01  1.137579166E+02  1.359822022E+02  0.000000000E+00  0.00000E+00  9.000E+00
#rwgt            1           1   4.8168607911467362E-002           4      269211           0
</event>
<event>
      5   9999 -3.79277E-02  7.73265E+01 -1.00000E+00  1.29068E-01
       2    -1     0     0   502     0  0.000000000E+00  0.000000000E+00  2.201918781E+03  2.201918781E+03  0.000000000E+00  0.00000E+00  9.000E+00
      21    -1     0     0   501   502  0.000000000E+00  0.000000000E+00 -8.865301649E+02  8.865301649E+02  0.000000000E+00  0.00000E+00  9.000E+00
      25     1     1     2     0     0  2.247793979E+02 -3.174702680E+02 -1.357545609E+02  4.305432030E+02  1.250000000E+02  0.00000E+00  9.000E+00
      25     1     1     2     0     0 -2.694723889E+02  2.543677987E+02 -5.391822847E+02  6.660787352E+02  1.250000000E+02  0.00000E+00  9.000E+00
       2     1     1     2   501     0  4.469299105E+01  6.310246937E+01  1.990325462E+03  1.991827008E+03  0.000000000E+00  0.00000E+00  9.000E+00
#rwgt            1           1 -0.42425157474646918                4      269376           0
</event>
<event>
      5   9999  3.79277E-02  9.29740E+01 -1.00000E+00  1.25268E-01
      21    -1     0     0   502   501  0.000000000E+00  0.000000000E+00  1.751942896E+02  1.751942896E+02  0.000000000E+00  0.00000E+00  9.000E+00
       2    -1     0     0   501     0  0.000000000E+00  0.000000000E+00 -2.484981379E+03  2.484981379E+03  0.000000000E+00  0.00000E+00  9.000E+00
      25     1     1     2     0     0  7.265169465E+01 -2.180537991E+02 -2.041223899E+02  3.318383313E+02  1.250000000E+02  0.00000E+00  9.000E+00
      25     1     1     2     0     0 -9.598700627E+01  1.280558316E+02  1.686937843E+01  2.037679497E+02  1.250000000E+02  0.00000E+00  9.000E+00
       2     1     1     2   502     0  2.333531161E+01  8.999796744E+01 -2.122534078E+03  2.124569387E+03  4.315837288E-05  0.00000E+00  9.000E+00
#rwgt            1           1   3.5778085706795616E-002           4      269464           0
</event>
<event>
      5   9999  3.79277E-02  9.21563E+01 -1.00000E+00  1.25445E-01
      21    -1     0     0   502   501  0.000000000E+00  0.000000000E+00  2.258119959E+03  2.258119959E+03  0.000000000E+00  0.00000E+00  9.000E+00
      21    -1     0     0   501   511  0.000000000E+00  0.000000000E+00 -3.308218164E+02  3.308218164E+02  0.000000000E+00  0.00000E+00  9.000E+00
      25     1     1     2     0     0 -2.373086070E+02  1.521761759E+02  1.045287685E+03  1.089827651E+03  1.250000000E+02  0.00000E+00  9.000E+00
      25     1     1     2     0     0  1.623445163E+02 -9.857427156E+01  1.172507481E+03  1.194349790E+03  1.250000000E+02  0.00000E+00  9.000E+00
      21     1     1     2   502   511  7.496409072E+01 -5.360190434E+01 -2.904970233E+02  3.047643345E+02  8.529922400E-06  0.00000E+00  9.000E+00
#rwgt            1           1   8.1438894222802247E-002           4      269521           0
</event>
<event>
      5   9999  3.79277E-02  2.09056E+01 -1.00000E+00  1.64798E-01
      21    -1     0     0   502   501  0.000000000E+00  0.000000000E+00  3.416354039E+02  3.416354039E+02  0.000000000E+00  0.00000E+00  9.000E+00
       2    -1     0     0   501     0  0.000000000E+00  0.000000000E+00 -6.072890689E+02  6.072890689E+02  0.000000000E+00  0.00000E+00  9.000E+00
      25     1     1     2     0     0 -1.261394459E+02  1.127319817E+01 -4.257850308E+01  1.829649522E+02  1.250000000E+02  0.00000E+00  9.000E+00
      25     1     1     2     0     0  1.453001837E+02 -1.963434176E+01  2.369846838E+02  3.054249353E+02  1.250000000E+02  0.00000E+00  9.000E+00
       2     1     1     2   502     0 -1.916073776E+01  8.361143587E+00 -4.600598458E+02  4.605345853E+02  0.000000000E+00  0.00000E+00  9.000E+00
#rwgt            1           1   3.8936332149064362E-002           4      269609           0
</event>
<event>
      5   9999  3.79277E-02  4.60932E+01 -1.00000E+00  1.41122E-01
      21    -1     0     0   511   501  0.000000000E+00  0.000000000E+00  5.018699985E+01  5.018699985E+01  0.000000000E+00  0.00000E+00  9.000E+00
      21    -1     0     0   501   502  0.000000000E+00  0.000000000E+00 -1.497748903E+03  1.497748903E+03  0.000000000E+00  0.00000E+00  9.000E+00
      25     1     1     2     0     0  1.524795881E+02 -6.786877828E+01 -3.281699220E+02  3.888144719E+02  1.250000000E+02  0.00000E+00  9.000E+00
      25     1     1     2     0     0 -1.880296702E+02  3.852980474E+01 -1.057097344E+03  1.081628170E+03  1.250000000E+02  0.00000E+00  9.000E+00
      21     1     1     2   511   502  3.555008214E+01  2.933897354E+01 -6.229463648E+01  7.749326062E+01  1.168007728E-06  0.00000E+00  9.000E+00
#rwgt            1           1   2.7861656377203364E-002           4      269806           0
</event>
<event>
      5   9999  3.79277E-02  3.67108E+01 -1.00000E+00  1.47190E-01
      21    -1     0     0   502   501  0.000000000E+00  0.000000000E+00  8.894879232E+02  8.894879232E+02  0.000000000E+00  0.00000E+00  9.000E+00
      21    -1     0     0   512   502  0.000000000E+00  0.000000000E+00 -1.760006361E+02  1.760006361E+02  0.000000000E+00  0.00000E+00  9.000E+00
      25     1     1     2     0     0  1.046347488E+02  2.736194349E+02  5.955742762E+02  6.753885876E+02  1.250000000E+02  0.00000E+00  9.000E+00
      25     1     1     2     0     0 -1.412115784E+02 -2.767524571E+02  1.019940294E+02  3.500862957E+02  1.250000000E+02  0.00000E+00  9.000E+00
      21     1     1     2   512   501  3.657682967E+01  3.133022159E+00  1.591898157E+01  4.001367604E+01  6.743495762E-07  0.00000E+00  9.000E+00
#rwgt            1           1   4.0843486677977776E-002           4      269942           0
</event>
<event>
      5   9999  3.79277E-02  2.02397E+01 -1.00000E+00  1.65943E-01
      -1    -1     0     0     0   501  0.000000000E+00  0.000000000E+00  1.415263707E+03  1.415263707E+03  0.000000000E+00  0.00000E+00  9.000E+00
      21    -1     0     0   501   502  0.000000000E+00  0.000000000E+00 -7.789162464E+01  7.789162464E+01  0.000000000E+00  0.00000E+00  9.000E+00
      25     1     1     2     0     0 -1.110804731E+02  1.418380844E+02  4.213523930E+02  4.749944766E+02  1.250000000E+02  0.00000E+00  9.000E+00
      25     1     1     2     0     0  1.029388692E+02 -1.603681043E+02  2.040439432E+02  3.058974835E+02  1.250000000E+02  0.00000E+00  9.000E+00
      -1     1     1     2     0   502  8.141603863E+00  1.853001995E+01  7.119757461E+02  7.122633715E+02  7.629394531E-06  0.00000E+00  9.000E+00
#rwgt            1           1   2.3975513348064820E-002           4      270305           0
</event>
<event>
      5   9999  3.79277E-02  8.54357E+01 -1.00000E+00  1.26983E-01
       3    -1     0     0   502     0  0.000000000E+00  0.000000000E+00  3.951816906E+02  3.951816906E+02  0.000000000E+00  0.00000E+00  9.000E+00
      21    -1     0     0   501   502  0.000000000E+00  0.000000000E+00 -2.041550828E+02  2.041550828E+02  0.000000000E+00  0.00000E+00  9.000E+00
      25     1     1     2     0     0  5.181530362E+01 -8.512023441E+00 -4.187113703E+01  1.418995150E+02  1.250000000E+02  0.00000E+00  9.000E+00
      25     1     1     2     0     0 -1.238380666E+02  5.446838506E+01 -2.488265687E+01  1.858677442E+02  1.250000000E+02  0.00000E+00  9.000E+00
       3     1     1     2   501     0  7.202276300E+01 -4.595636161E+01  2.577804018E+02  2.715695143E+02  0.000000000E+00  0.00000E+00  9.000E+00
#rwgt            1           1   4.1124549361696495E-002           4      270442           0
</event>
<event>
      5   9999  3.79277E-02  5.36622E+01 -1.00000E+00  1.37346E-01
      21    -1     0     0   502   501  0.000000000E+00  0.000000000E+00  3.507597432E+02  3.507597432E+02  0.000000000E+00  0.00000E+00  9.000E+00
      21    -1     0     0   501   511  0.000000000E+00  0.000000000E+00 -5.429266840E+02  5.429266840E+02  0.000000000E+00  0.00000E+00  9.000E+00
      25     1     1     2     0     0 -1.727497884E+02  2.189977106E+01  1.779450234E+02  2.785884433E+02  1.250000000E+02  0.00000E+00  9.000E+00
      25     1     1     2     0     0  1.199723704E+02 -1.219553648E+01  5.839769338E+01  1.832413473E+02  1.250000000E+02  0.00000E+00  9.000E+00
      21     1     1     2   502   511  5.277741802E+01 -9.704234578E+00 -4.285096576E+02  4.318566367E+02  5.394796609E-06  0.00000E+00  9.000E+00
#rwgt            1           1   3.3124007540069937E-002           4      270598           0
</event>
<event>
      5   9999  3.79277E-02  7.50227E+01 -1.00000E+00  1.29714E-01
      21    -1     0     0   502   501  0.000000000E+00  0.000000000E+00  3.841812745E+02  3.841812745E+02  0.000000000E+00  0.00000E+00  9.000E+00
       2    -1     0     0   501     0  0.000000000E+00  0.000000000E+00 -2.879264344E+02  2.879264344E+02  0.000000000E+00  0.00000E+00  9.000E+00
      25     1     1     2     0     0  1.101792594E+02  9.223427270E+01  1.910552827E+02  2.697661048E+02  1.250000000E+02  0.00000E+00  9.000E+00
      25     1     1     2     0     0 -1.845436642E+02 -8.231766205E+01  4.672714657E+01  2.421590133E+02  1.250000000E+02  0.00000E+00  9.000E+00
       2     1     1     2   502     0  7.436440483E+01 -9.916610647E+00 -1.415275892E+02  1.601825908E+02  3.303624740E-06  0.00000E+00  9.000E+00
#rwgt            1           1   3.6083396229598608E-002           4      270736           0
</event>
<event>
      5   9999 -3.79277E-02  1.94749E+01 -1.00000E+00  1.67328E-01
      21    -1     0     0   502   511  0.000000000E+00  0.000000000E+00  3.991385830E+02  3.991385830E+02  0.000000000E+00  0.00000E+00  9.000E+00
      21    -1     0     0   501   502  0.000000000E+00  0.000000000E+00 -8.839130472E+02  8.839130472E+02  0.000000000E+00  0.00000E+00  9.000E+00
      25     1     1     2     0     0  9.079220745E-01 -1.913822738E+02 -5.639230949E+02  6.084917879E+02  1.250000000E+02  0.00000E+00  9.000E+00
      25     1     1     2     0     0  7.782096569E+00  1.739537487E+02 -2.588059387E+02  3.360446125E+02  1.250000000E+02  0.00000E+00  9.000E+00
      21     1     1     2   501   511 -8.690018643E+00  1.742852510E+01  3.379545693E+02  3.385152298E+02  3.814697266E-06  0.00000E+00  9.000E+00
#rwgt            1           1 -0.24529902832570066                4      270892           0
</event>
<event>
      5   9999  3.79277E-02  2.47718E+02 -1.00000E+00  1.08366E-01
       2    -1     0     0   502     0  0.000000000E+00  0.000000000E+00  1.161399859E+03  1.161399859E+03  0.000000000E+00  0.00000E+00  9.000E+00
      21    -1     0     0   501   502  0.000000000E+00  0.000000000E+00 -1.236321709E+02  1.236321709E+02  0.000000000E+00  0.00000E+00  9.000E+00
      25     1     1     2     0     0 -9.064577946E+01  2.122380793E+02  3.072169129E+02  4.040654541E+02  1.250000000E+02  0.00000E+00  9.000E+00
      25     1     1     2     0     0 -2.392626328E+01  7.392527468E+00  2.072499357E+01  1.291574268E+02  1.250000000E+02  0.00000E+00  9.000E+00
       2     1     1     2   501     0  1.145720427E+02 -2.196306068E+02  7.098257816E+02  7.518091491E+02  7.629394531E-06  0.00000E+00  9.000E+00
#rwgt            1           1   3.7972453728137394E-002           4      271154           0
</event>
<event>
      5   9999  3.79277E-02  5.39594E+01 -1.00000E+00  1.37213E-01
      21    -1     0     0   502   501  0.000000000E+00  0.000000000E+00  1.494722056E+02  1.494722056E+02  0.000000000E+00  0.00000E+00  9.000E+00
      21    -1     0     0   501   511  0.000000000E+00  0.000000000E+00 -3.123432030E+02  3.123432030E+02  0.000000000E+00  0.00000E+00  9.000E+00
      25     1     1     2     0     0  1.470770441E+02  4.600318349E+00 -4.435820618E+01  1.981046953E+02  1.250000000E+02  0.00000E+00  9.000E+00
      25     1     1     2     0     0 -1.085477286E+02  3.317679721E+01 -4.919148009E+01  1.758638990E+02  1.250000000E+02  0.00000E+00  9.000E+00
      21     1     1     2   502   511 -3.852931551E+01 -3.777711556E+01 -6.932131109E+01  8.784681432E+01  1.651812370E-06  0.00000E+00  9.000E+00
#rwgt            1           1   8.2123050742801948E-002           4      271187           0
</event>
<event>
      5   9999  3.79277E-02  9.15259E+01 -1.00000E+00  1.25583E-01
      21    -1     0     0   502   501  0.000000000E+00  0.000000000E+00  1.343870897E+03  1.343870897E+03  0.000000000E+00  0.00000E+00  9.000E+00
      -3    -1     0     0     0   502  0.000000000E+00  0.000000000E+00 -2.056645949E+02  2.056645949E+02  0.000000000E+00  0.00000E+00  9.000E+00
      25     1     1     2     0     0 -1.388808555E+02  4.512967480E+00  1.077370229E+03  1.093462331E+03  1.250000000E+02  0.00000E+00  9.000E+00
      25     1     1     2     0     0  8.715075285E+01 -8.001782142E+01  2.158416154E+02  2.760628704E+02  1.250000000E+02  0.00000E+00  9.000E+00
      -3     1     1     2     0   501  5.173010266E+01  7.550485394E+01 -1.550055424E+02  1.800102904E+02  5.046370146E-06  0.00000E+00  9.000E+00
#rwgt            1           1   3.7971335955312997E-002           4      271253           0
</event>
<event>
      5   9999  3.79277E-02  5.57889E+01 -1.00000E+00  1.36414E-01
      21    -1     0     0   502   501  0.000000000E+00  0.000000000E+00  2.518160146E+02  2.518160146E+02  0.000000000E+00  0.00000E+00  9.000E+00
      21    -1     0     0   511   502  0.000000000E+00  0.000000000E+00 -6.126647826E+02  6.126647826E+02  0.000000000E+00  0.00000E+00  9.000E+00
      25     1     1     2     0     0  7.439592589E+00 -3.009362245E+02 -1.473856769E+02  3.577226530E+02  1.250000000E+02  0.00000E+00  9.000E+00
      25     1     1     2     0     0 -1.211517967E+01  2.453435790E+02  1.063212861E+01  2.758229350E+02  1.250000000E+02  0.00000E+00  9.000E+00
      21     1     1     2   511   501  4.675587081E+00  5.559264545E+01 -2.240952196E+02  2.309352091E+02  0.000000000E+00  0.00000E+00  9.000E+00
#rwgt            1           1   3.8145644553220420E-002           4      271402           0
</event>
<event>
      5   9999  3.79277E-02  1.02726E+02 -1.00000E+00  1.23305E-01
      21    -1     0     0   502   501  0.000000000E+00  0.000000000E+00  4.667275004E+02  4.667275004E+02  0.000000000E+00  0.00000E+00  9.000E+00
      21    -1     0     0   512   502  0.000000000E+00  0.000000000E+00 -2.729193844E+02  2.729193844E+02  0.000000000E+00  0.00000E+00  9.000E+00
      25     1     1     2     0     0 -9.848687307E+01 -1.321615547E+01 -1.527268002E+02  2.209633599E+02  1.250000000E+02  0.00000E+00  9.000E+00
      25     1     1     2     0     0  1.167622908E+02 -8.787133000E+01  3.666380384E+02  4.140087613E+02  1.250000000E+02  0.00000E+00  9.000E+00
      21     1     1     2   512   501 -1.827541774E+01  1.010874855E+02 -2.010312222E+01  1.046747636E+02  1.327458468E-06  0.00000E+00  9.000E+00
#rwgt            1           1   4.5813485928628495E-002           4      271515           0
</event>
<event>
      5   9999  3.79277E-02  1.88623E+01 -1.00000E+00  1.68496E-01
      21    -1     0     0   502   501  0.000000000E+00  0.000000000E+00  7.541233414E+01  7.541233414E+01  0.000000000E+00  0.00000E+00  9.000E+00
      21    -1     0     0   511   502  0.000000000E+00  0.000000000E+00 -8.904116623E+02  8.904116623E+02  0.000000000E+00  0.00000E+00  9.000E+00
      25     1     1     2     0     0 -1.289031911E+02  3.804905010E+01 -4.203568317E+02  4.586814024E+02  1.250000000E+02  0.00000E+00  9.000E+00
      25     1     1     2     0     0  1.270064981E+02 -1.928239892E+01 -8.756631180E+01  1.994876448E+02  1.250000000E+02  0.00000E+00  9.000E+00
      21     1     1     2   511   501  1.896692979E+00 -1.876665118E+01 -3.070761847E+02  3.076549493E+02  0.000000000E+00  0.00000E+00  9.000E+00
#rwgt            1           1   4.2097932129639054E-002           4      271692           0
</event>
<event>
      5   9999  3.79277E-02  1.53206E+01 -1.00000E+00  1.76523E-01
      21    -1     0     0   512   501  0.000000000E+00  0.000000000E+00  1.775044520E+02  1.775044520E+02  0.000000000E+00  0.00000E+00  9.000E+00
      21    -1     0     0   501   502  0.000000000E+00  0.000000000E+00 -2.917512560E+02  2.917512560E+02  0.000000000E+00  0.00000E+00  9.000E+00
      25     1     1     2     0     0 -6.557043462E+01 -1.341670772E+02 -4.834774969E+01  2.006559030E+02  1.250000000E+02  0.00000E+00  9.000E+00
      25     1     1     2     0     0  6.900769490E+01  1.490971283E+02 -1.013531267E+02  2.299771118E+02  1.250000000E+02  0.00000E+00  9.000E+00
      21     1     1     2   512   502 -3.437260285E+00 -1.493005114E+01  3.545407240E+01  3.862269326E+01  4.768371582E-07  0.00000E+00  9.000E+00
#rwgt            1           1   4.8623656328509970E-002           4      271889           0
</event>
<event>
      5   9999  3.79277E-02  5.99335E+01 -1.00000E+00  1.34729E-01
      21    -1     0     0   502   501  0.000000000E+00  0.000000000E+00  4.342215644E+02  4.342215644E+02  0.000000000E+00  0.00000E+00  9.000E+00
       1    -1     0     0   501     0  0.000000000E+00  0.000000000E+00 -2.340762117E+02  2.340762117E+02  0.000000000E+00  0.00000E+00  9.000E+00
      25     1     1     2     0     0 -1.783306851E+02  7.781449710E+01 -6.048562435E+00  2.313406888E+02  1.250000000E+02  0.00000E+00  9.000E+00
      25     1     1     2     0     0  1.610868125E+02 -2.041525648E+01  2.767662388E+02  3.443694162E+02  1.250000000E+02  0.00000E+00  9.000E+00
       1     1     1     2   502     0  1.724387255E+01 -5.739924063E+01 -7.057232369E+01  9.258767108E+01  1.348699152E-06  0.00000E+00  9.000E+00
#rwgt            1           1   3.3573840153398121E-002           4      272249           0
</event>
<event>
      5   9999  3.79277E-02  3.18804E+01 -1.00000E+00  1.51228E-01
      21    -1     0     0   502   511  0.000000000E+00  0.000000000E+00  8.266521149E+02  8.266521149E+02  0.000000000E+00  0.00000E+00  9.000E+00
      21    -1     0     0   501   502  0.000000000E+00  0.000000000E+00 -1.423514463E+02  1.423514463E+02  0.000000000E+00  0.00000E+00  9.000E+00
      25     1     1     2     0     0  4.972895952E+01  9.739225620E+01 -5.278724977E+01  1.742690871E+02  1.250000000E+02  0.00000E+00  9.000E+00
      25     1     1     2     0     0 -2.977663302E+01 -1.222572434E+02  2.495732408E+02  3.061785165E+02  1.250000000E+02  0.00000E+00  9.000E+00
      21     1     1     2   501   511 -1.995232650E+01  2.486498722E+01  4.875146775E+02  4.885559576E+02  0.000000000E+00  0.00000E+00  9.000E+00
#rwgt            1           1   4.2998422743303358E-002           4      272313           0
</event>
<event>
      5   9999  3.79277E-02  2.30173E+01 -1.00000E+00  1.61487E-01
      21    -1     0     0   502   501  0.000000000E+00  0.000000000E+00  1.856043565E+02  1.856043565E+02  0.000000000E+00  0.00000E+00  9.000E+00
      21    -1     0     0   501   512  0.000000000E+00  0.000000000E+00 -2.758199940E+02  2.758199940E+02  0.000000000E+00  0.00000E+00  9.000E+00
      25     1     1     2     0     0 -4.831974061E+01  5.838404991E+01  1.090720909E+02  1.823875424E+02  1.250000000E+02  0.00000E+00  9.000E+00
      25     1     1     2     0     0  6.145397712E+01 -3.948200789E+01 -9.718374855E+01  1.743705859E+02  1.250000000E+02  0.00000E+00  9.000E+00
      21     1     1     2   502   512 -1.313423652E+01 -1.890204202E+01 -1.021039798E+02  1.046662222E+02  0.000000000E+00  0.00000E+00  9.000E+00
#rwgt            1           1   3.0948214679991742E-002           4      272505           0
</event>
<event>
      5   9999  3.79277E-02  3.81345E+01 -1.00000E+00  1.46138E-01
      21    -1     0     0   511   501  0.000000000E+00  0.000000000E+00  1.535187625E+02  1.535187625E+02  0.000000000E+00  0.00000E+00  9.000E+00
      21    -1     0     0   501   502  0.000000000E+00  0.000000000E+00 -3.479518962E+02  3.479518962E+02  0.000000000E+00  0.00000E+00  9.000E+00
      25     1     1     2     0     0  9.175408627E+01  1.170883558E+02  2.508839168E+01  1.959156013E+02  1.250000000E+02  0.00000E+00  9.000E+00
      25     1     1     2     0     0 -6.089487789E+01 -9.468415219E+01 -2.039230292E+02  2.643536962E+02  1.250000000E+02  0.00000E+00  9.000E+00
      21     1     1     2   511   502 -3.085920838E+01 -2.240420365E+01 -1.559849614E+01  4.120136120E+01  6.743495762E-07  0.00000E+00  9.000E+00
#rwgt            1           1   3.5637551407931026E-002           4      272715           0
</event>
<event>
      5   9999  3.79277E-02  6.77667E+01 -1.00000E+00  1.31938E-01
      21    -1     0     0   502   501  0.000000000E+00  0.000000000E+00  3.655204580E+02  3.655204580E+02  0.000000000E+00  0.00000E+00  9.000E+00
      21    -1     0     0   501   512  0.000000000E+00  0.000000000E+00 -2.346679606E+02  2.346679606E+02  0.000000000E+00  0.00000E+00  9.000E+00
      25     1     1     2     0     0  8.272123267E+01 -1.071357319E+02  1.999589261E+02  2.718996865E+02  1.250000000E+02  0.00000E+00  9.000E+00
      25     1     1     2     0     0 -6.151144700E+01  1.714977375E+02  1.359293503E+01  2.213705039E+02  1.250000000E+02  0.00000E+00  9.000E+00
      21     1     1     2   502   512 -2.120978566E+01 -6.436200568E+01 -8.269936369E+01  1.069182283E+02  9.536743164E-07  0.00000E+00  9.000E+00
#rwgt            1           1   4.0106010962240507E-002           4      272807           0
</event>
<event>
      5   9999  3.79277E-02  1.17435E+02 -1.00000E+00  1.20768E-01
      21    -1     0     0   511   501  0.000000000E+00  0.000000000E+00  4.454919896E+02  4.454919896E+02  0.000000000E+00  0.00000E+00  9.000E+00
      21    -1     0     0   501   502  0.000000000E+00  0.000000000E+00 -2.141678727E+02  2.141678727E+02  0.000000000E+00  0.00000E+00  9.000E+00
      25     1     1     2     0     0  4.187216575E+01  5.892900814E+01 -1.041438789E+02  1.780361024E+02  1.250000000E+02  0.00000E+00  9.000E+00
      25     1     1     2     0     0 -1.556843103E+02 -2.998529023E+01  1.163530652E+02  2.330230845E+02  1.250000000E+02  0.00000E+00  9.000E+00
      21     1     1     2   511   502  1.138121446E+02 -2.894371790E+01  2.191149305E+02  2.486006754E+02  0.000000000E+00  0.00000E+00  9.000E+00
#rwgt            1           1   4.8419348166596862E-002           4      273080           0
</event>
<event>
      5   9999 -3.79277E-02  6.03041E+01 -1.00000E+00  1.34586E-01
      21    -1     0     0   502   501  0.000000000E+00  0.000000000E+00  2.211986530E+02  2.211986530E+02  0.000000000E+00  0.00000E+00  9.000E+00
      21    -1     0     0   512   502  0.000000000E+00  0.000000000E+00 -5.068266339E+02  5.068266339E+02  0.000000000E+00  0.00000E+00  9.000E+00
      25     1     1     2     0     0  4.693540783E+01  1.704774895E+02  9.635474492E+01  2.370121174E+02  1.250000000E+02  0.00000E+00  9.000E+00
      25     1     1     2     0     0 -5.724727798E+01 -1.110615469E+02 -1.008567197E+02  2.034920046E+02  1.250000000E+02  0.00000E+00  9.000E+00
      21     1     1     2   512   501  1.031187015E+01 -5.941594262E+01 -2.811260061E+02  2.875211648E+02  0.000000000E+00  0.00000E+00  9.000E+00
#rwgt            1           1 -0.28748248949390021                4      273136           0
</event>
<event>
      5   9999  3.79277E-02  5.96336E+01 -1.00000E+00  1.34846E-01
      21    -1     0     0   502   511  0.000000000E+00  0.000000000E+00  9.724385934E+02  9.724385934E+02  0.000000000E+00  0.00000E+00  9.000E+00
      21    -1     0     0   501   502  0.000000000E+00  0.000000000E+00 -6.489778486E+01  6.489778486E+01  0.000000000E+00  0.00000E+00  9.000E+00
      25     1     1     2     0     0  1.079189002E+00 -1.550158176E+02  3.220222775E+02  3.786217315E+02  1.250000000E+02  0.00000E+00  9.000E+00
      25     1     1     2     0     0  4.208694441E+01  1.961600980E+02  4.089860806E+02  4.723819525E+02  1.250000000E+02  0.00000E+00  9.000E+00
      21     1     1     2   501   511 -4.316613341E+01 -4.114428045E+01  1.765324504E+02  1.863326942E+02  4.264961200E-06  0.00000E+00  9.000E+00
#rwgt            1           1   3.8182027470583767E-002           4      273271           0
</event>
<event>
      5   9999  3.79277E-02  1.39439E+02 -1.00000E+00  1.17664E-01
      21    -1     0     0   502   512  0.000000000E+00  0.000000000E+00  1.582985480E+03  1.582985480E+03  0.000000000E+00  0.00000E+00  9.000E+00
      21    -1     0     0   501   502  0.000000000E+00  0.000000000E+00 -7.312917466E+02  7.312917466E+02  0.000000000E+00  0.00000E+00  9.000E+00
      25     1     1     2     0     0 -6.112892857E+02 -7.118278727E+02  4.208262921E+02  1.035902157E+03  1.250000000E+02  0.00000E+00  9.000E+00
      25     1     1     2     0     0  4.858778597E+02  7.727809482E+02  1.092215104E+02  9.278049508E+02  1.250000000E+02  0.00000E+00  9.000E+00
      21     1     1     2   501   512  1.254114259E+02 -6.095307547E+01  3.216459307E+02  3.505701184E+02  3.814697266E-06  0.00000E+00  9.000E+00
#rwgt            1           1   4.7900575187435172E-003           4      273370           0
</event>
<event>
      5   9999  3.79277E-02  1.10443E+02 -1.00000E+00  1.21918E-01
      21    -1     0     0   502   501  0.000000000E+00  0.000000000E+00  4.416810525E+01  4.416810525E+01  0.000000000E+00  0.00000E+00  9.000E+00
      21    -1     0     0   501   511  0.000000000E+00  0.000000000E+00 -1.122782589E+03  1.122782589E+03  0.000000000E+00  0.00000E+00  9.000E+00
      25     1     1     2     0     0  2.909081181E+01  1.982327832E+01 -1.639172096E+02  2.091245784E+02  1.250000000E+02  0.00000E+00  9.000E+00
      25     1     1     2     0     0  2.114648051E+01 -1.181795091E+02 -5.329127933E+02  5.603879150E+02  1.250000000E+02  0.00000E+00  9.000E+00
      21     1     1     2   502   511 -5.023729233E+01  9.835623080E+01 -3.817844812E+02  3.974382012E+02  5.394796609E-06  0.00000E+00  9.000E+00
#rwgt            1           1   3.5832431141583243E-002           4      273501           0
</event>
<event>
      5   9999  3.79277E-02  8.32291E+01 -1.00000E+00  1.27523E-01
       1    -1     0     0   502     0  0.000000000E+00  0.000000000E+00  1.035764575E+03  1.035764575E+03  0.000000000E+00  0.00000E+00  9.000E+00
      21    -1     0     0   501   502  0.000000000E+00  0.000000000E+00 -7.080268542E+01  7.080268542E+01  0.000000000E+00  0.00000E+00  9.000E+00
      25     1     1     2     0     0  1.039412831E+02 -3.316890795E+01  1.165404766E+02  2.027576126E+02  1.250000000E+02  0.00000E+00  9.000E+00
      25     1     1     2     0     0 -1.836426235E+02  9.194420430E+00  5.312497475E+02  5.758996829E+02  1.250000000E+02  0.00000E+00  9.000E+00
       1     1     1     2   501     0  7.970134036E+01  2.397448752E+01  3.171716653E+02  3.279099648E+02  5.394796609E-06  0.00000E+00  9.000E+00
#rwgt            1           1   3.9949915409730356E-002           4      273616           0
</event>
<event>
      5   9999  3.79277E-02  4.97722E+01 -1.00000E+00  1.39189E-01
      21    -1     0     0   502   501  0.000000000E+00  0.000000000E+00  2.158600516E+02  2.158600516E+02  0.000000000E+00  0.00000E+00  9.000E+00
      21    -1     0     0   501   511  0.000000000E+00  0.000000000E+00 -6.112294452E+02  6.112294452E+02  0.000000000E+00  0.00000E+00  9.000E+00
      25     1     1     2     0     0 -2.303661917E+02  9.260115472E+01 -2.410794164E+01  2.790156787E+02  1.250000000E+02  0.00000E+00  9.000E+00
      25     1     1     2     0     0  2.410414695E+02 -1.412150301E+02 -1.902970998E+02  3.603895961E+02  1.250000000E+02  0.00000E+00  9.000E+00
      21     1     1     2   502   511 -1.067527782E+01  4.861387542E+01 -1.809643522E+02  1.876842220E+02  0.000000000E+00  0.00000E+00  9.000E+00
#rwgt            1           1  0.13029482951688789                4      273722           0
</event>
<event>
      5   9999  3.79277E-02  8.67146E+00 -1.00000E+00  2.03197E-01
      21    -1     0     0   502   501  0.000000000E+00  0.000000000E+00  2.505933034E+02  2.505933034E+02  0.000000000E+00  0.00000E+00  9.000E+00
      21    -1     0     0   512   502  0.000000000E+00  0.000000000E+00 -2.954586962E+02  2.954586962E+02  0.000000000E+00  0.00000E+00  9.000E+00
      25     1     1     2     0     0 -9.098643369E+01  1.884577293E+02 -1.204214974E+02  2.718845047E+02  1.250000000E+02  0.00000E+00  9.000E+00
      25     1     1     2     0     0  8.327530621E+01 -1.924241696E+02  8.758277411E+01  2.593406640E+02  1.250000000E+02  0.00000E+00  9.000E+00
      21     1     1     2   512   501  7.711127485E+00  3.966440258E+00 -1.202666953E+01  1.482683093E+01  1.685873940E-07  0.00000E+00  9.000E+00
#rwgt            1           1   4.5723175465262139E-002           4      273824           0
</event>
<event>
      5   9999  3.79277E-02  5.54261E+01 -1.00000E+00  1.36570E-01
      21    -1     0     0   502   501  0.000000000E+00  0.000000000E+00  9.006331398E+02  9.006331398E+02  0.000000000E+00  0.00000E+00  9.000E+00
      21    -1     0     0   511   502  0.000000000E+00  0.000000000E+00 -9.007377549E+01  9.007377549E+01  0.000000000E+00  0.00000E+00  9.000E+00
      25     1     1     2     0     0 -7.212570401E+01 -1.672132603E+02  1.996829889E+02  2.977594459E+02  1.250000000E+02  0.00000E+00  9.000E+00
      25     1     1     2     0     0  3.267676325E+01  2.061470245E+02  5.812241915E+02  6.300880314E+02  1.250000000E+02  0.00000E+00  9.000E+00
      21     1     1     2   511   501  3.944894076E+01 -3.893376417E+01  2.965218388E+01  6.285943786E+01  4.768371582E-07  0.00000E+00  9.000E+00
#rwgt            1           1  0.12710180620102102                4      274159           0
</event>
<event>
      5   9999  3.79277E-02  1.29195E+01 -1.00000E+00  1.83719E-01
      21    -1     0     0   502   512  0.000000000E+00  0.000000000E+00  1.561484677E+02  1.561484677E+02  0.000000000E+00  0.00000E+00  9.000E+00
      21    -1     0     0   501   502  0.000000000E+00  0.000000000E+00 -4.037874122E+02  4.037874122E+02  0.000000000E+00  0.00000E+00  9.000E+00
      25     1     1     2     0     0 -1.781255796E+02 -9.193523163E+01 -1.720251332E+02  2.922301411E+02  1.250000000E+02  0.00000E+00  9.000E+00
      25     1     1     2     0     0  1.663186856E+02  9.718033854E+01 -9.153378561E+01  2.472030689E+02  1.250000000E+02  0.00000E+00  9.000E+00
      21     1     1     2   501   512  1.180689396E+01 -5.245106909E+00  1.591997427E+01  2.050266988E+01  4.768371582E-07  0.00000E+00  9.000E+00
#rwgt            1           1   3.5283963186824946E-002           4      274252           0
</event>
<event>
      5   9999  3.79277E-02  2.64119E+01 -1.00000E+00  1.56984E-01
      21    -1     0     0   502   511  0.000000000E+00  0.000000000E+00  1.534904469E+02  1.534904469E+02  0.000000000E+00  0.00000E+00  9.000E+00
      21    -1     0     0   501   502  0.000000000E+00  0.000000000E+00 -3.098413726E+02  3.098413726E+02  0.000000000E+00  0.00000E+00  9.000E+00
      25     1     1     2     0     0  1.411163155E+02 -4.672136953E+01 -1.140008455E+02  2.252063358E+02  1.250000000E+02  0.00000E+00  9.000E+00
      25     1     1     2     0     0 -1.630298747E+02  3.197743899E+01 -3.820005772E+01  2.113895482E+02  1.250000000E+02  0.00000E+00  9.000E+00
      21     1     1     2   501   511  2.191355921E+01  1.474393054E+01 -4.150022488E+00  2.673593558E+01  3.526258339E-07  0.00000E+00  9.000E+00
#rwgt            1           1   3.9536829463314965E-002           4      274529           0
</event>
<event>
      5   9999  3.79277E-02  3.07011E+01 -1.00000E+00  1.52346E-01
      21    -1     0     0   502   501  0.000000000E+00  0.000000000E+00  5.062711083E+02  5.062711083E+02  0.000000000E+00  0.00000E+00  9.000E+00
      21    -1     0     0   512   502  0.000000000E+00  0.000000000E+00 -1.286626794E+02  1.286626794E+02  0.000000000E+00  0.00000E+00  9.000E+00
      25     1     1     2     0     0  8.081790596E+01 -1.047198055E+02  2.821763290E+02  3.357770871E+02  1.250000000E+02  0.00000E+00  9.000E+00
      25     1     1     2     0     0 -1.088539611E+02  1.172312983E+02  1.388645570E+02  2.459689560E+02  1.250000000E+02  0.00000E+00  9.000E+00
      21     1     1     2   512   501  2.803605519E+01 -1.251149280E+01 -4.343245711E+01  5.318774457E+01  4.768371582E-07  0.00000E+00  9.000E+00
#rwgt            1           1   3.4228198393088535E-002           4      274784           0
</event>
<event>
      5   9999  3.79277E-02  7.04397E+01 -1.00000E+00  1.31083E-01
      21    -1     0     0   502   501  0.000000000E+00  0.000000000E+00  3.249352432E+01  3.249352432E+01  0.000000000E+00  0.00000E+00  9.000E+00
      21    -1     0     0   501   511  0.000000000E+00  0.000000000E+00 -1.403440471E+03  1.403440471E+03  0.000000000E+00  0.00000E+00  9.000E+00
      25     1     1     2     0     0  7.378596322E+01 -2.281635413E+01 -4.259966472E+02  4.506252299E+02  1.250000000E+02  0.00000E+00  9.000E+00
      25     1     1     2     0     0 -1.438724746E+02  1.577125628E+01 -5.097132670E+02  5.444085194E+02  1.250000000E+02  0.00000E+00  9.000E+00
      21     1     1     2   502   511  7.008651137E+01  7.045097844E+00 -4.352370325E+02  4.409002460E+02  7.629394531E-06  0.00000E+00  9.000E+00
#rwgt            1           1   4.5715041672455978E-002           4      274967           0
</event>
<event>
      5   9999  3.79277E-02  2.10369E+02 -1.00000E+00  1.10855E-01
      21    -1     0     0   502   501  0.000000000E+00  0.000000000E+00  2.067966416E+02  2.067966416E+02  0.000000000E+00  0.00000E+00  9.000E+00
      21    -1     0     0   512   502  0.000000000E+00  0.000000000E+00 -1.374882132E+03  1.374882132E+03  0.000000000E+00  0.00000E+00  9.000E+00
      25     1     1     2     0     0 -5.977129141E+00  1.111252038E+02 -4.175424610E+02  4.498346849E+02  1.250000000E+02  0.00000E+00  9.000E+00
      25     1     1     2     0     0  1.763590242E+02  1.226485893E+01  1.121758062E+02  2.438469678E+02  1.250000000E+02  0.00000E+00  9.000E+00
      21     1     1     2   512   501 -1.703818951E+02 -1.233900627E+02 -8.627188359E+02  8.879971213E+02  1.078959322E-05  0.00000E+00  9.000E+00
#rwgt            1           1   3.7106603912647286E-002           4      275023           0
</event>
<event>
      5   9999  3.79277E-02  1.68819E+01 -1.00000E+00  1.72681E-01
      21    -1     0     0   502   511  0.000000000E+00  0.000000000E+00  1.396923394E+03  1.396923394E+03  0.000000000E+00  0.00000E+00  9.000E+00
      21    -1     0     0   501   502  0.000000000E+00  0.000000000E+00 -4.667304997E+01  4.667304997E+01  0.000000000E+00  0.00000E+00  9.000E+00
      25     1     1     2     0     0  1.422153229E+02 -5.998654179E+01  1.046670302E+03  1.065348443E+03  1.250000000E+02  0.00000E+00  9.000E+00
      25     1     1     2     0     0 -1.463187393E+02  4.361089417E+01  2.313463966E+02  3.040678194E+02  1.250000000E+02  0.00000E+00  9.000E+00
      21     1     1     2   501   511  4.103416367E+00  1.637564761E+01  7.223364590E+01  7.418018240E+01  1.348699152E-06  0.00000E+00  9.000E+00
#rwgt            1           1   2.5581707197788652E-002           4      275084           0
</event>
<event>
      5   9999  3.79277E-02  1.48644E+01 -1.00000E+00  1.77756E-01
      21    -1     0     0   502   501  0.000000000E+00  0.000000000E+00  2.729275085E+02  2.729275085E+02  0.000000000E+00  0.00000E+00  9.000E+00
      21    -1     0     0   501   512  0.000000000E+00  0.000000000E+00 -3.682206321E+02  3.682206321E+02  0.000000000E+00  0.00000E+00  9.000E+00
      25     1     1     2     0     0  6.308488507E+01 -2.450490369E+01  5.798089398E+01  1.535153969E+02  1.250000000E+02  0.00000E+00  9.000E+00
      25     1     1     2     0     0 -4.830677659E+01  2.290539190E+01  1.393196934E+02  1.946617030E+02  1.250000000E+02  0.00000E+00  9.000E+00
      21     1     1     2   502   512 -1.477810848E+01  1.599511791E+00 -2.925937111E+02  2.929710407E+02  3.814697266E-06  0.00000E+00  9.000E+00
#rwgt            1           1   3.6531024697561774E-002           4      275334           0
</event>
<event>
      5   9999  3.79277E-02  2.73896E+01 -1.00000E+00  1.55837E-01
      21    -1     0     0   511   501  0.000000000E+00  0.000000000E+00  2.489335158E+02  2.489335158E+02  0.000000000E+00  0.00000E+00  9.000E+00
      21    -1     0     0   501   502  0.000000000E+00  0.000000000E+00 -2.520937275E+02  2.520937275E+02  0.000000000E+00  0.00000E+00  9.000E+00
      25     1     1     2     0     0 -1.411968612E+02  1.633287498E+01 -1.010316434E+02  2.145593377E+02  1.250000000E+02  0.00000E+00  9.000E+00
      25     1     1     2     0     0  1.416589809E+02  1.105286330E+01  4.647957971E+00  1.893040839E+02  1.250000000E+02  0.00000E+00  9.000E+00
      21     1     1     2   511   502 -4.621196593E-01 -2.738573829E+01  9.322347366E+01  9.716382176E+01  1.907348633E-06  0.00000E+00  9.000E+00
#rwgt            1           1   3.5269406099308974E-002           4      275506           0
</event>
<event>
      5   9999  3.79277E-02  8.26619E+01 -1.00000E+00  1.27665E-01
      21    -1     0     0   502   512  0.000000000E+00  0.000000000E+00  4.066668933E+02  4.066668933E+02  0.000000000E+00  0.00000E+00  9.000E+00
      21    -1     0     0   501   502  0.000000000E+00  0.000000000E+00 -6.794541325E+02  6.794541325E+02  0.000000000E+00  0.00000E+00  9.000E+00
      25     1     1     2     0     0 -2.826989695E+01 -5.277842449E+01  3.730086454E+01  1.435308457E+02  1.250000000E+02  0.00000E+00  9.000E+00
      25     1     1     2     0     0  4.683376174E+01 -2.777203530E+01 -6.133205190E+02  6.282927233E+02  1.250000000E+02  0.00000E+00  9.000E+00
      21     1     1     2   501   512 -1.856386479E+01  8.055045979E+01  3.032324153E+02  3.142974568E+02  6.607249480E-06  0.00000E+00  9.000E+00
#rwgt            1           1   3.9523108780286670E-002           4      275605           0
</event>
<event>
      5   9999  3.79277E-02  2.50082E+01 -1.00000E+00  1.58740E-01
      21    -1     0     0   502   511  0.000000000E+00  0.000000000E+00  3.865802764E+02  3.865802764E+02  0.000000000E+00  0.00000E+00  9.000E+00
      21    -1     0     0   501   502  0.000000000E+00  0.000000000E+00 -1.095110769E+02  1.095110769E+02  0.000000000E+00  0.00000E+00  9.000E+00
      25     1     1     2     0     0  1.897167137E+01  1.483227586E+02  1.647173919E+02  2.551791219E+02  1.250000000E+02  0.00000E+00  9.000E+00
      25     1     1     2     0     0  2.633966154E+00 -1.357287900E+02  8.298005878E+01  2.023361865E+02  1.250000000E+02  0.00000E+00  9.000E+00
      21     1     1     2   501   511 -2.160563753E+01 -1.259396857E+01  2.937174876E+01  3.857604493E+01  3.371747881E-07  0.00000E+00  9.000E+00
#rwgt            1           1   3.4977124818493265E-002           4      275704           0
</event>
<event>
      5   9999  3.79277E-02  3.57558E+01 -1.00000E+00  1.47927E-01
      21    -1     0     0   512   501  0.000000000E+00  0.000000000E+00  1.020710272E+02  1.020710272E+02  0.000000000E+00  0.00000E+00  9.000E+00
      21    -1     0     0   501   502  0.000000000E+00  0.000000000E+00 -8.945541891E+02  8.945541891E+02  0.000000000E+00  0.00000E+00  9.000E+00
      25     1     1     2     0     0  8.076702009E+01  1.316291328E+02 -6.981750922E+02  7.258946201E+02  1.250000000E+02  0.00000E+00  9.000E+00
      25     1     1     2     0     0 -1.140743225E+02 -1.186253353E+02 -1.070859467E+02  2.327602225E+02  1.250000000E+02  0.00000E+00  9.000E+00
      21     1     1     2   512   502  3.330730239E+01 -1.300379758E+01  1.277787695E+01  3.797037375E+01  5.591411304E-07  0.00000E+00  9.000E+00
#rwgt            1           1   4.6314818454516050E-002           4      275882           0
</event>
<event>
      5   9999  3.79277E-02  2.09692E+01 -1.00000E+00  1.64691E-01
      21    -1     0     0   502   511  0.000000000E+00  0.000000000E+00  2.941426537E+02  2.941426537E+02  0.000000000E+00  0.00000E+00  9.000E+00
      21    -1     0     0   501   502  0.000000000E+00  0.000000000E+00 -3.986813515E+02  3.986813515E+02  0.000000000E+00  0.00000E+00  9.000E+00
      25     1     1     2     0     0 -1.256130928E+02 -1.700773626E+02 -2.504042817E+02  3.507595510E+02  1.250000000E+02  0.00000E+00  9.000E+00
      25     1     1     2     0     0  1.141771754E+02  1.876536310E+02  6.842411626E+01  2.618342458E+02  1.250000000E+02  0.00000E+00  9.000E+00
      21     1     1     2   501   511  1.143591740E+01 -1.757626836E+01  7.744146759E+01  8.023020826E+01  0.000000000E+00  0.00000E+00  9.000E+00
#rwgt            1           1   3.7688520431321808E-002           4      276084           0
</event>
<event>
      5   9999 -3.79277E-02  7.55539E+01 -1.00000E+00  1.29563E-01
      21    -1     0     0   502   501  0.000000000E+00  0.000000000E+00  7.094020456E+01  7.094020456E+01  0.000000000E+00  0.00000E+00  9.000E+00
      21    -1     0     0   501   512  0.000000000E+00  0.000000000E+00 -9.318839189E+02  9.318839189E+02  0.000000000E+00  0.00000E+00  9.000E+00
      25     1     1     2     0     0  1.053255144E+02 -1.000568189E+02 -3.932074506E+02  4.374264854E+02  1.250000000E+02  0.00000E+00  9.000E+00
      25     1     1     2     0     0 -1.256823204E+02  2.729696947E+01 -1.357743642E+02  2.249463229E+02  1.250000000E+02  0.00000E+00  9.000E+00
      21     1     1     2   502   512  2.035680597E+01  7.275984940E+01 -3.319618995E+02  3.404513151E+02  3.814697266E-06  0.00000E+00  9.000E+00
#rwgt            1           1  -6.8337899197276383E-002           4      276228           0
</event>
<event>
      5   9999  3.79277E-02  4.96727E+01 -1.00000E+00  1.39238E-01
      21    -1     0     0   502   501  0.000000000E+00  0.000000000E+00  2.254677633E+02  2.254677633E+02  0.000000000E+00  0.00000E+00  9.000E+00
      21    -1     0     0   501   511  0.000000000E+00  0.000000000E+00 -2.515475256E+02  2.515475256E+02  0.000000000E+00  0.00000E+00  9.000E+00
      25     1     1     2     0     0 -1.177383917E+02  3.319101945E+01  7.723382898E+01  1.911911007E+02  1.250000000E+02  0.00000E+00  9.000E+00
      25     1     1     2     0     0  1.576229773E+02 -6.279833562E+01 -5.798257911E+01  2.185763332E+02  1.250000000E+02  0.00000E+00  9.000E+00
      21     1     1     2   502   511 -3.988458566E+01  2.960731617E+01 -4.533101223E+01  6.724785509E+01  1.348699152E-06  0.00000E+00  9.000E+00
#rwgt            1           1   4.0488832607181086E-002           4      276390           0
</event>
<event>
      5   9999  3.79277E-02  1.62080E+02 -1.00000E+00  1.15076E-01
      21    -1     0     0   502   501  0.000000000E+00  0.000000000E+00  2.943458522E+03  2.943458522E+03  0.000000000E+00  0.00000E+00  9.000E+00
      21    -1     0     0   512   502  0.000000000E+00  0.000000000E+00 -4.651373631E+01  4.651373631E+01  0.000000000E+00  0.00000E+00  9.000E+00
      25     1     1     2     0     0  2.619006542E+02 -1.090140441E+02  1.861637073E+03  1.887271471E+03  1.250000000E+02  0.00000E+00  9.000E+00
      25     1     1     2     0     0 -1.020564739E+02  8.218335519E+01  7.764395694E+02  7.972785164E+02  1.250000000E+02  0.00000E+00  9.000E+00
      21     1     1     2   512   501 -1.598441803E+02  2.683068889E+01  2.588681434E+02  3.054222708E+02  0.000000000E+00  0.00000E+00  9.000E+00
#rwgt            1           1   7.6957999876544211E-002           4      276503           0
</event>
<event>
      5   9999  3.79277E-02  1.45067E+02 -1.00000E+00  1.16972E-01
      21    -1     0     0   502   501  0.000000000E+00  0.000000000E+00  9.280925741E+01  9.280925741E+01  0.000000000E+00  0.00000E+00  9.000E+00
      21    -1     0     0   501   511  0.000000000E+00  0.000000000E+00 -7.587651981E+02  7.587651981E+02  0.000000000E+00  0.00000E+00  9.000E+00
      25     1     1     2     0     0  1.192367041E+02  1.632868772E+02 -2.528999570E+02  3.470783544E+02  1.250000000E+02  0.00000E+00  9.000E+00
      25     1     1     2     0     0 -6.456570559E+01 -2.891563102E+01 -2.260107203E+02  2.677885168E+02  1.250000000E+02  0.00000E+00  9.000E+00
      21     1     1     2   502   511 -5.467099855E+01 -1.343712462E+02 -1.870452634E+02  2.367075843E+02  2.697398305E-06  0.00000E+00  9.000E+00
#rwgt            1           1   3.5373884029560876E-002           4      276583           0
</event>
<event>
      5   9999  3.79277E-02  3.34866E+02 -1.00000E+00  1.04063E-01
      21    -1     0     0   512   501  0.000000000E+00  0.000000000E+00  1.961754578E+02  1.961754578E+02  0.000000000E+00  0.00000E+00  9.000E+00
      21    -1     0     0   501   502  0.000000000E+00  0.000000000E+00 -1.141122915E+03  1.141122915E+03  0.000000000E+00  0.00000E+00  9.000E+00
      25     1     1     2     0     0 -3.586006482E+02 -1.277491856E+02 -6.303594895E+02  7.469219272E+02  1.250000000E+02  0.00000E+00  9.000E+00
      25     1     1     2     0     0  2.454858535E+01  1.044154934E+02 -1.037814686E+02  1.946813333E+02  1.250000000E+02  0.00000E+00  9.000E+00
      21     1     1     2   512   502  3.340520628E+02  2.333369214E+01 -2.108064990E+02  3.956951123E+02  5.394796609E-06  0.00000E+00  9.000E+00
#rwgt            2          11   8.8169400381378103E-004           4      276633           0
</event>
<event>
      5   9999  3.79277E-02  4.04235E+01 -1.00000E+00  1.44557E-01
      21    -1     0     0   502   511  0.000000000E+00  0.000000000E+00  7.519049823E+01  7.519049823E+01  0.000000000E+00  0.00000E+00  9.000E+00
      21    -1     0     0   501   502  0.000000000E+00  0.000000000E+00 -7.519484840E+02  7.519484840E+02  0.000000000E+00  0.00000E+00  9.000E+00
      25     1     1     2     0     0  1.393737647E+02 -7.129859606E+01 -3.518549770E+02  4.048894429E+02  1.250000000E+02  0.00000E+00  9.000E+00
      25     1     1     2     0     0 -1.001764663E+02  6.141777849E+01 -3.385889879E+02  3.795720888E+02  1.250000000E+02  0.00000E+00  9.000E+00
      21     1     1     2   501   511 -3.919729839E+01  9.880817577E+00  1.368597914E+01  4.267745051E+01  1.092571186E-06  0.00000E+00  9.000E+00
#rwgt            1           1   3.7393024613410944E-002           4      276668           0
</event>
<event>
      5   9999  3.79277E-02  5.85227E+01 -1.00000E+00  1.35285E-01
      -2    -1     0     0     0   501  0.000000000E+00  0.000000000E+00  5.165168145E+02  5.165168145E+02  0.000000000E+00  0.00000E+00  9.000E+00
      21    -1     0     0   501   502  0.000000000E+00  0.000000000E+00 -5.316661175E+02  5.316661175E+02  0.000000000E+00  0.00000E+00  9.000E+00
      25     1     1     2     0     0 -2.602741133E+02 -4.125598296E+01  5.288467665E+01  2.964227711E+02  1.250000000E+02  0.00000E+00  9.000E+00
      25     1     1     2     0     0  2.936553632E+02 -6.812731706E+00 -3.442096444E+02  4.694519836E+02  1.250000000E+02  0.00000E+00  9.000E+00
      -2     1     1     2     0   502 -3.338124983E+01  4.806871467E+01  2.761756648E+02  2.823081773E+02  3.814697266E-06  0.00000E+00  9.000E+00
#rwgt            1           1   2.8962742561609276E-002           4      276739           0
</event>
<event>
      5   9999  3.79277E-02  1.54752E+02 -1.00000E+00  1.15859E-01
      21    -1     0     0   502   501  0.000000000E+00  0.000000000E+00  1.415744951E+02  1.415744951E+02  0.000000000E+00  0.00000E+00  9.000E+00
      21    -1     0     0   511   502  0.000000000E+00  0.000000000E+00 -1.362518634E+03  1.362518634E+03  0.000000000E+00  0.00000E+00  9.000E+00
      25     1     1     2     0     0  7.251655019E+00 -6.577715290E+01 -5.293054177E+02  5.478763050E+02  1.250000000E+02  0.00000E+00  9.000E+00
      25     1     1     2     0     0  1.434483734E+02  1.009592416E+02  3.062392653E+01  2.175615526E+02  1.250000000E+02  0.00000E+00  9.000E+00
      21     1     1     2   511   501 -1.507000284E+02 -3.518208866E+01 -7.222626479E+02  7.386552718E+02  0.000000000E+00  0.00000E+00  9.000E+00
#rwgt            1           1   2.8729568719905705E-002           4      276850           0
</event>
<event>
      5   9999  3.79277E-02  9.69593E+01 -1.00000E+00  1.24434E-01
      -3    -1     0     0     0   501  0.000000000E+00  0.000000000E+00  5.954885722E+02  5.954885722E+02  0.000000000E+00  0.00000E+00  9.000E+00
      21    -1     0     0   501   502  0.000000000E+00  0.000000000E+00 -2.606976189E+02  2.606976189E+02  0.000000000E+00  0.00000E+00  9.000E+00
      25     1     1     2     0     0  3.698314067E+01 -1.334040873E+02 -9.067083727E+01  2.073899803E+02  1.250000000E+02  0.00000E+00  9.000E+00
      25     1     1     2     0     0  5.751557323E+01  1.551087208E+02 -5.144920056E+00  2.074083572E+02  1.250000000E+02  0.00000E+00  9.000E+00
      -3     1     1     2     0   502 -9.449871390E+01 -2.170463344E+01  4.306067107E+02  4.413878536E+02  7.629394531E-06  0.00000E+00  9.000E+00
#rwgt            1           1   3.6433587381364228E-002           4      276969           0
</event>
<event>
      5   9999  3.79277E-02  5.39028E+01 -1.00000E+00  1.37238E-01
      21    -1     0     0   502   501  0.000000000E+00  0.000000000E+00  1.447825981E+02  1.447825981E+02  0.000000000E+00  0.00000E+00  9.000E+00
      21    -1     0     0   511   502  0.000000000E+00  0.000000000E+00 -6.445907442E+02  6.445907442E+02  0.000000000E+00  0.00000E+00  9.000E+00
      25     1     1     2     0     0 -8.416718057E+01 -5.182338163E+01 -5.067827832E+02  5.312471802E+02  1.250000000E+02  0.00000E+00  9.000E+00
      25     1     1     2     0     0  3.543291950E+01  7.485568306E+01  7.795422549E+01  1.689991904E+02  1.250000000E+02  0.00000E+00  9.000E+00
      21     1     1     2   511   501  4.873426108E+01 -2.303230143E+01 -7.097958846E+01  8.912697173E+01  0.000000000E+00  0.00000E+00  9.000E+00
#rwgt            1           1   3.1993969123053335E-002           4      277019           0
</event>
<event>
      5   9999  3.79277E-02  2.40186E+01 -1.00000E+00  1.60065E-01
      21    -1     0     0   502   501  0.000000000E+00  0.000000000E+00  7.702580951E+02  7.702580951E+02  0.000000000E+00  0.00000E+00  9.000E+00
      21    -1     0     0   512   502  0.000000000E+00  0.000000000E+00 -9.902831351E+01  9.902831351E+01  0.000000000E+00  0.00000E+00  9.000E+00
      25     1     1     2     0     0 -6.514295451E+01  1.850258259E+02  2.284097288E+02  3.259971856E+02  1.250000000E+02  0.00000E+00  9.000E+00
      25     1     1     2     0     0  5.849351143E+01 -1.619460528E+02  4.645120754E+02  5.109251247E+02  1.250000000E+02  0.00000E+00  9.000E+00
      21     1     1     2   512   501  6.649443079E+00 -2.307977307E+01 -2.169202261E+01  3.236409837E+01  8.596304120E-07  0.00000E+00  9.000E+00
#rwgt            1           1   8.9885432837677554E-002           4      277120           0
</event>
<event>
      5   9999  3.79277E-02  7.22057E+00 -1.00000E+00  2.13667E-01
      21    -1     0     0   502   501  0.000000000E+00  0.000000000E+00  2.793382344E+02  2.793382344E+02  0.000000000E+00  0.00000E+00  9.000E+00
      21    -1     0     0   511   502  0.000000000E+00  0.000000000E+00 -2.467563859E+02  2.467563859E+02  0.000000000E+00  0.00000E+00  9.000E+00
      25     1     1     2     0     0 -1.765833339E+01 -5.863792350E+01  2.316169572E+02  2.702251611E+02  1.250000000E+02  0.00000E+00  9.000E+00
      25     1     1     2     0     0  1.551125680E+01  5.174396290E+01 -1.361155954E+02  1.925369889E+02  1.250000000E+02  0.00000E+00  9.000E+00
      21     1     1     2   511   501  2.147076597E+00  6.893960598E+00 -6.291951331E+01  6.333247023E+01  0.000000000E+00  0.00000E+00  9.000E+00
#rwgt            1           1   4.3760599380788266E-002           4      277335           0
</event>
<event>
      5   9999  3.79277E-02  9.05154E+01 -1.00000E+00  1.25806E-01
      21    -1     0     0   512   501  0.000000000E+00  0.000000000E+00  8.995366590E+01  8.995366590E+01  0.000000000E+00  0.00000E+00  9.000E+00
      21    -1     0     0   501   502  0.000000000E+00  0.000000000E+00 -3.750055576E+03  3.750055576E+03  0.000000000E+00  0.00000E+00  9.000E+00
      25     1     1     2     0     0 -2.961112577E+02 -3.296414345E+01 -2.483952546E+03  2.504877994E+03  1.250000000E+02  0.00000E+00  9.000E+00
      25     1     1     2     0     0  2.527429322E+02 -4.648534587E+01 -1.206330303E+03  1.239716773E+03  1.250000000E+02  0.00000E+00  9.000E+00
      21     1     1     2   512   502  4.336832558E+01  7.944948932E+01  3.018093904E+01  9.541447530E+01  1.966049969E-06  0.00000E+00  9.000E+00
#rwgt            1           1   1.7296317220728746E-002           4      277806           0
</event>
<event>
      5   9999  3.79277E-02  1.34115E+02 -1.00000E+00  1.18353E-01
      21    -1     0     0   511   501  0.000000000E+00  0.000000000E+00  2.017536338E+02  2.017536338E+02  0.000000000E+00  0.00000E+00  9.000E+00
      21    -1     0     0   501   502  0.000000000E+00  0.000000000E+00 -4.911617888E+02  4.911617888E+02  0.000000000E+00  0.00000E+00  9.000E+00
      25     1     1     2     0     0  1.170109718E+02  5.895403025E+00 -2.436373622E+02  2.978430586E+02  1.250000000E+02  0.00000E+00  9.000E+00
      25     1     1     2     0     0 -1.987181045E+02  1.004571115E+02 -6.936859124E+00  2.554479132E+02  1.250000000E+02  0.00000E+00  9.000E+00
      21     1     1     2   511   502  8.170713276E+01 -1.063525146E+02 -3.883393371E+01  1.396244510E+02  2.977847099E-06  0.00000E+00  9.000E+00
#rwgt            2          11   2.5941107181721595E-003           4      277928           0
</event>
<event>
      5   9999  3.79277E-02  4.64911E+01 -1.00000E+00  1.40903E-01
      21    -1     0     0   512   501  0.000000000E+00  0.000000000E+00  8.650201028E+01  8.650201028E+01  0.000000000E+00  0.00000E+00  9.000E+00
      21    -1     0     0   501   502  0.000000000E+00  0.000000000E+00 -8.480902149E+02  8.480902149E+02  0.000000000E+00  0.00000E+00  9.000E+00
      25     1     1     2     0     0 -1.551112804E+02  8.321708409E+01 -1.142540363E+02  2.442612888E+02  1.250000000E+02  0.00000E+00  9.000E+00
      25     1     1     2     0     0  1.136720623E+02 -6.214064492E+01 -5.880686644E+02  6.150061395E+02  1.250000000E+02  0.00000E+00  9.000E+00
      21     1     1     2   512   502  4.143921810E+01 -2.107643917E+01 -5.926550393E+01  7.532479698E+01  6.743495762E-07  0.00000E+00  9.000E+00
#rwgt            1           1   4.3309307358542895E-002           4      277963           0
</event>
<event>
      5   9999  3.79277E-02  5.63536E+01 -1.00000E+00  1.36175E-01
      21    -1     0     0   502   501  0.000000000E+00  0.000000000E+00  2.055218455E+02  2.055218455E+02  0.000000000E+00  0.00000E+00  9.000E+00
      21    -1     0     0   511   502  0.000000000E+00  0.000000000E+00 -5.513641146E+02  5.513641146E+02  0.000000000E+00  0.00000E+00  9.000E+00
      25     1     1     2     0     0 -1.303063971E-01 -5.247315450E+01  1.394490689E+02  1.944851967E+02  1.250000000E+02  0.00000E+00  9.000E+00
      25     1     1     2     0     0 -2.124444489E+01  1.046157148E+02 -1.504043742E+02  2.228054084E+02  1.250000000E+02  0.00000E+00  9.000E+00
      21     1     1     2   511   501  2.137475128E+01 -5.214256034E+01 -3.348869639E+02  3.395953550E+02  3.814697266E-06  0.00000E+00  9.000E+00
#rwgt            1           1   5.3934175997963810E-002           4      278331           0
</event>
<event>
      5   9999 -3.79277E-02  2.21632E+01 -1.00000E+00  1.62771E-01
      21    -1     0     0   512   501  0.000000000E+00  0.000000000E+00  1.177050148E+03  1.177050148E+03  0.000000000E+00  0.00000E+00  9.000E+00
      21    -1     0     0   501   502  0.000000000E+00  0.000000000E+00 -9.118314469E+01  9.118314469E+01  0.000000000E+00  0.00000E+00  9.000E+00
      25     1     1     2     0     0  9.624589302E+00  2.504274978E+02  2.647618100E+02  3.853963939E+02  1.250000000E+02  0.00000E+00  9.000E+00
      25     1     1     2     0     0 -8.782354164E+00 -2.282802610E+02  5.263179457E+02  5.872176660E+02  1.250000000E+02  0.00000E+00  9.000E+00
      21     1     1     2   512   502 -8.422351387E-01 -2.214723684E+01  2.947872480E+02  2.956192332E+02  5.394796609E-06  0.00000E+00  9.000E+00
#rwgt            1           1 -0.15577616842852979                4      278439           0
</event>
<event>
      5   9999  3.79277E-02  5.07033E+01 -1.00000E+00  1.38730E-01
      -3    -1     0     0     0   501  0.000000000E+00  0.000000000E+00  1.397907085E+02  1.397907085E+02  0.000000000E+00  0.00000E+00  9.000E+00
      21    -1     0     0   501   502  0.000000000E+00  0.000000000E+00 -4.144887795E+02  4.144887795E+02  0.000000000E+00  0.00000E+00  9.000E+00
      25     1     1     2     0     0 -4.103210652E+01  1.457319272E+01 -3.192198416E+02  3.455753449E+02  1.250000000E+02  0.00000E+00  9.000E+00
      25     1     1     2     0     0  6.645574359E+01 -5.844186246E+01  3.164368503E+01  1.563909842E+02  1.250000000E+02  0.00000E+00  9.000E+00
      -3     1     1     2     0   502 -2.542363707E+01  4.386866975E+01  1.287808557E+01  5.231315891E+01  0.000000000E+00  0.00000E+00  9.000E+00
#rwgt            1           1   2.9659200193364148E-002           4      278646           0
</event>
<event>
      5   9999  3.79277E-02  3.88581E+01 -1.00000E+00  1.45625E-01
      21    -1     0     0   502   501  0.000000000E+00  0.000000000E+00  2.319872215E+02  2.319872215E+02  0.000000000E+00  0.00000E+00  9.000E+00
      21    -1     0     0   501   511  0.000000000E+00  0.000000000E+00 -1.627202112E+02  1.627202112E+02  0.000000000E+00  0.00000E+00  9.000E+00
      25     1     1     2     0     0 -6.401155871E+01  4.400568256E+01  9.418726535E+01  1.747289922E+02  1.250000000E+02  0.00000E+00  9.000E+00
      25     1     1     2     0     0  7.474448013E+01 -8.135214572E+01  1.083329310E+01  1.671743675E+02  1.250000000E+02  0.00000E+00  9.000E+00
      21     1     1     2   502   511 -1.073292142E+01  3.734646316E+01 -3.575354824E+01  5.280407299E+01  9.536743164E-07  0.00000E+00  9.000E+00
#rwgt            1           1   2.3559986232838035E-002           4      278812           0
</event>
<event>
      5   9999  3.79277E-02  2.38624E+02 -1.00000E+00  1.08926E-01
       2    -1     0     0   502     0  0.000000000E+00  0.000000000E+00  1.109649932E+03  1.109649932E+03  0.000000000E+00  0.00000E+00  9.000E+00
      21    -1     0     0   501   502  0.000000000E+00  0.000000000E+00 -3.657989579E+02  3.657989579E+02  0.000000000E+00  0.00000E+00  9.000E+00
      25     1     1     2     0     0 -1.273234589E+02 -9.781196782E+01 -2.336699696E+02  3.098468960E+02  1.250000000E+02  0.00000E+00  9.000E+00
      25     1     1     2     0     0 -1.041137399E+02  1.559341581E+02  8.355499909E+01  2.403363692E+02  1.250000000E+02  0.00000E+00  9.000E+00
       2     1     1     2   501     0  2.314371988E+02 -5.812219028E+01  8.939659444E+02  9.252656244E+02  0.000000000E+00  0.00000E+00  9.000E+00
#rwgt            1           1   4.5240876118820481E-002           4      278964           0
</event>
<event>
      5   9999  3.79277E-02  2.23140E+01 -1.00000E+00  1.62539E-01
      21    -1     0     0   502   511  0.000000000E+00  0.000000000E+00  1.620172654E+02  1.620172654E+02  0.000000000E+00  0.00000E+00  9.000E+00
      21    -1     0     0   501   502  0.000000000E+00  0.000000000E+00 -3.707826448E+02  3.707826448E+02  0.000000000E+00  0.00000E+00  9.000E+00
      25     1     1     2     0     0 -4.121882068E+01 -1.699982877E+02 -1.664847783E+02  2.719201912E+02  1.250000000E+02  0.00000E+00  9.000E+00
      25     1     1     2     0     0  4.407675666E+01  1.921284617E+02 -4.693871967E+01  2.380847531E+02  1.250000000E+02  0.00000E+00  9.000E+00
      21     1     1     2   501   511 -2.857935983E+00 -2.213017399E+01  4.658118519E+00  2.279496583E+01  4.129530925E-07  0.00000E+00  9.000E+00
#rwgt            1           1   4.0643088513250956E-002           4      279031           0
</event>
<event>
      5   9999  3.79277E-02  2.84668E+01 -1.00000E+00  1.54639E-01
      21    -1     0     0   502   501  0.000000000E+00  0.000000000E+00  1.139695881E+02  1.139695881E+02  0.000000000E+00  0.00000E+00  9.000E+00
      21    -1     0     0   512   502  0.000000000E+00  0.000000000E+00 -4.950912286E+02  4.950912286E+02  0.000000000E+00  0.00000E+00  9.000E+00
      25     1     1     2     0     0 -9.863167774E+01 -5.109245177E+01 -4.929867933E+01  1.743387687E+02  1.250000000E+02  0.00000E+00  9.000E+00
      25     1     1     2     0     0  1.154126996E+02  7.408718052E+01 -1.199762192E+02  2.209712532E+02  1.250000000E+02  0.00000E+00  9.000E+00
      21     1     1     2   512   501 -1.678102190E+01 -2.299472875E+01 -2.118467419E+02  2.137507948E+02  0.000000000E+00  0.00000E+00  9.000E+00
#rwgt            1           1   3.0253112131744229E-002           4      279190           0
</event>
<event>
      5   9999  3.79277E-02  8.16672E+01 -1.00000E+00  1.27917E-01
      21    -1     0     0   502   511  0.000000000E+00  0.000000000E+00  7.467869703E+02  7.467869703E+02  0.000000000E+00  0.00000E+00  9.000E+00
      21    -1     0     0   501   502  0.000000000E+00  0.000000000E+00 -1.755736867E+02  1.755736867E+02  0.000000000E+00  0.00000E+00  9.000E+00
      25     1     1     2     0     0 -1.257345850E+02  7.560258159E+01  4.907196686E+02  5.272150693E+02  1.250000000E+02  0.00000E+00  9.000E+00
      25     1     1     2     0     0  4.483316862E+01 -6.444527831E+01 -1.124946425E+02  1.855889315E+02  1.250000000E+02  0.00000E+00  9.000E+00
      21     1     1     2   501   511  8.090141634E+01 -1.115730328E+01  1.929882576E+02  2.095566562E+02  2.697398305E-06  0.00000E+00  9.000E+00
#rwgt            1           1   3.8634431870814306E-002           4      279323           0
</event>
<event>
      5   9999  3.79277E-02  5.24332E+01 -1.00000E+00  1.37908E-01
       3    -1     0     0   502     0  0.000000000E+00  0.000000000E+00  7.492303313E+02  7.492303313E+02  0.000000000E+00  0.00000E+00  9.000E+00
      21    -1     0     0   501   502  0.000000000E+00  0.000000000E+00 -1.210078183E+02  1.210078183E+02  0.000000000E+00  0.00000E+00  9.000E+00
      25     1     1     2     0     0  7.376039103E+00 -2.373675565E+01 -6.729840377E+01  1.441246498E+02  1.250000000E+02  0.00000E+00  9.000E+00
      25     1     1     2     0     0 -5.511431655E+01  2.050497023E+00  3.348435713E+02  3.616448668E+02  1.250000000E+02  0.00000E+00  9.000E+00
       3     1     1     2   501     0  4.773827745E+01  2.168625862E+01  3.606773455E+02  3.644686330E+02  5.394796609E-06  0.00000E+00  9.000E+00
#rwgt            1           1   3.0428326739783504E-002           4      279388           0
</event>
<event>
      5   9999  3.79277E-02  1.76393E+02 -1.00000E+00  1.13671E-01
      21    -1     0     0   502   511  0.000000000E+00  0.000000000E+00  3.487882551E+02  3.487882551E+02  0.000000000E+00  0.00000E+00  9.000E+00
      21    -1     0     0   501   502  0.000000000E+00  0.000000000E+00 -4.876146536E+02  4.876146536E+02  0.000000000E+00  0.00000E+00  9.000E+00
      25     1     1     2     0     0  2.567276675E+02 -4.577669236E+01 -2.221377595E+02  3.646570787E+02  1.250000000E+02  0.00000E+00  9.000E+00
      25     1     1     2     0     0 -1.515714923E+02 -9.584529994E+01 -7.860926330E+01  2.323029382E+02  1.250000000E+02  0.00000E+00  9.000E+00
      21     1     1     2   501   511 -1.051561752E+02  1.416219923E+02  1.619206242E+02  2.394428918E+02  2.697398305E-06  0.00000E+00  9.000E+00
#rwgt            1           1   3.5644719473732753E-002           4      279497           0
</event>
<event>
      5   9999  3.79277E-02  5.56109E+01 -1.00000E+00  1.36490E-01
      21    -1     0     0   502   512  0.000000000E+00  0.000000000E+00  4.426883698E+02  4.426883698E+02  0.000000000E+00  0.00000E+00  9.000E+00
      21    -1     0     0   501   502  0.000000000E+00  0.000000000E+00 -3.078754988E+02  3.078754988E+02  0.000000000E+00  0.00000E+00  9.000E+00
      25     1     1     2     0     0  6.387020736E+01  5.778643843E+01  8.229987724E+00  1.520243683E+02  1.250000000E+02  0.00000E+00  9.000E+00
      25     1     1     2     0     0 -9.693421512E+01 -1.025005098E+02 -1.955735460E+02  2.716184980E+02  1.250000000E+02  0.00000E+00  9.000E+00
      21     1     1     2   501   512  3.306400775E+01  4.471407140E+01  3.221564293E+02  3.269210023E+02  6.607249480E-06  0.00000E+00  9.000E+00
#rwgt            1           1   3.6593010034746111E-002           4      279606           0
</event>
<event>
      5   9999  3.79277E-02  4.98042E+01 -1.00000E+00  1.39173E-01
      21    -1     0     0   502   501  0.000000000E+00  0.000000000E+00  3.134943556E+02  3.134943556E+02  0.000000000E+00  0.00000E+00  9.000E+00
      21    -1     0     0   511   502  0.000000000E+00  0.000000000E+00 -2.866169264E+02  2.866169264E+02  0.000000000E+00  0.00000E+00  9.000E+00
      25     1     1     2     0     0 -4.542115515E+01 -2.512007905E+00 -2.226031795E+02  2.593194305E+02  1.250000000E+02  0.00000E+00  9.000E+00
      25     1     1     2     0     0  6.699149625E-01  2.437026268E+01  2.603367659E+02  2.898182019E+02  1.250000000E+02  0.00000E+00  9.000E+00
      21     1     1     2   511   501  4.475124019E+01 -2.185825477E+01 -1.085615718E+01  5.097364956E+01  9.684608465E-07  0.00000E+00  9.000E+00
#rwgt            1           1   5.0624830984069315E-002           4      279745           0
</event>
<event>
      5   9999  3.79277E-02  8.37916E+01 -1.00000E+00  1.27384E-01
      21    -1     0     0   502   512  0.000000000E+00  0.000000000E+00  3.205645602E+02  3.205645602E+02  0.000000000E+00  0.00000E+00  9.000E+00
      21    -1     0     0   501   502  0.000000000E+00  0.000000000E+00 -3.250633991E+02  3.250633991E+02  0.000000000E+00  0.00000E+00  9.000E+00
      25     1     1     2     0     0  1.264916651E+02 -6.208631086E+01 -6.565590395E+01  1.994756854E+02  1.250000000E+02  0.00000E+00  9.000E+00
      25     1     1     2     0     0 -1.261188852E+02 -2.170443997E+01 -1.407013046E+02  2.275937456E+02  1.250000000E+02  0.00000E+00  9.000E+00
      21     1     1     2   501   512 -3.727798287E-01  8.379075083E+01  2.018583696E+02  2.185585283E+02  0.000000000E+00  0.00000E+00  9.000E+00
#rwgt            1           1   4.1307366998005773E-002           4      280169           0
</event>
<event>
      5   9999  3.79277E-02  3.21421E+01 -1.00000E+00  1.50988E-01
      21    -1     0     0   511   501  0.000000000E+00  0.000000000E+00  1.542908258E+02  1.542908258E+02  0.000000000E+00  0.00000E+00  9.000E+00
      21    -1     0     0   501   502  0.000000000E+00  0.000000000E+00 -1.216090724E+03  1.216090724E+03  0.000000000E+00  0.00000E+00  9.000E+00
      25     1     1     2     0     0  1.125092289E+02  7.922158189E+01 -6.527233503E+02  6.786804533E+02  1.250000000E+02  0.00000E+00  9.000E+00
      25     1     1     2     0     0 -1.433841480E+02 -7.028560186E+01 -5.295301241E+02  5.670328316E+02  1.250000000E+02  0.00000E+00  9.000E+00
      21     1     1     2   511   502  3.087491902E+01 -8.935980033E+00  1.204535760E+02  1.246682652E+02  4.473129043E-06  0.00000E+00  9.000E+00
#rwgt            1           1   3.2269388231066294E-002           4      280292           0
</event>
<event>
      5   9999  3.79277E-02  1.74750E+01 -1.00000E+00  1.71355E-01
      21    -1     0     0   512   501  0.000000000E+00  0.000000000E+00  7.313879922E+02  7.313879922E+02  0.000000000E+00  0.00000E+00  9.000E+00
      21    -1     0     0   501   502  0.000000000E+00  0.000000000E+00 -1.042716792E+02  1.042716792E+02  0.000000000E+00  0.00000E+00  9.000E+00
      25     1     1     2     0     0 -1.078231108E+02 -1.569782471E+02  9.471418730E+01  2.467058382E+02  1.250000000E+02  0.00000E+00  9.000E+00
      25     1     1     2     0     0  1.232354044E+02  1.487420398E+02  4.581975357E+02  5.127193589E+02  1.250000000E+02  0.00000E+00  9.000E+00
      21     1     1     2   512   502 -1.541229360E+01  8.236207390E+00  7.420458996E+01  7.623447434E+01  9.536743164E-07  0.00000E+00  9.000E+00
#rwgt            1           1   3.4087310732059929E-002           4      280489           0
</event>
<event>
      5   9999  3.79277E-02  2.16894E+01 -1.00000E+00  1.63515E-01
      21    -1     0     0   502   511  0.000000000E+00  0.000000000E+00  3.806850445E+02  3.806850445E+02  0.000000000E+00  0.00000E+00  9.000E+00
      21    -1     0     0   501   502  0.000000000E+00  0.000000000E+00 -1.526879904E+02  1.526879904E+02  0.000000000E+00  0.00000E+00  9.000E+00
      25     1     1     2     0     0 -8.526702093E+01  1.343972509E+02  1.394932385E+02  2.457975783E+02  1.250000000E+02  0.00000E+00  9.000E+00
      25     1     1     2     0     0  8.872426683E+01 -1.558093880E+02  2.443301838E+01  2.199330200E+02  1.250000000E+02  0.00000E+00  9.000E+00
      21     1     1     2   501   511 -3.457245906E+00  2.141213705E+01  6.407079728E+01  6.764243658E+01  1.348699152E-06  0.00000E+00  9.000E+00
#rwgt            1           1   4.0053617328229173E-002           4      280758           0
</event>
<event>
      5   9999  3.79277E-02  1.07508E+02 -1.00000E+00  1.22430E-01
      21    -1     0     0   502   501  0.000000000E+00  0.000000000E+00  2.595660315E+02  2.595660315E+02  0.000000000E+00  0.00000E+00  9.000E+00
      21    -1     0     0   501   512  0.000000000E+00  0.000000000E+00 -9.245533931E+02  9.245533931E+02  0.000000000E+00  0.00000E+00  9.000E+00
      25     1     1     2     0     0 -1.258921694E+02  5.792414573E+01  1.460325770E+02  2.369695308E+02  1.250000000E+02  0.00000E+00  9.000E+00
      25     1     1     2     0     0  2.068375256E+02  1.282755367E+01 -1.665774967E+02  2.938015836E+02  1.250000000E+02  0.00000E+00  9.000E+00
      21     1     1     2   502   512 -8.094535614E+01 -7.075169940E+01 -6.444424418E+02  6.533483102E+02  7.629394531E-06  0.00000E+00  9.000E+00
#rwgt            1           1   4.7771407779530643E-002           4      281016           0
</event>
<event>
      5   9999  3.79277E-02  1.35060E+01 -1.00000E+00  1.81787E-01
      21    -1     0     0   502   501  0.000000000E+00  0.000000000E+00  1.270490327E+02  1.270490327E+02  0.000000000E+00  0.00000E+00  9.000E+00
      21    -1     0     0   501   511  0.000000000E+00  0.000000000E+00 -7.415444555E+02  7.415444555E+02  0.000000000E+00  0.00000E+00  9.000E+00
      25     1     1     2     0     0  3.453768348E+01 -2.188939629E+02 -5.210402658E+02  5.798408205E+02  1.250000000E+02  0.00000E+00  9.000E+00
      25     1     1     2     0     0 -4.705936634E+01  2.138324159E+02 -6.994853663E+01  2.616422822E+02  1.250000000E+02  0.00000E+00  9.000E+00
      21     1     1     2   502   511  1.252168285E+01  5.061546983E+00 -2.350662038E+01  2.711038549E+01  4.768371582E-07  0.00000E+00  9.000E+00
#rwgt            1           1   4.5333833837649787E-002           4      281359           0
</event>
<event>
      5   9999  3.79277E-02  1.54182E+01 -1.00000E+00  1.76266E-01
      21    -1     0     0   502   501  0.000000000E+00  0.000000000E+00  4.967242753E+02  4.967242753E+02  0.000000000E+00  0.00000E+00  9.000E+00
      21    -1     0     0   501   512  0.000000000E+00  0.000000000E+00 -1.524204755E+02  1.524204755E+02  0.000000000E+00  0.00000E+00  9.000E+00
      25     1     1     2     0     0 -6.648916217E+01 -2.063963217E+02  8.761826912E+01  2.651833542E+02  1.250000000E+02  0.00000E+00  9.000E+00
      25     1     1     2     0     0  7.416408394E+01  2.197685499E+02  2.576407781E+02  3.685136326E+02  1.250000000E+02  0.00000E+00  9.000E+00
      21     1     1     2   502   512 -7.674921770E+00 -1.337222826E+01 -9.552474620E-01  1.544776394E+01  9.771344847E-08  0.00000E+00  9.000E+00
#rwgt            1           1   3.1611409964071011E-002           4      281583           0
</event>
<event>
      5   9999 -3.79277E-02  1.21645E+02 -1.00000E+00  1.20118E-01
      21    -1     0     0   502   501  0.000000000E+00  0.000000000E+00  2.143984683E+02  2.143984683E+02  0.000000000E+00  0.00000E+00  9.000E+00
      21    -1     0     0   501   511  0.000000000E+00  0.000000000E+00 -8.803666536E+02  8.803666536E+02  0.000000000E+00  0.00000E+00  9.000E+00
      25     1     1     2     0     0  1.205309820E+01 -7.942357110E+01 -2.674064690E+02  3.059160023E+02  1.250000000E+02  0.00000E+00  9.000E+00
      25     1     1     2     0     0 -1.330979469E+02  9.148956134E+01  1.328857140E+02  2.436575800E+02  1.250000000E+02  0.00000E+00  9.000E+00
      21     1     1     2   502   511  1.210448487E+02 -1.206599024E+01 -5.314474304E+02  5.451915396E+02  7.629394531E-06  0.00000E+00  9.000E+00
#rwgt            1           1  -7.3888980140174226E-002           4      281753           0
</event>
<event>
      5   9999  3.79277E-02  4.29302E+01 -1.00000E+00  1.42961E-01
      21    -1     0     0   502   512  0.000000000E+00  0.000000000E+00  1.399533049E+03  1.399533049E+03  0.000000000E+00  0.00000E+00  9.000E+00
      21    -1     0     0   501   502  0.000000000E+00  0.000000000E+00 -2.232442114E+02  2.232442114E+02  0.000000000E+00  0.00000E+00  9.000E+00
      25     1     1     2     0     0  4.584169405E+02  3.450224111E+01  5.013039990E+02  6.915686483E+02  1.250000000E+02  0.00000E+00  9.000E+00
      25     1     1     2     0     0 -4.913180576E+02 -6.207976936E+01  3.890086792E+02  6.420281022E+02  1.250000000E+02  0.00000E+00  9.000E+00
      21     1     1     2   501   512  3.290111711E+01  2.757752825E+01  2.859761599E+02  2.891805104E+02  0.000000000E+00  0.00000E+00  9.000E+00
#rwgt            1           1  0.40844703846812153                4      281808           0
</event>
<event>
      5   9999  3.79277E-02  5.36664E+01 -1.00000E+00  1.37344E-01
      21    -1     0     0   502   501  0.000000000E+00  0.000000000E+00  9.455670154E+01  9.455670154E+01  0.000000000E+00  0.00000E+00  9.000E+00
      21    -1     0     0   501   511  0.000000000E+00  0.000000000E+00 -1.364984950E+03  1.364984950E+03  0.000000000E+00  0.00000E+00  9.000E+00
      25     1     1     2     0     0  1.373450053E+02 -2.743302653E+01 -3.130140924E+01  1.903181537E+02  1.250000000E+02  0.00000E+00  9.000E+00
      25     1     1     2     0     0 -1.365226893E+02 -2.622710318E+01 -6.148559503E+02  6.426500955E+02  1.250000000E+02  0.00000E+00  9.000E+00
      21     1     1     2   502   511 -8.223160363E-01  5.366012971E+01 -6.242708894E+02  6.265734028E+02  0.000000000E+00  0.00000E+00  9.000E+00
#rwgt            1           1   4.4618997199394592E-002           4      281952           0
</event>
<event>
      5   9999  3.79277E-02  1.01148E+01 -1.00000E+00  1.95186E-01
      21    -1     0     0   512   501  0.000000000E+00  0.000000000E+00  8.916465126E+01  8.916465126E+01  0.000000000E+00  0.00000E+00  9.000E+00
      21    -1     0     0   501   502  0.000000000E+00  0.000000000E+00 -5.677654847E+02  5.677654847E+02  0.000000000E+00  0.00000E+00  9.000E+00
      25     1     1     2     0     0 -4.460920003E+01  1.304934852E+02 -6.069620175E+01  1.957742560E+02  1.250000000E+02  0.00000E+00  9.000E+00
      25     1     1     2     0     0  3.818136702E+01 -1.226837780E+02 -4.123196756E+02  4.496016471E+02  1.250000000E+02  0.00000E+00  9.000E+00
      21     1     1     2   512   502  6.427833013E+00 -7.809707157E+00 -5.584956105E+00  1.155423290E+01  2.308477966E-07  0.00000E+00  9.000E+00
#rwgt            1           1   2.9490025352817265E-002           4      282137           0
</event>
<event>
      5   9999  3.79277E-02  8.15243E+01 -1.00000E+00  1.27954E-01
      21    -1     0     0   502   501  0.000000000E+00  0.000000000E+00  1.373025375E+02  1.373025375E+02  0.000000000E+00  0.00000E+00  9.000E+00
      21    -1     0     0   501   511  0.000000000E+00  0.000000000E+00 -9.349692781E+02  9.349692781E+02  0.000000000E+00  0.00000E+00  9.000E+00
      25     1     1     2     0     0 -7.420541712E+01 -2.929504755E+01 -4.818547944E+02  5.041564109E+02  1.250000000E+02  0.00000E+00  9.000E+00
      25     1     1     2     0     0  8.198052454E+01  1.104477265E+02  5.069479401E+01  1.926511584E+02  1.250000000E+02  0.00000E+00  9.000E+00
      21     1     1     2   502   511 -7.775107416E+00 -8.115267897E+01 -3.665067402E+02  3.754642463E+02  7.629394531E-06  0.00000E+00  9.000E+00
#rwgt            1           1   3.3731524099320418E-003           4      282299           0
</event>
<event>
      5   9999 -3.79277E-02  2.24168E+01 -1.00000E+00  1.62382E-01
      21    -1     0     0   502   512  0.000000000E+00  0.000000000E+00  2.336530003E+02  2.336530003E+02  0.000000000E+00  0.00000E+00  9.000E+00
      21    -1     0     0   501   502  0.000000000E+00  0.000000000E+00 -2.744700083E+02  2.744700083E+02  0.000000000E+00  0.00000E+00  9.000E+00
      25     1     1     2     0     0 -1.464663946E+02  6.668929311E+01  6.987371853E+01  2.154233114E+02  1.250000000E+02  0.00000E+00  9.000E+00
      25     1     1     2     0     0  1.646794669E+02 -7.975828854E+01 -1.351198964E+02  2.595440191E+02  1.250000000E+02  0.00000E+00  9.000E+00
      21     1     1     2   501   512 -1.821307234E+01  1.306899543E+01  2.442916998E+01  3.315567812E+01  3.371747881E-07  0.00000E+00  9.000E+00
#rwgt            1           1 -0.10318976875704963                4      282475           0
</event>
<event>
      5   9999  3.79277E-02  3.50900E+01 -1.00000E+00  1.48458E-01
      21    -1     0     0   502   511  0.000000000E+00  0.000000000E+00  9.071274220E+01  9.071274220E+01  0.000000000E+00  0.00000E+00  9.000E+00
      21    -1     0     0   501   502  0.000000000E+00  0.000000000E+00 -8.261015724E+02  8.261015724E+02  0.000000000E+00  0.00000E+00  9.000E+00
      25     1     1     2     0     0 -5.788466931E+01 -1.659122466E+02 -2.220327010E+02  3.095174128E+02  1.250000000E+02  0.00000E+00  9.000E+00
      25     1     1     2     0     0  9.271020557E+01  1.702122712E+02 -5.224117089E+02  5.710572590E+02  1.250000000E+02  0.00000E+00  9.000E+00
      21     1     1     2   501   511 -3.482553626E+01 -4.300024588E+00  9.055579644E+00  3.623964279E+01  6.194296387E-07  0.00000E+00  9.000E+00
#rwgt            1           1  0.13631805588144449                4      282598           0
</event>
<event>
      5   9999  3.79277E-02  1.56014E+01 -1.00000E+00  1.75790E-01
       2    -1     0     0   502     0  0.000000000E+00  0.000000000E+00  1.212161635E+02  1.212161635E+02  0.000000000E+00  0.00000E+00  9.000E+00
      21    -1     0     0   501   502  0.000000000E+00  0.000000000E+00 -8.100086450E+02  8.100086450E+02  0.000000000E+00  0.00000E+00  9.000E+00
      25     1     1     2     0     0 -6.197129479E-01 -1.215802971E+02 -6.322358600E+02  6.558424623E+02  1.250000000E+02  0.00000E+00  9.000E+00
      25     1     1     2     0     0  1.382184722E+01  1.132671956E+02 -1.216581239E+02  2.084375210E+02  1.250000000E+02  0.00000E+00  9.000E+00
       2     1     1     2   501     0 -1.320213428E+01  8.313101520E+00  6.510150240E+01  6.694482520E+01  1.907348633E-06  0.00000E+00  9.000E+00
#rwgt            1           1   3.4960537567958742E-002           4      282798           0
</event>
<event>
      5   9999  3.79277E-02  1.70470E+02 -1.00000E+00  1.14233E-01
      21    -1     0     0   502   501  0.000000000E+00  0.000000000E+00  2.525061773E+02  2.525061773E+02  0.000000000E+00  0.00000E+00  9.000E+00
      21    -1     0     0   501   511  0.000000000E+00  0.000000000E+00 -8.999921281E+02  8.999921281E+02  0.000000000E+00  0.00000E+00  9.000E+00
      25     1     1     2     0     0 -1.145250725E+02 -9.990470773E+01  1.051850735E+02  2.231274132E+02  1.250000000E+02  0.00000E+00  9.000E+00
      25     1     1     2     0     0  1.941353897E+01  2.413753128E+02 -1.675006177E+02  3.198755759E+02  1.250000000E+02  0.00000E+00  9.000E+00
      21     1     1     2   502   511  9.511153352E+01 -1.414706050E+02 -5.851704066E+02  6.094953164E+02  1.078959322E-05  0.00000E+00  9.000E+00
#rwgt            1           1   4.1463334359895201E-002           4      282932           0
</event>
<event>
      5   9999  3.79277E-02  1.10424E+02 -1.00000E+00  1.21922E-01
      21    -1     0     0   502   512  0.000000000E+00  0.000000000E+00  4.002609824E+02  4.002609824E+02  0.000000000E+00  0.00000E+00  9.000E+00
      21    -1     0     0   501   502  0.000000000E+00  0.000000000E+00 -3.224578639E+02  3.224578639E+02  0.000000000E+00  0.00000E+00  9.000E+00
      25     1     1     2     0     0 -4.185529053E+01 -2.311442474E+02  1.183310280E+02  2.912160034E+02  1.250000000E+02  0.00000E+00  9.000E+00
      25     1     1     2     0     0 -2.703983750E+01  1.448491782E+02 -1.727809525E+02  2.592116795E+02  1.250000000E+02  0.00000E+00  9.000E+00
      21     1     1     2   501   512  6.889512804E+01  8.629506924E+01  1.322530430E+02  1.722911635E+02  1.907348633E-06  0.00000E+00  9.000E+00
#rwgt            1           1   7.2577602312035800E-003           4      283022           0
</event>
<event>
      5   9999  3.79277E-02  7.09815E+01 -1.00000E+00  1.30915E-01
      21    -1     0     0   511   501  0.000000000E+00  0.000000000E+00  1.342934287E+03  1.342934287E+03  0.000000000E+00  0.00000E+00  9.000E+00
      21    -1     0     0   501   502  0.000000000E+00  0.000000000E+00 -2.030362029E+02  2.030362029E+02  0.000000000E+00  0.00000E+00  9.000E+00
      25     1     1     2     0     0 -7.419548068E+01  3.402060800E+01  8.649163187E+01  1.725345574E+02  1.250000000E+02  0.00000E+00  9.000E+00
      25     1     1     2     0     0  1.018538096E+02  3.135061305E+01 -1.164981775E+02  2.013799515E+02  1.250000000E+02  0.00000E+00  9.000E+00
      21     1     1     2   511   502 -2.765832895E+01 -6.537122105E+01  1.169904630E+03  1.172055981E+03  1.525878906E-05  0.00000E+00  9.000E+00
#rwgt            1           1   4.0309584909992070E-002           4      283212           0
</event>
<event>
      5   9999  3.79277E-02  3.65391E+01 -1.00000E+00  1.47321E-01
      21    -1     0     0   512   501  0.000000000E+00  0.000000000E+00  2.784903925E+02  2.784903925E+02  0.000000000E+00  0.00000E+00  9.000E+00
      21    -1     0     0   501   502  0.000000000E+00  0.000000000E+00 -2.402224018E+02  2.402224018E+02  0.000000000E+00  0.00000E+00  9.000E+00
      25     1     1     2     0     0  7.660007929E+01 -1.955393066E+02 -2.305018748E+01  2.454781125E+02  1.250000000E+02  0.00000E+00  9.000E+00
      25     1     1     2     0     0 -4.077943558E+01  1.883291276E+02  5.452498259E+01  2.360694737E+02  1.250000000E+02  0.00000E+00  9.000E+00
      21     1     1     2   512   502 -3.582064371E+01  7.210178956E+00  6.793195619E+00  3.716520823E+01  7.817075878E-07  0.00000E+00  9.000E+00
#rwgt            1           1   3.4668358714265879E-002           4      283403           0
</event>
<event>
      5   9999  3.79277E-02  2.44773E+01 -1.00000E+00  1.59441E-01
      21    -1     0     0   502   501  0.000000000E+00  0.000000000E+00  3.932011524E+02  3.932011524E+02  0.000000000E+00  0.00000E+00  9.000E+00
      21    -1     0     0   511   502  0.000000000E+00  0.000000000E+00 -1.455709293E+02  1.455709293E+02  0.000000000E+00  0.00000E+00  9.000E+00
      25     1     1     2     0     0 -2.433992043E+01 -1.178853625E+02 -3.455476426E+01  1.769418609E+02  1.250000000E+02  0.00000E+00  9.000E+00
      25     1     1     2     0     0  3.859933883E+01  1.377802856E+02  2.784130208E+02  3.370639794E+02  1.250000000E+02  0.00000E+00  9.000E+00
      21     1     1     2   511   501 -1.425941840E+01 -1.989492316E+01  3.771966544E+00  2.476624138E+01  4.107966647E-07  0.00000E+00  9.000E+00
#rwgt            1           1   4.2242626090352266E-002           4      283594           0
</event>
<event>
      5   9999  3.79277E-02  2.76587E+01 -1.00000E+00  1.55532E-01
      21    -1     0     0   502   501  0.000000000E+00  0.000000000E+00  9.863895366E+02  9.863895366E+02  0.000000000E+00  0.00000E+00  9.000E+00
      21    -1     0     0   512   502  0.000000000E+00  0.000000000E+00 -5.890832578E+01  5.890832578E+01  0.000000000E+00  0.00000E+00  9.000E+00
      25     1     1     2     0     0 -8.266654280E+01 -1.427944771E+02  5.790488091E+02  6.149362108E+02  1.250000000E+02  0.00000E+00  9.000E+00
      25     1     1     2     0     0  6.305721901E+01  1.623002900E+02  3.391159710E+02  4.011760695E+02  1.250000000E+02  0.00000E+00  9.000E+00
      21     1     1     2   512   501  1.960932379E+01 -1.950581293E+01  9.316430691E+00  2.918558203E+01  7.996802250E-07  0.00000E+00  9.000E+00
#rwgt            1           1   3.9592078730552684E-002           4      283829           0
</event>
<event>
      5   9999  3.79277E-02  5.98532E+01 -1.00000E+00  1.34760E-01
      21    -1     0     0   502   501  0.000000000E+00  0.000000000E+00  1.245794300E+02  1.245794300E+02  0.000000000E+00  0.00000E+00  9.000E+00
      21    -1     0     0   511   502  0.000000000E+00  0.000000000E+00 -6.295586917E+02  6.295586917E+02  0.000000000E+00  0.00000E+00  9.000E+00
      25     1     1     2     0     0  8.158137057E-01  1.682322536E+02 -2.228844359E+02  3.059497156E+02  1.250000000E+02  0.00000E+00  9.000E+00
      25     1     1     2     0     0  3.294189104E+01 -2.176571351E+02 -1.296581314E+02  2.844222700E+02  1.250000000E+02  0.00000E+00  9.000E+00
      21     1     1     2   511   501 -3.375770475E+01  4.942488153E+01 -1.524366944E+02  1.637661361E+02  1.907348633E-06  0.00000E+00  9.000E+00
#rwgt            1           1   3.3517995901715732E-002           4      284066           0
</event>
<event>
      5   9999  3.79277E-02  3.21172E+01 -1.00000E+00  1.51011E-01
      21    -1     0     0   502   501  0.000000000E+00  0.000000000E+00  1.717518875E+03  1.717518875E+03  0.000000000E+00  0.00000E+00  9.000E+00
      21    -1     0     0   501   512  0.000000000E+00  0.000000000E+00 -2.488373129E+02  2.488373129E+02  0.000000000E+00  0.00000E+00  9.000E+00
      25     1     1     2     0     0 -1.908577527E+02 -1.559268239E+02  8.875855654E+02  9.296090533E+02  1.250000000E+02  0.00000E+00  9.000E+00
      25     1     1     2     0     0  1.592849630E+02  1.618152045E+02  7.868814662E+02  8.284704592E+02  1.250000000E+02  0.00000E+00  9.000E+00
      21     1     1     2   502   512  3.157278971E+01 -5.888380551E+00 -2.057854695E+02  2.082766754E+02  7.629394531E-06  0.00000E+00  9.000E+00
#rwgt            1           1   4.6028786482701201E-002           4      284227           0
</event>
<event>
      5   9999  3.79277E-02  1.64740E+02 -1.00000E+00  1.14803E-01
      21    -1     0     0   502   511  0.000000000E+00  0.000000000E+00  4.980594912E+02  4.980594912E+02  0.000000000E+00  0.00000E+00  9.000E+00
      21    -1     0     0   501   502  0.000000000E+00  0.000000000E+00 -4.769916539E+02  4.769916539E+02  0.000000000E+00  0.00000E+00  9.000E+00
      25     1     1     2     0     0  1.188752294E+02 -1.187174976E+02 -1.459930799E+02  2.552726851E+02  1.250000000E+02  0.00000E+00  9.000E+00
      25     1     1     2     0     0  1.357480362E+01  2.166785795E+02 -1.979682934E+02  3.192966134E+02  1.250000000E+02  0.00000E+00  9.000E+00
      21     1     1     2   501   511 -1.324500330E+02 -9.796108194E+01  3.650292107E+02  4.004818466E+02  5.394796609E-06  0.00000E+00  9.000E+00
#rwgt            1           1   4.0001758496220806E-002           4      284428           0
</event>
<event>
      5   9999  3.79277E-02  4.21038E+01 -1.00000E+00  1.43473E-01
      21    -1     0     0   512   501  0.000000000E+00  0.000000000E+00  7.493154376E+02  7.493154376E+02  0.000000000E+00  0.00000E+00  9.000E+00
      21    -1     0     0   501   502  0.000000000E+00  0.000000000E+00 -5.696688064E+01  5.696688064E+01  0.000000000E+00  0.00000E+00  9.000E+00
      25     1     1     2     0     0  5.101297426E+01  5.664321373E+01  4.018602120E+02  4.277001370E+02  1.250000000E+02  0.00000E+00  9.000E+00
      25     1     1     2     0     0 -4.427128145E+01 -9.820372471E+01  1.228056008E+02  2.056942719E+02  1.250000000E+02  0.00000E+00  9.000E+00
      21     1     1     2   512   502 -6.741692808E+00  4.156051097E+01  1.676827442E+02  1.728879093E+02  2.697398305E-06  0.00000E+00  9.000E+00
#rwgt            1           1   4.7914811558296098E-002           4      284562           0
</event>
<event>
      5   9999  3.79277E-02  6.67802E+01 -1.00000E+00  1.32265E-01
      21    -1     0     0   502   511  0.000000000E+00  0.000000000E+00  9.189541412E+01  9.189541412E+01  0.000000000E+00  0.00000E+00  9.000E+00
      21    -1     0     0   501   502  0.000000000E+00  0.000000000E+00 -1.283181950E+03  1.283181950E+03  0.000000000E+00  0.00000E+00  9.000E+00
      25     1     1     2     0     0 -2.085141292E+02  1.092191669E+02 -6.388109264E+02  6.921787112E+02  1.250000000E+02  0.00000E+00  9.000E+00
      25     1     1     2     0     0  1.995577859E+02 -1.753959982E+02 -5.404283266E+02  6.150405209E+02  1.250000000E+02  0.00000E+00  9.000E+00
      21     1     1     2   501   511  8.956343272E+00  6.617683125E+01 -1.204728297E+01  6.785813220E+01  2.384185791E-07  0.00000E+00  9.000E+00
#rwgt            1           1   3.5068711378113633E-002           4      284655           0
</event>
<event>
      5   9999 -3.79277E-02  1.16292E+01 -1.00000E+00  1.88473E-01
      21    -1     0     0   502   501  0.000000000E+00  0.000000000E+00  1.055842331E+03  1.055842331E+03  0.000000000E+00  0.00000E+00  9.000E+00
      21    -1     0     0   512   502  0.000000000E+00  0.000000000E+00 -2.814568649E+02  2.814568649E+02  0.000000000E+00  0.00000E+00  9.000E+00
      25     1     1     2     0     0  5.489089659E+01  1.461831128E+02  2.400614654E+02  3.124692307E+02  1.250000000E+02  0.00000E+00  9.000E+00
      25     1     1     2     0     0 -6.051913776E+01 -1.360066304E+02  7.673124395E+02  7.915514825E+02  1.250000000E+02  0.00000E+00  9.000E+00
      21     1     1     2   512   501  5.628241167E+00 -1.017648234E+01 -2.329884388E+02  2.332784827E+02  7.629394531E-06  0.00000E+00  9.000E+00
#rwgt            1           1 -0.17639791339041885                4      284797           0
</event>
<event>
      5   9999 -3.79277E-02  7.85467E+00 -1.00000E+00  2.08717E-01
      21    -1     0     0   502   511  0.000000000E+00  0.000000000E+00  1.211449981E+02  1.211449981E+02  0.000000000E+00  0.00000E+00  9.000E+00
      21    -1     0     0   501   502  0.000000000E+00  0.000000000E+00 -5.210689479E+02  5.210689479E+02  0.000000000E+00  0.00000E+00  9.000E+00
      25     1     1     2     0     0 -1.547606759E+02 -1.352370259E+02 -1.566284632E+02  2.870494652E+02  1.250000000E+02  0.00000E+00  9.000E+00
      25     1     1     2     0     0  1.619166733E+02  1.384754693E+02 -2.440879813E+02  3.472699344E+02  1.250000000E+02  0.00000E+00  9.000E+00
      21     1     1     2   501   511 -7.155997417E+00 -3.238443372E+00  7.924947232E-01  7.894546370E+00  3.650024150E-08  0.00000E+00  9.000E+00
#rwgt            1           1 -0.23387022028921417                4      285123           0
</event>
<event>
      5   9999  3.79277E-02  6.12550E+01 -1.00000E+00  1.34225E-01
      21    -1     0     0   502   501  0.000000000E+00  0.000000000E+00  1.172840707E+02  1.172840707E+02  0.000000000E+00  0.00000E+00  9.000E+00
      21    -1     0     0   512   502  0.000000000E+00  0.000000000E+00 -4.684113092E+02  4.684113092E+02  0.000000000E+00  0.00000E+00  9.000E+00
      25     1     1     2     0     0  6.697500925E+01 -5.166239665E+01  3.107043957E+01  1.540942157E+02  1.250000000E+02  0.00000E+00  9.000E+00
      25     1     1     2     0     0 -6.195553286E+00  5.928039920E+01 -2.469529585E+02  2.831312669E+02  1.250000000E+02  0.00000E+00  9.000E+00
      21     1     1     2   512   501 -6.077945597E+01 -7.618002547E+00 -1.352447195E+02  1.484698973E+02  2.697398305E-06  0.00000E+00  9.000E+00
#rwgt            1           1   3.6421622409954738E-002           4      285424           0
</event>
<event>
      5   9999  3.79277E-02  6.75943E+01 -1.00000E+00  1.31995E-01
      21    -1     0     0   502   501  0.000000000E+00  0.000000000E+00  3.011978799E+02  3.011978799E+02  0.000000000E+00  0.00000E+00  9.000E+00
       1    -1     0     0   501     0  0.000000000E+00  0.000000000E+00 -1.057560275E+03  1.057560275E+03  0.000000000E+00  0.00000E+00  9.000E+00
      25     1     1     2     0     0  1.114967469E+02  1.624916011E+02  1.804853495E+02  2.950169595E+02  1.250000000E+02  0.00000E+00  9.000E+00
      25     1     1     2     0     0 -1.333978385E+02 -9.854376299E+01 -1.116683642E+02  2.357979646E+02  1.250000000E+02  0.00000E+00  9.000E+00
       1     1     1     2   502     0  2.190109159E+01 -6.394783807E+01 -8.251793799E+02  8.279432305E+02  1.078959322E-05  0.00000E+00  9.000E+00
#rwgt            1           1   4.2120025700609673E-002           4      285480           0
</event>
<event>
      5   9999  3.79277E-02  1.09981E+02 -1.00000E+00  1.21998E-01
      21    -1     0     0   502   501  0.000000000E+00  0.000000000E+00  6.125102655E+01  6.125102655E+01  0.000000000E+00  0.00000E+00  9.000E+00
      21    -1     0     0   511   502  0.000000000E+00  0.000000000E+00 -1.293603223E+03  1.293603223E+03  0.000000000E+00  0.00000E+00  9.000E+00
      25     1     1     2     0     0  2.113577387E+02  4.303255479E+01 -3.810393397E+02  4.553458826E+02  1.250000000E+02  0.00000E+00  9.000E+00
      25     1     1     2     0     0 -1.097005866E+02 -1.059606485E+00 -3.679548262E+02  4.037958588E+02  1.250000000E+02  0.00000E+00  9.000E+00
      21     1     1     2   511   501 -1.016571520E+02 -4.197294830E+01 -4.833580303E+02  4.957125079E+02  7.629394531E-06  0.00000E+00  9.000E+00
#rwgt            1           1   3.6187422515566760E-002           4      285581           0
</event>
<event>
      5   9999  3.79277E-02  7.79856E+01 -1.00000E+00  1.28888E-01
      21    -1     0     0   512   501  0.000000000E+00  0.000000000E+00  8.136518537E+01  8.136518537E+01  0.000000000E+00  0.00000E+00  9.000E+00
      21    -1     0     0   501   502  0.000000000E+00  0.000000000E+00 -1.127190175E+03  1.127190175E+03  0.000000000E+00  0.00000E+00  9.000E+00
      25     1     1     2     0     0  1.045522837E+02 -2.198700887E+02 -6.952465612E+02  7.471725482E+02  1.250000000E+02  0.00000E+00  9.000E+00
      25     1     1     2     0     0 -1.151510473E+02  1.426080699E+02 -2.540468219E+02  3.372856549E+02  1.250000000E+02  0.00000E+00  9.000E+00
      21     1     1     2   512   502  1.059876364E+01  7.726201880E+01 -9.653160606E+01  1.240971567E+02  1.348699152E-06  0.00000E+00  9.000E+00
#rwgt            1           1   3.0509196698024769E-002           4      285676           0
</event>
<event>
      5   9999  3.79277E-02  1.03797E+02 -1.00000E+00  1.23104E-01
      21    -1     0     0   502   501  0.000000000E+00  0.000000000E+00  5.774568993E+01  5.774568993E+01  0.000000000E+00  0.00000E+00  9.000E+00
       2    -1     0     0   501     0  0.000000000E+00  0.000000000E+00 -1.141288673E+03  1.141288673E+03  0.000000000E+00  0.00000E+00  9.000E+00
      25     1     1     2     0     0  5.717200272E+01 -1.383280819E+02 -3.870559563E+02  4.334058254E+02  1.250000000E+02  0.00000E+00  9.000E+00
      25     1     1     2     0     0 -1.123310520E+02  5.039997460E+01 -2.388380156E+02  2.963562390E+02  1.250000000E+02  0.00000E+00  9.000E+00
       2     1     1     2   502     0  5.515904933E+01  8.792810732E+01 -4.576490109E+02  4.692722983E+02  5.394796609E-06  0.00000E+00  9.000E+00
#rwgt            1           1   4.0765350905521698E-002           4      285783           0
</event>
<event>
      5   9999  3.79277E-02  2.75158E+01 -1.00000E+00  1.55694E-01
       2    -1     0     0   502     0  0.000000000E+00  0.000000000E+00  2.546869956E+02  2.546869956E+02  0.000000000E+00  0.00000E+00  9.000E+00
      21    -1     0     0   501   502  0.000000000E+00  0.000000000E+00 -1.723196219E+03  1.723196219E+03  0.000000000E+00  0.00000E+00  9.000E+00
      25     1     1     2     0     0  8.423641185E+00 -1.174872620E+02 -7.645419452E+02  7.835965802E+02  1.250000000E+02  0.00000E+00  9.000E+00
      25     1     1     2     0     0  1.528495650E+01  1.035222896E+02 -9.413263270E+02  9.553380282E+02  1.250000000E+02  0.00000E+00  9.000E+00
       2     1     1     2   501     0 -2.370859768E+01  1.396497239E+01  2.373590491E+02  2.389486059E+02  7.629394531E-06  0.00000E+00  9.000E+00
#rwgt            1           1  0.14283123177224882                4      285945           0
</event>
<event>
      5   9999  3.79277E-02  2.31925E+01 -1.00000E+00  1.61231E-01
      21    -1     0     0   502   501  0.000000000E+00  0.000000000E+00  2.945725934E+02  2.945725934E+02  0.000000000E+00  0.00000E+00  9.000E+00
      -2    -1     0     0     0   502  0.000000000E+00  0.000000000E+00 -1.747370571E+02  1.747370571E+02  0.000000000E+00  0.00000E+00  9.000E+00
      25     1     1     2     0     0 -1.629548676E+02  4.671489882E+01  6.663719344E+01  2.209119422E+02  1.250000000E+02  0.00000E+00  9.000E+00
      25     1     1     2     0     0  1.634818486E+02 -6.990145370E+01  5.747755503E+01  2.248136948E+02  1.250000000E+02  0.00000E+00  9.000E+00
      -2     1     1     2     0   501 -5.269809881E-01  2.318655488E+01 -4.279212159E+00  2.358401350E+01  5.462855929E-07  0.00000E+00  9.000E+00
#rwgt            1           1   4.2327895962581977E-002           4      286101           0
</event>
<event>
      5   9999  3.79277E-02  4.04769E+01 -1.00000E+00  1.44522E-01
       1    -1     0     0   502     0  0.000000000E+00  0.000000000E+00  1.558792948E+03  1.558792948E+03  0.000000000E+00  0.00000E+00  9.000E+00
      21    -1     0     0   501   502  0.000000000E+00  0.000000000E+00 -2.578024635E+02  2.578024635E+02  0.000000000E+00  0.00000E+00  9.000E+00
      25     1     1     2     0     0 -1.279262433E+02  3.247255831E+01 -9.989619162E+01  2.074218886E+02  1.250000000E+02  0.00000E+00  9.000E+00
      25     1     1     2     0     0  1.528275829E+02 -6.438338599E+01 -3.303014672E-02  2.076691878E+02  1.250000000E+02  0.00000E+00  9.000E+00
       1     1     1     2   501     0 -2.490133958E+01  3.191082768E+01  1.400919706E+03  1.401504335E+03  0.000000000E+00  0.00000E+00  9.000E+00
#rwgt            1           1   3.3477889361990809E-002           4      286284           0
</event>
<event>
      5   9999  3.79277E-02  7.05665E+01 -1.00000E+00  1.31044E-01
      21    -1     0     0   502   501  0.000000000E+00  0.000000000E+00  1.549648622E+02  1.549648622E+02  0.000000000E+00  0.00000E+00  9.000E+00
      -1    -1     0     0     0   502  0.000000000E+00  0.000000000E+00 -2.212366783E+03  2.212366783E+03  0.000000000E+00  0.00000E+00  9.000E+00
      25     1     1     2     0     0 -1.342397843E+02 -1.907551327E+01 -5.252597931E+02  5.566929541E+02  1.250000000E+02  0.00000E+00  9.000E+00
      25     1     1     2     0     0  9.066698503E+01  7.458264602E+01  8.538780265E+01  1.915702224E+02  1.250000000E+02  0.00000E+00  9.000E+00
      -1     1     1     2     0   501  4.357279923E+01 -5.550713276E+01 -1.617529931E+03  1.619068469E+03  0.000000000E+00  0.00000E+00  9.000E+00
#rwgt            1           1   3.4402811626957297E-002           4      286398           0
</event>
<event>
      5   9999  3.79277E-02  2.65054E+01 -1.00000E+00  1.56872E-01
      21    -1     0     0   511   501  0.000000000E+00  0.000000000E+00  4.353294677E+01  4.353294677E+01  0.000000000E+00  0.00000E+00  9.000E+00
      21    -1     0     0   501   502  0.000000000E+00  0.000000000E+00 -8.265015986E+02  8.265015986E+02  0.000000000E+00  0.00000E+00  9.000E+00
      25     1     1     2     0     0 -4.254818141E+01  9.836418886E+01 -2.904837292E+02  3.339036663E+02  1.250000000E+02  0.00000E+00  9.000E+00
      25     1     1     2     0     0  6.044800164E+01 -1.179123605E+02 -4.559709095E+02  4.910109530E+02  1.250000000E+02  0.00000E+00  9.000E+00
      21     1     1     2   511   502 -1.789982023E+01  1.954817164E+01 -3.651401310E+01  4.511992611E+01  0.000000000E+00  0.00000E+00  9.000E+00
#rwgt            1           1   3.3494092630765471E-002           4      286457           0
</event>
<event>
      5   9999  3.79277E-02  4.39534E+01 -1.00000E+00  1.42346E-01
      21    -1     0     0   502   501  0.000000000E+00  0.000000000E+00  5.431210728E+01  5.431210728E+01  0.000000000E+00  0.00000E+00  9.000E+00
       2    -1     0     0   501     0  0.000000000E+00  0.000000000E+00 -3.020769042E+03  3.020769042E+03  0.000000000E+00  0.00000E+00  9.000E+00
      25     1     1     2     0     0  2.534790859E+01  1.088451854E+02 -4.068437858E+02  4.400416536E+02  1.250000000E+02  0.00000E+00  9.000E+00
      25     1     1     2     0     0  1.749346564E+01 -1.186694537E+02 -1.625155837E+02  2.375389979E+02  1.250000000E+02  0.00000E+00  9.000E+00
       2     1     1     2   502     0 -4.284137423E+01  9.824268287E+00 -2.397097565E+03  2.397500497E+03  0.000000000E+00  0.00000E+00  9.000E+00
#rwgt            1           1   3.7223147480573288E-002           4      286581           0
</event>
<event>
      5   9999  3.79277E-02  1.21175E+02 -1.00000E+00  1.20189E-01
      21    -1     0     0   502   511  0.000000000E+00  0.000000000E+00  7.600861643E+01  7.600861643E+01  0.000000000E+00  0.00000E+00  9.000E+00
      21    -1     0     0   501   502  0.000000000E+00  0.000000000E+00 -1.513475093E+03  1.513475093E+03  0.000000000E+00  0.00000E+00  9.000E+00
      25     1     1     2     0     0 -2.600486159E+02  2.456207464E+01 -4.288094023E+02  5.174273685E+02  1.250000000E+02  0.00000E+00  9.000E+00
      25     1     1     2     0     0  1.439807702E+02  1.024738691E+01 -8.565881439E+02  8.776125110E+02  1.250000000E+02  0.00000E+00  9.000E+00
      21     1     1     2   501   511  1.160678457E+02 -3.480946155E+01 -1.520689300E+02  1.944438296E+02  3.814697266E-06  0.00000E+00  9.000E+00
#rwgt            1           1   4.3712665102971407E-002           4      286749           0
</event>
<event>
      5   9999  3.79277E-02  6.76462E+01 -1.00000E+00  1.31977E-01
      21    -1     0     0   502   501  0.000000000E+00  0.000000000E+00  3.221987466E+01  3.221987466E+01  0.000000000E+00  0.00000E+00  9.000E+00
      21    -1     0     0   501   512  0.000000000E+00  0.000000000E+00 -1.293311701E+03  1.293311701E+03  0.000000000E+00  0.00000E+00  9.000E+00
      25     1     1     2     0     0  6.877245505E+01  2.155340766E+01 -5.857185218E+02  6.032291329E+02  1.250000000E+02  0.00000E+00  9.000E+00
      25     1     1     2     0     0 -1.148069105E+00 -1.983562386E+01 -1.674949430E+02  2.099388625E+02  1.250000000E+02  0.00000E+00  9.000E+00
      21     1     1     2   502   512 -6.762438594E+01 -1.717783808E+00 -5.078783611E+02  5.123635800E+02  0.000000000E+00  0.00000E+00  9.000E+00
#rwgt            1           1  0.11740144031698362                4      286851           0
</event>
<event>
      5   9999  3.79277E-02  3.58333E+01 -1.00000E+00  1.47867E-01
      21    -1     0     0   502   501  0.000000000E+00  0.000000000E+00  1.490237974E+02  1.490237974E+02  0.000000000E+00  0.00000E+00  9.000E+00
      21    -1     0     0   511   502  0.000000000E+00  0.000000000E+00 -7.061013104E+02  7.061013104E+02  0.000000000E+00  0.00000E+00  9.000E+00
      25     1     1     2     0     0  5.980028797E+00 -1.932934189E+02 -1.541821453E+02  2.771195418E+02  1.250000000E+02  0.00000E+00  9.000E+00
      25     1     1     2     0     0  2.777507926E+01  1.812675453E+02 -5.550082547E+01  2.287678291E+02  1.250000000E+02  0.00000E+00  9.000E+00
      21     1     1     2   511   501 -3.375510806E+01  1.202587361E+01 -3.473945422E+02  3.492377369E+02  8.529922400E-06  0.00000E+00  9.000E+00
#rwgt            1           1   4.5106854811555921E-002           4      286933           0
</event>
<event>
      5   9999  3.79277E-02  3.93923E+01 -1.00000E+00  1.45254E-01
      21    -1     0     0   502   501  0.000000000E+00  0.000000000E+00  1.841329380E+02  1.841329380E+02  0.000000000E+00  0.00000E+00  9.000E+00
      21    -1     0     0   512   502  0.000000000E+00  0.000000000E+00 -5.718682865E+02  5.718682865E+02  0.000000000E+00  0.00000E+00  9.000E+00
      25     1     1     2     0     0 -7.192065224E+01 -5.992322002E+01  1.289966107E+02  2.025549261E+02  1.250000000E+02  0.00000E+00  9.000E+00
      25     1     1     2     0     0  9.103722012E+01  2.548031389E+01 -3.772630278E+02  4.085210080E+02  1.250000000E+02  0.00000E+00  9.000E+00
      21     1     1     2   512   501 -1.911656788E+01  3.444290613E+01 -1.394689314E+02  1.449252903E+02  1.907348633E-06  0.00000E+00  9.000E+00
#rwgt            1           1   4.1338773178114713E-002           4      287113           0
</event>
<event>
      5   9999  3.79277E-02  1.68159E+01 -1.00000E+00  1.72832E-01
      21    -1     0     0   502   501  0.000000000E+00  0.000000000E+00  1.348905105E+03  1.348905105E+03  0.000000000E+00  0.00000E+00  9.000E+00
      21    -1     0     0   511   502  0.000000000E+00  0.000000000E+00 -4.548127412E+01  4.548127412E+01  0.000000000E+00  0.00000E+00  9.000E+00
      25     1     1     2     0     0  8.621437585E+01  1.653643639E+02  9.259698037E+02  9.527976537E+02  1.250000000E+02  0.00000E+00  9.000E+00
      25     1     1     2     0     0 -8.417857270E+01 -1.486721900E+02  3.576798178E+02  4.156312118E+02  1.250000000E+02  0.00000E+00  9.000E+00
      21     1     1     2   511   501 -2.035803143E+00 -1.669217387E+01  1.977420975E+01  2.595751402E+01  3.371747881E-07  0.00000E+00  9.000E+00
#rwgt            1           1   4.8203763942139571E-002           4      287348           0
</event>
<event>
      5   9999  3.79277E-02  5.82914E+01 -1.00000E+00  1.35377E-01
      21    -1     0     0   512   501  0.000000000E+00  0.000000000E+00  9.612385851E+02  9.612385851E+02  0.000000000E+00  0.00000E+00  9.000E+00
      21    -1     0     0   501   502  0.000000000E+00  0.000000000E+00 -7.576894854E+01  7.576894854E+01  0.000000000E+00  0.00000E+00  9.000E+00
      25     1     1     2     0     0  6.033945424E+01  1.709787575E+01  6.121848317E+02  6.279557749E+02  1.250000000E+02  0.00000E+00  9.000E+00
      25     1     1     2     0     0 -1.184156784E+02 -2.210217356E+01  5.347816889E+01  1.816471677E+02  1.250000000E+02  0.00000E+00  9.000E+00
      21     1     1     2   512   502  5.807622420E+01  5.004297810E+00  2.198066360E+02  2.274045910E+02  3.814697266E-06  0.00000E+00  9.000E+00
#rwgt            1           1   5.1770816483825935E-002           4      287504           0
</event>
<event>
      5   9999  3.79277E-02  1.06242E+02 -1.00000E+00  1.22657E-01
      21    -1     0     0   502   501  0.000000000E+00  0.000000000E+00  7.228638913E+02  7.228638913E+02  0.000000000E+00  0.00000E+00  9.000E+00
      21    -1     0     0   501   511  0.000000000E+00  0.000000000E+00 -1.694055781E+02  1.694055781E+02  0.000000000E+00  0.00000E+00  9.000E+00
      25     1     1     2     0     0  1.232408926E+02  1.314590024E+02  8.621694650E+01  2.356441147E+02  1.250000000E+02  0.00000E+00  9.000E+00
      25     1     1     2     0     0 -2.158077236E+02 -7.931823523E+01  4.828808436E+02  5.492388052E+02  1.250000000E+02  0.00000E+00  9.000E+00
      21     1     1     2   502   511  9.256683096E+01 -5.214076714E+01 -1.563947693E+01  1.073865496E+02  1.092571186E-06  0.00000E+00  9.000E+00
#rwgt            1           1   4.8822530885071928E-002           4      287722           0
</event>
<event>
      5   9999  3.79277E-02  1.43821E+02 -1.00000E+00  1.17122E-01
      21    -1     0     0   502   501  0.000000000E+00  0.000000000E+00  3.678379543E+02  3.678379543E+02  0.000000000E+00  0.00000E+00  9.000E+00
      21    -1     0     0   501   512  0.000000000E+00  0.000000000E+00 -1.006182517E+03  1.006182517E+03  0.000000000E+00  0.00000E+00  9.000E+00
      25     1     1     2     0     0 -1.453028039E+02  1.189196103E+02 -5.027277746E+01  2.310998284E+02  1.250000000E+02  0.00000E+00  9.000E+00
      25     1     1     2     0     0  2.661327105E+02 -4.091496970E+01  1.894820142E+02  3.521776371E+02  1.250000000E+02  0.00000E+00  9.000E+00
      21     1     1     2   502   512 -1.208299066E+02 -7.800464057E+01 -7.775537991E+02  7.907430055E+02  1.078959322E-05  0.00000E+00  9.000E+00
#rwgt            1           1   4.2859246597881227E-002           4      287782           0
</event>
<event>
      5   9999  3.79277E-02  9.03823E+00 -1.00000E+00  2.00975E-01
      21    -1     0     0   502   501  0.000000000E+00  0.000000000E+00  8.231809158E+02  8.231809158E+02  0.000000000E+00  0.00000E+00  9.000E+00
      21    -1     0     0   501   511  0.000000000E+00  0.000000000E+00 -3.680110760E+01  3.680110760E+01  0.000000000E+00  0.00000E+00  9.000E+00
      25     1     1     2     0     0 -7.865486663E+01 -1.031574130E+01  5.705924051E+02  5.894859586E+02  1.250000000E+02  0.00000E+00  9.000E+00
      25     1     1     2     0     0  8.720627183E+01  1.324202592E+01  2.097936310E+02  2.596510210E+02  1.250000000E+02  0.00000E+00  9.000E+00
      21     1     1     2   502   511 -8.551405203E+00 -2.926284621E+00  5.993772168E+00  1.084504391E+01  2.064765462E-07  0.00000E+00  9.000E+00
#rwgt            1           1   4.4385756604230227E-002           4      287820           0
</event>
<event>
      5   9999  3.79277E-02  1.64146E+02 -1.00000E+00  1.14863E-01
      21    -1     0     0   502   501  0.000000000E+00  0.000000000E+00  4.820127795E+02  4.820127795E+02  0.000000000E+00  0.00000E+00  9.000E+00
       3    -1     0     0   501     0  0.000000000E+00  0.000000000E+00 -2.524648295E+02  2.524648295E+02  0.000000000E+00  0.00000E+00  9.000E+00
      25     1     1     2     0     0  7.504289243E+01  1.720056626E+02 -3.453281876E+01  2.281115939E+02  1.250000000E+02  0.00000E+00  9.000E+00
      25     1     1     2     0     0 -1.852239589E+02 -5.033384132E+01  2.538294035E+02  3.419002437E+02  1.250000000E+02  0.00000E+00  9.000E+00
       3     1     1     2   502     0  1.101810665E+02 -1.216718213E+02  1.025136530E+01  1.644657716E+02  1.316709640E-06  0.00000E+00  9.000E+00
#rwgt            1           1   3.1645472647707305E-002           4      288041           0
</event>
<event>
      5   9999  3.79277E-02  3.38705E+01 -1.00000E+00  1.49467E-01
      21    -1     0     0   502   501  0.000000000E+00  0.000000000E+00  1.009340338E+03  1.009340338E+03  0.000000000E+00  0.00000E+00  9.000E+00
      21    -1     0     0   511   502  0.000000000E+00  0.000000000E+00 -7.267438700E+01  7.267438700E+01  0.000000000E+00  0.00000E+00  9.000E+00
      25     1     1     2     0     0  1.898078112E+02  9.040872869E+01  2.909381754E+02  3.800931009E+02  1.250000000E+02  0.00000E+00  9.000E+00
      25     1     1     2     0     0 -1.644357896E+02 -1.128468278E+02  6.035974497E+02  6.478645049E+02  1.250000000E+02  0.00000E+00  9.000E+00
      21     1     1     2   511   501 -2.537202161E+01  2.243809916E+01  4.213032593E+01  5.405711921E+01  6.743495762E-07  0.00000E+00  9.000E+00
#rwgt            1           1   3.0863751654151440E-002           4      288134           0
</event>
<event>
      5   9999  3.79277E-02  5.09186E+01 -1.00000E+00  1.38626E-01
      21    -1     0     0   502   501  0.000000000E+00  0.000000000E+00  1.210704356E+02  1.210704356E+02  0.000000000E+00  0.00000E+00  9.000E+00
      21    -1     0     0   501   512  0.000000000E+00  0.000000000E+00 -4.024059236E+02  4.024059236E+02  0.000000000E+00  0.00000E+00  9.000E+00
      25     1     1     2     0     0  8.879093338E+01  2.324250793E+01 -1.083657805E+02  1.891882301E+02  1.250000000E+02  0.00000E+00  9.000E+00
      25     1     1     2     0     0 -1.021154991E+02  2.590180152E+01 -1.025733872E+01  1.637946626E+02  1.250000000E+02  0.00000E+00  9.000E+00
      21     1     1     2   502   512  1.332456575E+01 -4.914430945E+01 -1.627123688E+02  1.704934666E+02  2.697398305E-06  0.00000E+00  9.000E+00
#rwgt            1           1   5.8680776902257613E-002           4      288319           0
</event>
<event>
      5   9999  3.79277E-02  1.55228E+02 -1.00000E+00  1.15807E-01
      21    -1     0     0   502   501  0.000000000E+00  0.000000000E+00  2.623865058E+02  2.623865058E+02  0.000000000E+00  0.00000E+00  9.000E+00
      21    -1     0     0   501   511  0.000000000E+00  0.000000000E+00 -3.015113119E+02  3.015113119E+02  0.000000000E+00  0.00000E+00  9.000E+00
      25     1     1     2     0     0 -1.493462193E+02 -2.637989501E+01 -7.728846033E+01  2.111840386E+02  1.250000000E+02  0.00000E+00  9.000E+00
      25     1     1     2     0     0  3.910170806E+01  1.356592259E+02  5.538758728E+01  1.965328318E+02  1.250000000E+02  0.00000E+00  9.000E+00
      21     1     1     2   502   511  1.102445112E+02 -1.092793309E+02 -1.722393302E+01  1.561809472E+02  1.305872339E-06  0.00000E+00  9.000E+00
#rwgt            1           1   7.7240085576927242E-002           4      288454           0
</event>
<event>
      5   9999  3.79277E-02  1.01127E+02 -1.00000E+00  1.23609E-01
      21    -1     0     0   502   501  0.000000000E+00  0.000000000E+00  1.769758045E+02  1.769758045E+02  0.000000000E+00  0.00000E+00  9.000E+00
      21    -1     0     0   501   512  0.000000000E+00  0.000000000E+00 -6.703566111E+02  6.703566111E+02  0.000000000E+00  0.00000E+00  9.000E+00
      25     1     1     2     0     0 -4.230942332E+00 -1.118762699E+02 -2.004527180E+02  2.614201461E+02  1.250000000E+02  0.00000E+00  9.000E+00
      25     1     1     2     0     0  2.964614086E+01  2.097578583E+02  2.974440500E+01  2.477639651E+02  1.250000000E+02  0.00000E+00  9.000E+00
      21     1     1     2   502   512 -2.541519853E+01 -9.788158832E+01 -3.226724936E+02  3.381483044E+02  0.000000000E+00  0.00000E+00  9.000E+00
#rwgt            1           1   4.3380984719120594E-002           4      288505           0
</event>
<event>
      5   9999  3.79277E-02  5.66802E+01 -1.00000E+00  1.36038E-01
      21    -1     0     0   502   501  0.000000000E+00  0.000000000E+00  1.520156069E+03  1.520156069E+03  0.000000000E+00  0.00000E+00  9.000E+00
      21    -1     0     0   501   511  0.000000000E+00  0.000000000E+00 -3.198862343E+02  3.198862343E+02  0.000000000E+00  0.00000E+00  9.000E+00
      25     1     1     2     0     0  2.764665313E+02  2.936759635E+02  9.341324686E+02  1.025137934E+03  1.250000000E+02  0.00000E+00  9.000E+00
      25     1     1     2     0     0 -2.216254320E+02 -2.793546333E+02  4.701426113E+02  6.031715495E+02  1.250000000E+02  0.00000E+00  9.000E+00
      21     1     1     2   502   511 -5.484109929E+01 -1.432133026E+01 -2.040052456E+02  2.117328196E+02  2.697398305E-06  0.00000E+00  9.000E+00
#rwgt            1           1   2.9037282275736823E-002           4      288581           0
</event>
<event>
      5   9999  3.79277E-02  1.43496E+01 -1.00000E+00  1.79217E-01
      21    -1     0     0   512   501  0.000000000E+00  0.000000000E+00  2.133466980E+02  2.133466980E+02  0.000000000E+00  0.00000E+00  9.000E+00
      21    -1     0     0   501   502  0.000000000E+00  0.000000000E+00 -2.423998347E+02  2.423998347E+02  0.000000000E+00  0.00000E+00  9.000E+00
      25     1     1     2     0     0 -1.136058851E+02 -1.094504278E+02 -6.464277495E+01  2.113986320E+02  1.250000000E+02  0.00000E+00  9.000E+00
      25     1     1     2     0     0  9.961703918E+01  1.062530658E+02 -1.427164560E+01  1.924628493E+02  1.250000000E+02  0.00000E+00  9.000E+00
      21     1     1     2   512   502  1.398884596E+01  3.197361987E+00  4.986128380E+01  5.188505138E+01  0.000000000E+00  0.00000E+00  9.000E+00
#rwgt            1           1   2.8473095641819667E-002           4      288733           0
</event>
<event>
      5   9999  3.79277E-02  4.74950E+01 -1.00000E+00  1.40361E-01
      21    -1     0     0   502   501  0.000000000E+00  0.000000000E+00  1.790532093E+02  1.790532093E+02  0.000000000E+00  0.00000E+00  9.000E+00
       1    -1     0     0   501     0  0.000000000E+00  0.000000000E+00 -9.069235040E+02  9.069235040E+02  0.000000000E+00  0.00000E+00  9.000E+00
      25     1     1     2     0     0 -1.572510501E+02  8.614294612E+01 -7.652977623E+01  2.315821811E+02  1.250000000E+02  0.00000E+00  9.000E+00
      25     1     1     2     0     0  1.098161331E+02 -8.853135854E+01  1.247109603E+01  1.888859782E+02  1.250000000E+02  0.00000E+00  9.000E+00
       1     1     1     2   502     0  4.743491702E+01  2.388412421E+00 -6.638116145E+02  6.655085540E+02  0.000000000E+00  0.00000E+00  9.000E+00
#rwgt            1           1   3.7613694145573293E-002           4      288887           0
</event>
<event>
      5   9999  3.79277E-02  4.55968E+01 -1.00000E+00  1.41399E-01
      21    -1     0     0   502   501  0.000000000E+00  0.000000000E+00  3.251410629E+01  3.251410629E+01  0.000000000E+00  0.00000E+00  9.000E+00
      21    -1     0     0   501   511  0.000000000E+00  0.000000000E+00 -2.467877446E+03  2.467877446E+03  0.000000000E+00  0.00000E+00  9.000E+00
      25     1     1     2     0     0  2.767262226E+01  1.692063825E+02 -6.588744122E+02  6.921972731E+02  1.250000000E+02  0.00000E+00  9.000E+00
      25     1     1     2     0     0 -3.259184905E+01 -2.145370403E+02 -1.018507750E+03  1.048842890E+03  1.250000000E+02  0.00000E+00  9.000E+00
      21     1     1     2   502   511  4.919226787E+00  4.533065781E+01 -7.579811773E+02  7.593513893E+02  1.078959322E-05  0.00000E+00  9.000E+00
#rwgt            1           1   3.5419780343437055E-002           4      289029           0
</event>
<event>
      5   9999  3.79277E-02  2.40077E+01 -1.00000E+00  1.60080E-01
      21    -1     0     0   502   501  0.000000000E+00  0.000000000E+00  4.602655514E+02  4.602655514E+02  0.000000000E+00  0.00000E+00  9.000E+00
      21    -1     0     0   512   502  0.000000000E+00  0.000000000E+00 -1.604602366E+02  1.604602366E+02  0.000000000E+00  0.00000E+00  9.000E+00
      25     1     1     2     0     0  1.030310052E+02 -1.751731142E+02  2.544981970E+02  3.488485922E+02  1.250000000E+02  0.00000E+00  9.000E+00
      25     1     1     2     0     0 -9.494525350E+01  1.525680175E+02  7.706310057E+01  2.320674958E+02  1.250000000E+02  0.00000E+00  9.000E+00
      21     1     1     2   512   501 -8.085751699E+00  2.260509673E+01 -3.175598274E+01  3.980970006E+01  9.536743164E-07  0.00000E+00  9.000E+00
#rwgt            1           1   3.7630116531143509E-002           4      289166           0
</event>
<event>
      5   9999  3.79277E-02  6.02742E+01 -1.00000E+00  1.34598E-01
      21    -1     0     0   511   501  0.000000000E+00  0.000000000E+00  7.576664711E+02  7.576664711E+02  0.000000000E+00  0.00000E+00  9.000E+00
      21    -1     0     0   501   502  0.000000000E+00  0.000000000E+00 -6.575150464E+01  6.575150464E+01  0.000000000E+00  0.00000E+00  9.000E+00
      25     1     1     2     0     0 -8.180072801E+01  1.392067521E+02  3.263122806E+02  3.849345183E+02  1.250000000E+02  0.00000E+00  9.000E+00
      25     1     1     2     0     0  2.234379373E+01 -1.293149292E+02  2.609167771E+02  3.176856317E+02  1.250000000E+02  0.00000E+00  9.000E+00
      21     1     1     2   511   502  5.945693429E+01 -9.891822870E+00  1.046859088E+02  1.207978257E+02  1.907348633E-06  0.00000E+00  9.000E+00
#rwgt            2          11   2.8485391557438733E-003           4      289269           0
</event>
<event>
      5   9999  3.79277E-02  1.21362E+01 -1.00000E+00  1.86514E-01
      21    -1     0     0   502   501  0.000000000E+00  0.000000000E+00  4.810982025E+01  4.810982025E+01  0.000000000E+00  0.00000E+00  9.000E+00
      21    -1     0     0   512   502  0.000000000E+00  0.000000000E+00 -1.221314021E+03  1.221314021E+03  0.000000000E+00  0.00000E+00  9.000E+00
      25     1     1     2     0     0  3.897347676E+00 -1.173967050E+02 -1.673805559E+02  2.396631514E+02  1.250000000E+02  0.00000E+00  9.000E+00
      25     1     1     2     0     0 -3.625664487E+00  1.295298854E+02 -6.715415310E+02  6.952583438E+02  1.250000000E+02  0.00000E+00  9.000E+00
      21     1     1     2   512   501 -2.716831892E-01 -1.213318033E+01 -3.342821134E+02  3.345023456E+02  3.814697266E-06  0.00000E+00  9.000E+00
#rwgt            1           1   2.5433712683747726E-002           4      289319           0
</event>
<event>
      5   9999  3.79277E-02  8.82763E+01 -1.00000E+00  1.26314E-01
      21    -1     0     0   502   501  0.000000000E+00  0.000000000E+00  8.246221388E+02  8.246221388E+02  0.000000000E+00  0.00000E+00  9.000E+00
      -1    -1     0     0     0   502  0.000000000E+00  0.000000000E+00 -9.885097759E+01  9.885097759E+01  0.000000000E+00  0.00000E+00  9.000E+00
      25     1     1     2     0     0  1.492186481E+01  1.324491482E+02  2.722433899E+02  3.278824518E+02  1.250000000E+02  0.00000E+00  9.000E+00
      25     1     1     2     0     0 -7.124068961E+01 -6.447193533E+01  4.785372287E+02  5.038400000E+02  1.250000000E+02  0.00000E+00  9.000E+00
      -1     1     1     2     0   501  5.631882480E+01 -6.797721285E+01 -2.500945736E+01  9.175066458E+01  4.768371582E-07  0.00000E+00  9.000E+00
#rwgt            1           1   3.9134981224849347E-002           4      289730           0
</event>
<event>
      5   9999  3.79277E-02  1.10187E+01 -1.00000E+00  1.91010E-01
      21    -1     0     0   502   501  0.000000000E+00  0.000000000E+00  1.078567434E+03  1.078567434E+03  0.000000000E+00  0.00000E+00  9.000E+00
      21    -1     0     0   501   511  0.000000000E+00  0.000000000E+00 -7.679470338E+01  7.679470338E+01  0.000000000E+00  0.00000E+00  9.000E+00
      25     1     1     2     0     0 -9.208607366E+01 -7.924156930E+01  9.032022439E+02  9.198686671E+02  1.250000000E+02  0.00000E+00  9.000E+00
      25     1     1     2     0     0  8.266863971E+01  7.352108873E+01  1.238916114E+02  2.078787768E+02  1.250000000E+02  0.00000E+00  9.000E+00
      21     1     1     2   502   511  9.417433959E+00  5.720480565E+00 -2.532112450E+01  2.761469366E+01  1.348699152E-06  0.00000E+00  9.000E+00
#rwgt            1           1   4.6951547062707655E-002           4      289950           0
</event>
<event>
      5   9999  3.79277E-02  1.15669E+01 -1.00000E+00  1.88722E-01
      21    -1     0     0   502   512  0.000000000E+00  0.000000000E+00  2.976134491E+02  2.976134491E+02  0.000000000E+00  0.00000E+00  9.000E+00
      21    -1     0     0   501   502  0.000000000E+00  0.000000000E+00 -5.197076690E+02  5.197076690E+02  0.000000000E+00  0.00000E+00  9.000E+00
      25     1     1     2     0     0 -8.687749319E+00 -2.932595750E+02 -1.661692485E+02  3.596023838E+02  1.250000000E+02  0.00000E+00  9.000E+00
      25     1     1     2     0     0  1.964241068E+01  2.969729550E+02 -1.549160876E+02  3.580541223E+02  1.250000000E+02  0.00000E+00  9.000E+00
      21     1     1     2   501   512 -1.095466137E+01 -3.713380014E+00  9.899111617E+01  9.966461196E+01  1.907348633E-06  0.00000E+00  9.000E+00
#rwgt            1           1   4.1372294598446789E-002           4      290253           0
</event>
<event>
      5   9999  3.79277E-02  2.61692E+01 -1.00000E+00  1.57278E-01
      21    -1     0     0   502   511  0.000000000E+00  0.000000000E+00  2.085120530E+03  2.085120530E+03  0.000000000E+00  0.00000E+00  9.000E+00
      21    -1     0     0   501   502  0.000000000E+00  0.000000000E+00 -1.317471202E+03  1.317471202E+03  0.000000000E+00  0.00000E+00  9.000E+00
      25     1     1     2     0     0  2.026307277E+02 -1.962928306E+01 -6.766675946E+02  7.175991598E+02  1.250000000E+02  0.00000E+00  9.000E+00
      25     1     1     2     0     0 -1.786432680E+02  9.168354721E+00 -6.010593803E+02  6.394488678E+02  1.250000000E+02  0.00000E+00  9.000E+00
      21     1     1     2   501   511 -2.398745973E+01  1.046092834E+01  2.045376302E+03  2.045543705E+03  0.000000000E+00  0.00000E+00  9.000E+00
#rwgt            1           1   3.8324335791549667E-002           4      290510           0
</event>
<event>
      5   9999  3.79277E-02  4.03579E+01 -1.00000E+00  1.44601E-01
      21    -1     0     0   502   501  0.000000000E+00  0.000000000E+00  1.491542278E+02  1.491542278E+02  0.000000000E+00  0.00000E+00  9.000E+00
       1    -1     0     0   501     0  0.000000000E+00  0.000000000E+00 -4.412968453E+02  4.412968453E+02  0.000000000E+00  0.00000E+00  9.000E+00
      25     1     1     2     0     0  4.366814582E+01 -6.139347952E+01  3.974672949E+01  1.512642350E+02  1.250000000E+02  0.00000E+00  9.000E+00
      25     1     1     2     0     0 -7.420488875E+01  8.778031497E+01 -8.663994620E+01  1.906390031E+02  1.250000000E+02  0.00000E+00  9.000E+00
       1     1     1     2   502     0  3.053674293E+01 -2.638683545E+01 -2.452494007E+02  2.485478351E+02  2.697398305E-06  0.00000E+00  9.000E+00
#rwgt            1           1   3.1589589285103026E-002           4      290818           0
</event>
<event>
      5   9999  3.79277E-02  1.23961E+02 -1.00000E+00  1.19773E-01
      21    -1     0     0   511   501  0.000000000E+00  0.000000000E+00  8.374648783E+01  8.374648783E+01  0.000000000E+00  0.00000E+00  9.000E+00
      21    -1     0     0   501   502  0.000000000E+00  0.000000000E+00 -7.921122321E+02  7.921122321E+02  0.000000000E+00  0.00000E+00  9.000E+00
      25     1     1     2     0     0  1.481929388E+02 -1.620330206E+01 -4.835895226E+02  5.212557151E+02  1.250000000E+02  0.00000E+00  9.000E+00
      25     1     1     2     0     0 -2.531270010E+01  3.253866342E+01 -1.795982288E+02  2.226657162E+02  1.250000000E+02  0.00000E+00  9.000E+00
      21     1     1     2   511   502 -1.228802387E+02 -1.633536136E+01 -4.517799283E+01  1.319372886E+02  2.078484985E-06  0.00000E+00  9.000E+00
#rwgt            1           1   3.7117372651597293E-002           4      290898           0
</event>
<event>
      5   9999  3.79277E-02  1.93105E+01 -1.00000E+00  1.67636E-01
      21    -1     0     0   502   501  0.000000000E+00  0.000000000E+00  1.105524523E+02  1.105524523E+02  0.000000000E+00  0.00000E+00  9.000E+00
      21    -1     0     0   512   502  0.000000000E+00  0.000000000E+00 -6.847001074E+02  6.847001074E+02  0.000000000E+00  0.00000E+00  9.000E+00
      25     1     1     2     0     0  1.906382156E+02 -1.352294698E+02 -3.135633740E+02  4.105812079E+02  1.250000000E+02  0.00000E+00  9.000E+00
      25     1     1     2     0     0 -1.726239783E+02  1.421852814E+02 -2.125252969E+02  3.328778965E+02  1.250000000E+02  0.00000E+00  9.000E+00
      21     1     1     2   512   501 -1.801423722E+01 -6.955811645E+00 -4.805898410E+01  5.179345529E+01  6.743495762E-07  0.00000E+00  9.000E+00
#rwgt            1           1   4.0926254170539474E-002           4      291060           0
</event>
<event>
      5   9999  3.79277E-02  4.69255E+01 -1.00000E+00  1.40666E-01
      21    -1     0     0   502   511  0.000000000E+00  0.000000000E+00  4.708957294E+02  4.708957294E+02  0.000000000E+00  0.00000E+00  9.000E+00
      21    -1     0     0   501   502  0.000000000E+00  0.000000000E+00 -2.055362666E+02  2.055362666E+02  0.000000000E+00  0.00000E+00  9.000E+00
      25     1     1     2     0     0 -1.023373513E+02  1.747697125E+02  1.030513811E+02  2.593491335E+02  1.250000000E+02  0.00000E+00  9.000E+00
      25     1     1     2     0     0  5.596584392E+01 -1.819592384E+02 -2.020262953E+01  2.286361441E+02  1.250000000E+02  0.00000E+00  9.000E+00
      21     1     1     2   501   511  4.637150742E+01  7.189525902E+00  1.825107113E+02  1.884467185E+02  2.697398305E-06  0.00000E+00  9.000E+00
#rwgt            1           1   2.2650508039526538E-002           4      291203           0
</event>
<event>
      5   9999 -3.79277E-02  1.02271E+02 -1.00000E+00  1.23391E-01
      21    -1     0     0   502   501  0.000000000E+00  0.000000000E+00  1.492747194E+03  1.492747194E+03  0.000000000E+00  0.00000E+00  9.000E+00
      21    -1     0     0   501   512  0.000000000E+00  0.000000000E+00 -8.106636450E+01  8.106636450E+01  0.000000000E+00  0.00000E+00  9.000E+00
      25     1     1     2     0     0 -2.909682258E+02 -1.211092408E+02  8.001447771E+02  8.690147415E+02  1.250000000E+02  0.00000E+00  9.000E+00
      25     1     1     2     0     0  1.948813397E+02  8.608672490E+01  4.570536252E+02  5.195312089E+02  1.250000000E+02  0.00000E+00  9.000E+00
      21     1     1     2   502   512  9.608688609E+01  3.502251589E+01  1.544824274E+02  1.852676083E+02  0.000000000E+00  0.00000E+00  9.000E+00
#rwgt            1           1  -2.9700218381221468E-002           4      291413           0
</event>
<event>
      5   9999 -3.79277E-02  9.10835E+01 -1.00000E+00  1.25680E-01
      21    -1     0     0   511   501  0.000000000E+00  0.000000000E+00  7.782662957E+01  7.782662957E+01  0.000000000E+00  0.00000E+00  9.000E+00
      21    -1     0     0   501   502  0.000000000E+00  0.000000000E+00 -1.766813741E+03  1.766813741E+03  0.000000000E+00  0.00000E+00  9.000E+00
      25     1     1     2     0     0 -1.719429984E+02 -2.220762479E+02 -4.574178271E+02  5.511245985E+02  1.250000000E+02  0.00000E+00  9.000E+00
      25     1     1     2     0     0  8.522742465E+01  2.499441271E+02 -1.056707969E+03  1.096354191E+03  1.250000000E+02  0.00000E+00  9.000E+00
      21     1     1     2   511   502  8.671557374E+01 -2.786787918E+01 -1.748613158E+02  1.971615814E+02  1.907348633E-06  0.00000E+00  9.000E+00
#rwgt            1           1 -0.29977250855382159                4      291535           0
</event>
<event>
      5   9999  3.79277E-02  5.02892E+01 -1.00000E+00  1.38933E-01
      21    -1     0     0   502   501  0.000000000E+00  0.000000000E+00  8.478694208E+01  8.478694208E+01  0.000000000E+00  0.00000E+00  9.000E+00
      21    -1     0     0   512   502  0.000000000E+00  0.000000000E+00 -7.498908330E+02  7.498908330E+02  0.000000000E+00  0.00000E+00  9.000E+00
      25     1     1     2     0     0  1.743929618E+02  5.739544064E+00 -4.083602993E+02  4.613339154E+02  1.250000000E+02  0.00000E+00  9.000E+00
      25     1     1     2     0     0 -1.633731888E+02 -5.480648662E+01 -1.673941416E+02  2.708142323E+02  1.250000000E+02  0.00000E+00  9.000E+00
      21     1     1     2   512   501 -1.101977301E+01  4.906694256E+01 -8.934945012E+01  1.025296274E+02  0.000000000E+00  0.00000E+00  9.000E+00
#rwgt            1           1   4.2622976099039124E-002           4      291724           0
</event>
<event>
      5   9999  3.79277E-02  1.02903E+02 -1.00000E+00  1.23272E-01
      21    -1     0     0   502   511  0.000000000E+00  0.000000000E+00  6.923640797E+02  6.923640797E+02  0.000000000E+00  0.00000E+00  9.000E+00
      21    -1     0     0   501   502  0.000000000E+00  0.000000000E+00 -2.869631393E+02  2.869631393E+02  0.000000000E+00  0.00000E+00  9.000E+00
      25     1     1     2     0     0  1.077702524E+02  1.997094466E+02  1.165353363E+02  2.840840984E+02  1.250000000E+02  0.00000E+00  9.000E+00
      25     1     1     2     0     0 -1.437653885E+02 -1.033072971E+02 -1.374866150E+02  2.566485026E+02  1.250000000E+02  0.00000E+00  9.000E+00
      21     1     1     2   501   511  3.599513611E+01 -9.640214953E+01  4.263522191E+02  4.385946181E+02  5.394796609E-06  0.00000E+00  9.000E+00
#rwgt            1           1   4.2896935781174511E-002           4      291867           0
</event>
<event>
      5   9999  3.79277E-02  3.24722E+01 -1.00000E+00  1.50689E-01
      21    -1     0     0   512   501  0.000000000E+00  0.000000000E+00  1.566848419E+02  1.566848419E+02  0.000000000E+00  0.00000E+00  9.000E+00
      21    -1     0     0   501   502  0.000000000E+00  0.000000000E+00 -3.549824729E+02  3.549824729E+02  0.000000000E+00  0.00000E+00  9.000E+00
      25     1     1     2     0     0  8.958786505E+00  1.299278828E+02  1.380973619E+01  1.810448104E+02  1.250000000E+02  0.00000E+00  9.000E+00
      25     1     1     2     0     0 -4.123600477E+01 -1.263746321E+02 -2.299648815E+02  2.935639666E+02  1.250000000E+02  0.00000E+00  9.000E+00
      21     1     1     2   512   502  3.227721826E+01 -3.553250619E+00  1.785751434E+01  3.705853785E+01  8.259061849E-07  0.00000E+00  9.000E+00
#rwgt            1           1   9.6710853770772959E-003           4      292039           0
</event>
<event>
      5   9999  3.79277E-02  1.66131E+01 -1.00000E+00  1.73304E-01
      21    -1     0     0   502   501  0.000000000E+00  0.000000000E+00  3.016441917E+03  3.016441917E+03  0.000000000E+00  0.00000E+00  9.000E+00
       2    -1     0     0   501     0  0.000000000E+00  0.000000000E+00 -3.708228496E+03  3.708228496E+03  0.000000000E+00  0.00000E+00  9.000E+00
      25     1     1     2     0     0 -1.255964894E+02  2.379221683E+02  1.274983362E+03  1.309041256E+03  1.250000000E+02  0.00000E+00  9.000E+00
      25     1     1     2     0     0  1.098729074E+02 -2.432854843E+02  1.711814537E+03  1.737007165E+03  1.250000000E+02  0.00000E+00  9.000E+00
       2     1     1     2   502     0  1.572358196E+01  5.363315947E+00 -3.678584478E+03  3.678621992E+03  4.315837288E-05  0.00000E+00  9.000E+00
#rwgt            1           1   2.3275104938048824E-002           4      292209           0
</event>
<event>
      5   9999  3.79277E-02  1.64268E+01 -1.00000E+00  1.73745E-01
      21    -1     0     0   502   501  0.000000000E+00  0.000000000E+00  1.050814010E+03  1.050814010E+03  0.000000000E+00  0.00000E+00  9.000E+00
      21    -1     0     0   511   502  0.000000000E+00  0.000000000E+00 -1.914714978E+02  1.914714978E+02  0.000000000E+00  0.00000E+00  9.000E+00
      25     1     1     2     0     0 -6.690953158E+01 -3.606180461E+01  6.894553394E+01  1.617276285E+02  1.250000000E+02  0.00000E+00  9.000E+00
      25     1     1     2     0     0  5.440785333E+01  4.671770706E+01  9.294410274E+02  9.405468527E+02  1.250000000E+02  0.00000E+00  9.000E+00
      21     1     1     2   511   501  1.250167826E+01 -1.065590245E+01 -1.390440487E+02  1.400110271E+02  3.814697266E-06  0.00000E+00  9.000E+00
#rwgt            1           1   3.2977499411195287E-002           4      292543           0
</event>
<event>
      5   9999  3.79277E-02  1.75826E+01 -1.00000E+00  1.71122E-01
      21    -1     0     0   502   501  0.000000000E+00  0.000000000E+00  9.382060301E+02  9.382060301E+02  0.000000000E+00  0.00000E+00  9.000E+00
      21    -1     0     0   512   502  0.000000000E+00  0.000000000E+00 -2.554695677E+02  2.554695677E+02  0.000000000E+00  0.00000E+00  9.000E+00
      25     1     1     2     0     0  4.431290823E+01  3.077953824E+01  1.442309863E+02  1.983395856E+02  1.250000000E+02  0.00000E+00  9.000E+00
      25     1     1     2     0     0 -4.976860339E+01 -4.749425057E+01  7.599330838E+02  7.732114262E+02  1.250000000E+02  0.00000E+00  9.000E+00
      21     1     1     2   512   501  5.455695159E+00  1.671471233E+01 -2.214276078E+02  2.221245860E+02  5.394796609E-06  0.00000E+00  9.000E+00
#rwgt            1           1   5.7097364991791119E-002           4      292718           0
</event>
<event>
      5   9999  3.79277E-02  5.42544E+01 -1.00000E+00  1.37082E-01
      21    -1     0     0   511   501  0.000000000E+00  0.000000000E+00  2.037728824E+02  2.037728824E+02  0.000000000E+00  0.00000E+00  9.000E+00
      21    -1     0     0   501   502  0.000000000E+00  0.000000000E+00 -2.560442948E+02  2.560442948E+02  0.000000000E+00  0.00000E+00  9.000E+00
      25     1     1     2     0     0  7.027724168E+01  7.077879103E+01  9.778887460E+01  1.874465042E+02  1.250000000E+02  0.00000E+00  9.000E+00
      25     1     1     2     0     0 -3.274816366E+01 -3.159833403E+01 -1.688485500E+02  2.149551808E+02  1.250000000E+02  0.00000E+00  9.000E+00
      21     1     1     2   511   502 -3.752907802E+01 -3.918045700E+01  1.878826300E+01  5.741549211E+01  7.152557373E-07  0.00000E+00  9.000E+00
#rwgt            1           1   4.2565968595693865E-002           4      292896           0
</event>
<event>
      5   9999  3.79277E-02  9.20487E+01 -1.00000E+00  1.25468E-01
      21    -1     0     0   502   512  0.000000000E+00  0.000000000E+00  8.454772761E+02  8.454772761E+02  0.000000000E+00  0.00000E+00  9.000E+00
      21    -1     0     0   501   502  0.000000000E+00  0.000000000E+00 -7.514623785E+01  7.514623785E+01  0.000000000E+00  0.00000E+00  9.000E+00
      25     1     1     2     0     0  8.120632674E+00 -1.266433484E+02  4.849799406E+02  5.166575511E+02  1.250000000E+02  0.00000E+00  9.000E+00
      25     1     1     2     0     0  3.977007153E+01  4.803394159E+01  4.527129631E+01  1.468448447E+02  1.250000000E+02  0.00000E+00  9.000E+00
      21     1     1     2   501   512 -4.789070421E+01  7.860940679E+01  2.400798013E+02  2.571211181E+02  3.814697266E-06  0.00000E+00  9.000E+00
#rwgt            1           1   4.6168576889151901E-002           4      293008           0
</event>
<event>
      5   9999  3.79277E-02  9.35016E+01 -1.00000E+00  1.25155E-01
      21    -1     0     0   502   501  0.000000000E+00  0.000000000E+00  4.804692543E+02  4.804692543E+02  0.000000000E+00  0.00000E+00  9.000E+00
       2    -1     0     0   501     0  0.000000000E+00  0.000000000E+00 -9.616915632E+02  9.616915632E+02  0.000000000E+00  0.00000E+00  9.000E+00
      25     1     1     2     0     0  9.449955723E+01  7.531590076E+01  4.299471522E+01  1.790982880E+02  1.250000000E+02  0.00000E+00  9.000E+00
      25     1     1     2     0     0 -1.619519080E+02 -1.056464279E+01  3.383015109E+02  3.954907640E+02  1.250000000E+02  0.00000E+00  9.000E+00
       2     1     1     2   502     0  6.745235081E+01 -6.475125797E+01 -8.625185349E+02  8.675717654E+02  1.868812365E-05  0.00000E+00  9.000E+00
#rwgt            1           1   4.5300318431730026E-002           4      293094           0
</event>
<event>
      5   9999  3.79277E-02  6.24135E+01 -1.00000E+00  1.33794E-01
      21    -1     0     0   511   501  0.000000000E+00  0.000000000E+00  5.152054282E+01  5.152054282E+01  0.000000000E+00  0.00000E+00  9.000E+00
      21    -1     0     0   501   502  0.000000000E+00  0.000000000E+00 -8.725014007E+02  8.725014007E+02  0.000000000E+00  0.00000E+00  9.000E+00
      25     1     1     2     0     0 -4.361318449E+01 -1.341236932E+02 -4.066450583E+02  4.481924569E+02  1.250000000E+02  0.00000E+00  9.000E+00
      25     1     1     2     0     0  2.295736276E+01  7.522729373E+01 -3.724545333E+02  4.006664018E+02  1.250000000E+02  0.00000E+00  9.000E+00
      21     1     1     2   511   502  2.065582174E+01  5.889639951E+01 -4.188126628E+01  7.516308477E+01  1.261592536E-06  0.00000E+00  9.000E+00
#rwgt            1           1   3.2220989800980766E-002           4      293240           0
</event>
<event>
      5   9999  3.79277E-02  2.81830E+01 -1.00000E+00  1.54949E-01
      21    -1     0     0   502   501  0.000000000E+00  0.000000000E+00  6.105180831E+01  6.105180831E+01  0.000000000E+00  0.00000E+00  9.000E+00
       1    -1     0     0   501     0  0.000000000E+00  0.000000000E+00 -1.229403195E+03  1.229403195E+03  0.000000000E+00  0.00000E+00  9.000E+00
      25     1     1     2     0     0 -4.894710263E+01  5.331102059E+01 -8.154041740E+01  1.658665833E+02  1.250000000E+02  0.00000E+00  9.000E+00
      25     1     1     2     0     0  3.451078314E+01 -7.751586053E+01 -2.874786465E+02  3.247594109E+02  1.250000000E+02  0.00000E+00  9.000E+00
       1     1     1     2   502     0  1.443631948E+01  2.420483993E+01 -7.993323225E+02  7.998290088E+02  0.000000000E+00  0.00000E+00  9.000E+00
#rwgt            1           1   2.5681670821371072E-002           4      293364           0
</event>
<event>
      5   9999  3.79277E-02  7.16544E+01 -1.00000E+00  1.30709E-01
      21    -1     0     0   502   501  0.000000000E+00  0.000000000E+00  2.601726496E+03  2.601726496E+03  0.000000000E+00  0.00000E+00  9.000E+00
      21    -1     0     0   511   502  0.000000000E+00  0.000000000E+00 -3.251080101E+01  3.251080101E+01  0.000000000E+00  0.00000E+00  9.000E+00
      25     1     1     2     0     0 -3.225266907E+01  2.703953370E+01  1.631376801E+02  2.097862572E+02  1.250000000E+02  0.00000E+00  9.000E+00
      25     1     1     2     0     0 -2.939615552E+01 -6.356045493E+01  2.226496893E+03  2.231102301E+03  1.250000000E+02  0.00000E+00  9.000E+00
      21     1     1     2   511   501  6.164882459E+01  3.652092124E+01  1.795811222E+02  1.933487386E+02  5.046370146E-06  0.00000E+00  9.000E+00
#rwgt            1           1   8.2398860526746581E-002           4      293562           0
</event>
<event>
      5   9999  3.79277E-02  3.47180E+01 -1.00000E+00  1.48761E-01
      21    -1     0     0   512   501  0.000000000E+00  0.000000000E+00  2.852976763E+01  2.852976763E+01  0.000000000E+00  0.00000E+00  9.000E+00
      21    -1     0     0   501   502  0.000000000E+00  0.000000000E+00 -3.246961590E+03  3.246961590E+03  0.000000000E+00  0.00000E+00  9.000E+00
      25     1     1     2     0     0  1.551216767E+02  4.103493719E+01 -2.000797539E+03  2.011109742E+03  1.250000000E+02  0.00000E+00  9.000E+00
      25     1     1     2     0     0 -1.418445900E+02 -8.956035170E+00 -1.214900541E+03  1.229556189E+03  1.250000000E+02  0.00000E+00  9.000E+00
      21     1     1     2   512   502 -1.327708662E+01 -3.207890202E+01 -2.733742189E+00  3.482542649E+01  1.553155687E-06  0.00000E+00  9.000E+00
#rwgt            1           1   2.1587699971184499E-002           4      293653           0
</event>
<event>
      5   9999  3.79277E-02  5.45355E+01 -1.00000E+00  1.36958E-01
      21    -1     0     0   502   511  0.000000000E+00  0.000000000E+00  2.591545137E+02  2.591545137E+02  0.000000000E+00  0.00000E+00  9.000E+00
      21    -1     0     0   501   502  0.000000000E+00  0.000000000E+00 -9.251701915E+02  9.251701915E+02  0.000000000E+00  0.00000E+00  9.000E+00
      25     1     1     2     0     0 -1.234239227E+02  1.575098977E+02 -7.561049662E+02  7.920622151E+02  1.250000000E+02  0.00000E+00  9.000E+00
      25     1     1     2     0     0  1.429293052E+02 -1.065818478E+02 -6.550636999E+01  2.273863696E+02  1.250000000E+02  0.00000E+00  9.000E+00
      21     1     1     2   501   511 -1.950538251E+01 -5.092804987E+01  1.555956584E+02  1.648761206E+02  3.303624740E-06  0.00000E+00  9.000E+00
#rwgt            1           1   5.1471953026994526E-002           4      293809           0
</event>
<event>
      5   9999  3.79277E-02  9.21061E+01 -1.00000E+00  1.25456E-01
      21    -1     0     0   502   501  0.000000000E+00  0.000000000E+00  3.224741833E+02  3.224741833E+02  0.000000000E+00  0.00000E+00  9.000E+00
      21    -1     0     0   512   502  0.000000000E+00  0.000000000E+00 -1.681998693E+02  1.681998693E+02  0.000000000E+00  0.00000E+00  9.000E+00
      25     1     1     2     0     0  3.315568214E+01 -5.272943955E+01 -3.568216961E+01  1.441454484E+02  1.250000000E+02  0.00000E+00  9.000E+00
      25     1     1     2     0     0 -1.213237604E+02  7.937391350E+01  1.605506005E+02  2.498422869E+02  1.250000000E+02  0.00000E+00  9.000E+00
      21     1     1     2   512   501  8.816807822E+01 -2.664447395E+01  2.940588307E+01  9.668631738E+01  1.545128989E-06  0.00000E+00  9.000E+00
#rwgt            1           1   3.9244573643710673E-002           4      293893           0
</event>
<event>
      5   9999  3.79277E-02  9.86894E+00 -1.00000E+00  1.96422E-01
      21    -1     0     0   511   501  0.000000000E+00  0.000000000E+00  1.190895540E+02  1.190895540E+02  0.000000000E+00  0.00000E+00  9.000E+00
      21    -1     0     0   501   502  0.000000000E+00  0.000000000E+00 -2.437869988E+02  2.437869988E+02  0.000000000E+00  0.00000E+00  9.000E+00
      25     1     1     2     0     0  6.145156754E+01  6.657045909E+01 -3.727400850E+01  1.588152162E+02  1.250000000E+02  0.00000E+00  9.000E+00
      25     1     1     2     0     0 -5.374048473E+01 -7.272961112E+01 -1.030841148E+02  1.855504534E+02  1.250000000E+02  0.00000E+00  9.000E+00
      21     1     1     2   511   502 -7.711082805E+00  6.159152033E+00  1.566067842E+01  1.851088329E+01  3.769728732E-07  0.00000E+00  9.000E+00
#rwgt            1           1   4.4574478707504341E-002           4      294042           0
</event>
<event>
      5   9999  3.79277E-02  1.28605E+01 -1.00000E+00  1.83920E-01
      21    -1     0     0   502   501  0.000000000E+00  0.000000000E+00  1.009296089E+02  1.009296089E+02  0.000000000E+00  0.00000E+00  9.000E+00
       2    -1     0     0   501     0  0.000000000E+00  0.000000000E+00 -3.528452035E+03  3.528452035E+03  0.000000000E+00  0.00000E+00  9.000E+00
      25     1     1     2     0     0  1.162456177E+02 -8.617395472E+00  1.516958518E+00  1.709228022E+02  1.250000000E+02  0.00000E+00  9.000E+00
      25     1     1     2     0     0 -1.289922691E+02  6.910200081E+00 -5.349946884E+02  5.643855712E+02  1.250000000E+02  0.00000E+00  9.000E+00
       2     1     1     2   502     0  1.274665136E+01  1.707195391E+00 -2.894044696E+03  2.894073271E+03  6.103515625E-05  0.00000E+00  9.000E+00
#rwgt            1           1   4.5115010213156087E-002           4      294448           0
</event>
<event>
      5   9999  3.79277E-02  3.57941E+01 -1.00000E+00  1.47897E-01
      21    -1     0     0   511   501  0.000000000E+00  0.000000000E+00  4.761305887E+01  4.761305887E+01  0.000000000E+00  0.00000E+00  9.000E+00
      21    -1     0     0   501   502  0.000000000E+00  0.000000000E+00 -8.094880159E+02  8.094880159E+02  0.000000000E+00  0.00000E+00  9.000E+00
      25     1     1     2     0     0  2.110185456E+01  4.119695677E+01 -1.130086874E+02  1.747525134E+02  1.250000000E+02  0.00000E+00  9.000E+00
      25     1     1     2     0     0 -4.906317849E+01 -6.354387734E+01 -6.163138478E+02  6.339659130E+02  1.250000000E+02  0.00000E+00  9.000E+00
      21     1     1     2   511   502  2.796132393E+01  2.234692057E+01 -3.255242177E+01  4.838264831E+01  8.259061849E-07  0.00000E+00  9.000E+00
#rwgt            1           1   3.5783858232589331E-002           4      294708           0
</event>
<event>
      5   9999  3.79277E-02  3.59507E+01 -1.00000E+00  1.47775E-01
      21    -1     0     0   512   501  0.000000000E+00  0.000000000E+00  2.370336946E+02  2.370336946E+02  0.000000000E+00  0.00000E+00  9.000E+00
      21    -1     0     0   501   502  0.000000000E+00  0.000000000E+00 -1.557828273E+02  1.557828273E+02  0.000000000E+00  0.00000E+00  9.000E+00
      25     1     1     2     0     0  1.109440822E+02  4.902557660E+01 -1.311539819E+01  1.746685725E+02  1.250000000E+02  0.00000E+00  9.000E+00
      25     1     1     2     0     0 -9.995182320E+01 -1.479655188E+01  7.707276476E+01  1.782540770E+02  1.250000000E+02  0.00000E+00  9.000E+00
      21     1     1     2   512   502 -1.099225901E+01 -3.422902472E+01  1.729350064E+01  3.989387241E+01  4.129530925E-07  0.00000E+00  9.000E+00
#rwgt            1           1   4.1552135040319002E-002           4      294795           0
</event>
<event>
      5   9999  3.79277E-02  4.21332E+01 -1.00000E+00  1.43455E-01
      21    -1     0     0   502   501  0.000000000E+00  0.000000000E+00  1.502439289E+02  1.502439289E+02  0.000000000E+00  0.00000E+00  9.000E+00
      -2    -1     0     0     0   502  0.000000000E+00  0.000000000E+00 -9.454308696E+02  9.454308696E+02  0.000000000E+00  0.00000E+00  9.000E+00
      25     1     1     2     0     0  1.298981417E+02  1.656149666E+01  5.076203034E+01  1.880148773E+02  1.250000000E+02  0.00000E+00  9.000E+00
      25     1     1     2     0     0 -9.834105253E+01 -4.447840296E+01 -1.958047427E+02  2.561518850E+02  1.250000000E+02  0.00000E+00  9.000E+00
      -2     1     1     2     0   501 -3.155708914E+01  2.791690630E+01 -6.501442284E+02  6.515080362E+02  0.000000000E+00  0.00000E+00  9.000E+00
#rwgt            1           1   3.7040902170257121E-002           4      294923           0
</event>
<event>
      5   9999  3.79277E-02  9.92450E+01 -1.00000E+00  1.23976E-01
       1    -1     0     0   502     0  0.000000000E+00  0.000000000E+00  3.484080723E+03  3.484080723E+03  0.000000000E+00  0.00000E+00  9.000E+00
      21    -1     0     0   501   502  0.000000000E+00  0.000000000E+00 -2.504910501E+01  2.504910501E+01  0.000000000E+00  0.00000E+00  9.000E+00
      25     1     1     2     0     0  1.247557983E+02 -3.233358386E+01  9.643465713E+02  9.809173153E+02  1.250000000E+02  0.00000E+00  9.000E+00
      25     1     1     2     0     0 -2.843399351E+01  5.624343496E+01  2.975329896E+02  3.288201573E+02  1.250000000E+02  0.00000E+00  9.000E+00
       1     1     1     2   501     0 -9.632180475E+01 -2.390985110E+01  2.197152057E+03  2.199392355E+03  4.315837288E-05  0.00000E+00  9.000E+00
#rwgt            1           1   3.3639236626896628E-002           4      295021           0
</event>
<event>
      5   9999  3.79277E-02  1.06729E+02 -1.00000E+00  1.22569E-01
      21    -1     0     0   511   501  0.000000000E+00  0.000000000E+00  3.111253706E+02  3.111253706E+02  0.000000000E+00  0.00000E+00  9.000E+00
      21    -1     0     0   501   502  0.000000000E+00  0.000000000E+00 -2.437833652E+02  2.437833652E+02  0.000000000E+00  0.00000E+00  9.000E+00
      25     1     1     2     0     0  2.621423332E+01 -1.709419827E+02 -1.154913640E+02  2.426347103E+02  1.250000000E+02  0.00000E+00  9.000E+00
      25     1     1     2     0     0  3.392968073E+00  6.840153270E+01  1.311499964E+02  1.936894511E+02  1.250000000E+02  0.00000E+00  9.000E+00
      21     1     1     2   511   502 -2.960720139E+01  1.025404500E+02  5.168337303E+01  1.185845745E+02  1.907348633E-06  0.00000E+00  9.000E+00
#rwgt            1           1   4.0702417872665285E-002           4      295106           0
</event>
<event>
      5   9999  3.79277E-02  6.77344E+01 -1.00000E+00  1.31948E-01
      21    -1     0     0   502   501  0.000000000E+00  0.000000000E+00  1.278976206E+03  1.278976206E+03  0.000000000E+00  0.00000E+00  9.000E+00
      21    -1     0     0   501   512  0.000000000E+00  0.000000000E+00 -2.231831317E+02  2.231831317E+02  0.000000000E+00  0.00000E+00  9.000E+00
      25     1     1     2     0     0  3.502223871E+02 -1.557607800E+02  9.876724354E+02  1.066789098E+03  1.250000000E+02  0.00000E+00  9.000E+00
      25     1     1     2     0     0 -3.139343820E+02  9.856694739E+01  2.052477671E+01  3.525854588E+02  1.250000000E+02  0.00000E+00  9.000E+00
      21     1     1     2   502   512 -3.628800509E+01  5.719383258E+01  4.759586250E+01  8.278478076E+01  1.168007728E-06  0.00000E+00  9.000E+00
#rwgt            1           1   7.4098957511067945E-002           4      295224           0
</event>
<event>
      5   9999  3.79277E-02  4.03625E+01 -1.00000E+00  1.44598E-01
      21    -1     0     0   502   511  0.000000000E+00  0.000000000E+00  3.264461017E+02  3.264461017E+02  0.000000000E+00  0.00000E+00  9.000E+00
      21    -1     0     0   501   502  0.000000000E+00  0.000000000E+00 -5.268910031E+02  5.268910031E+02  0.000000000E+00  0.00000E+00  9.000E+00
      25     1     1     2     0     0  1.016753139E+02 -2.348944238E+02 -1.745709717E+01  2.853822174E+02  1.250000000E+02  0.00000E+00  9.000E+00
      25     1     1     2     0     0 -6.171348325E+01  2.405675104E+02 -3.207018220E+02  4.244478056E+02  1.250000000E+02  0.00000E+00  9.000E+00
      21     1     1     2   501   511 -3.996183062E+01 -5.673086572E+00  1.377140178E+02  1.435070818E+02  2.697398305E-06  0.00000E+00  9.000E+00
#rwgt            1           1  0.11200412010676963                4      295339           0
</event>
<event>
      5   9999  3.79277E-02  1.19704E+01 -1.00000E+00  1.87141E-01
      21    -1     0     0   502   501  0.000000000E+00  0.000000000E+00  2.217070186E+02  2.217070186E+02  0.000000000E+00  0.00000E+00  9.000E+00
      21    -1     0     0   501   512  0.000000000E+00  0.000000000E+00 -2.145816640E+02  2.145816640E+02  0.000000000E+00  0.00000E+00  9.000E+00
      25     1     1     2     0     0  9.331684689E+01 -2.926840006E+01  1.339907171E+02  2.077093773E+02  1.250000000E+02  0.00000E+00  9.000E+00
      25     1     1     2     0     0 -8.246464652E+01  2.421669243E+01 -6.410151635E+01  1.646841538E+02  1.250000000E+02  0.00000E+00  9.000E+00
      21     1     1     2   502   512 -1.085220037E+01  5.051707627E+00 -6.276384612E+01  6.389515148E+01  9.536743164E-07  0.00000E+00  9.000E+00
#rwgt            1           1   3.2468400170423808E-002           4      295593           0
</event>
<event>
      5   9999  3.79277E-02  1.91743E+01 -1.00000E+00  1.67894E-01
      21    -1     0     0   511   501  0.000000000E+00  0.000000000E+00  3.192322251E+02  3.192322251E+02  0.000000000E+00  0.00000E+00  9.000E+00
      21    -1     0     0   501   502  0.000000000E+00  0.000000000E+00 -3.483978437E+02  3.483978437E+02  0.000000000E+00  0.00000E+00  9.000E+00
      25     1     1     2     0     0  1.568934429E+02 -1.334453216E+02  1.213956538E+02  2.697871587E+02  1.250000000E+02  0.00000E+00  9.000E+00
      25     1     1     2     0     0 -1.535217899E+02  1.523208213E+02 -2.156425227E+02  3.299958639E+02  1.250000000E+02  0.00000E+00  9.000E+00
      21     1     1     2   511   502 -3.371652964E+00 -1.887549970E+01  6.508125030E+01  6.784704617E+01  9.536743164E-07  0.00000E+00  9.000E+00
#rwgt            1           1  0.19189287454070841                4      295979           0
</event>
<event>
      5   9999  3.79277E-02  2.36150E+01 -1.00000E+00  1.60627E-01
      21    -1     0     0   512   501  0.000000000E+00  0.000000000E+00  1.732133752E+02  1.732133752E+02  0.000000000E+00  0.00000E+00  9.000E+00
      21    -1     0     0   501   502  0.000000000E+00  0.000000000E+00 -2.708293564E+02  2.708293564E+02  0.000000000E+00  0.00000E+00  9.000E+00
      25     1     1     2     0     0 -1.366188217E+01  1.102629628E+02 -1.796014952E+02  2.454104013E+02  1.250000000E+02  0.00000E+00  9.000E+00
      25     1     1     2     0     0  8.585025322E+00 -8.720015187E+01  5.378470996E+01  1.618498198E+02  1.250000000E+02  0.00000E+00  9.000E+00
      21     1     1     2   512   502  5.076856851E+00 -2.306281096E+01  2.820080405E+01  3.678251044E+01  5.840038640E-07  0.00000E+00  9.000E+00
#rwgt            1           1   3.6552096142276495E-002           4      296153           0
</event>
<event>
      5   9999  3.79277E-02  3.13555E+02 -1.00000E+00  1.04972E-01
      21    -1     0     0   502   511  0.000000000E+00  0.000000000E+00  5.322467227E+02  5.322467227E+02  0.000000000E+00  0.00000E+00  9.000E+00
      21    -1     0     0   501   502  0.000000000E+00  0.000000000E+00 -5.568024651E+02  5.568024651E+02  0.000000000E+00  0.00000E+00  9.000E+00
      25     1     1     2     0     0 -3.159682306E+02 -1.510774132E+02 -2.099126638E+01  3.724593143E+02  1.250000000E+02  0.00000E+00  9.000E+00
      25     1     1     2     0     0  7.233329418E+01  3.484577689E+02 -9.688133213E+01  3.894430828E+02  1.250000000E+02  0.00000E+00  9.000E+00
      21     1     1     2   501   511  2.436349364E+02 -1.973803557E+02  9.331685606E+01  3.271467908E+02  1.907348633E-06  0.00000E+00  9.000E+00
#rwgt            2          11   1.7849459487389930E-003           4      296326           0
</event>
<event>
      5   9999  3.79277E-02  1.46451E+01 -1.00000E+00  1.78369E-01
      21    -1     0     0   512   501  0.000000000E+00  0.000000000E+00  1.415455545E+02  1.415455545E+02  0.000000000E+00  0.00000E+00  9.000E+00
      21    -1     0     0   501   502  0.000000000E+00  0.000000000E+00 -4.463101644E+02  4.463101644E+02  0.000000000E+00  0.00000E+00  9.000E+00
      25     1     1     2     0     0  1.287266722E+02 -4.411724762E+01 -4.321340097E+01  1.897611280E+02  1.250000000E+02  0.00000E+00  9.000E+00
      25     1     1     2     0     0 -1.216741962E+02  5.695240822E+01 -3.029443583E+02  3.541870565E+02  1.250000000E+02  0.00000E+00  9.000E+00
      21     1     1     2   512   502 -7.052476050E+00 -1.283516060E+01  4.139314934E+01  4.390753441E+01  1.430511475E-06  0.00000E+00  9.000E+00
#rwgt            1           1   3.9124544007649413E-002           4      296361           0
</event>
<event>
      5   9999  3.79277E-02  9.50150E+00 -1.00000E+00  1.98360E-01
      21    -1     0     0   502   501  0.000000000E+00  0.000000000E+00  4.079808928E+02  4.079808928E+02  0.000000000E+00  0.00000E+00  9.000E+00
       2    -1     0     0   501     0  0.000000000E+00  0.000000000E+00 -5.244953444E+02  5.244953444E+02  0.000000000E+00  0.00000E+00  9.000E+00
      25     1     1     2     0     0 -1.224948146E+02 -1.749902003E+02  2.367870690E+02  3.425195846E+02  1.250000000E+02  0.00000E+00  9.000E+00
      25     1     1     2     0     0  1.182817469E+02  1.664738317E+02 -2.926537254E+00  2.394528616E+02  1.250000000E+02  0.00000E+00  9.000E+00
       2     1     1     2   502     0  4.213067650E+00  8.516368559E+00 -3.503749834E+02  3.505037909E+02  3.814697266E-06  0.00000E+00  9.000E+00
#rwgt            1           1   4.8281074770529508E-002           4      296548           0
</event>
<event>
      5   9999  3.79277E-02  1.44966E+02 -1.00000E+00  1.16984E-01
      21    -1     0     0   511   501  0.000000000E+00  0.000000000E+00  1.343914208E+03  1.343914208E+03  0.000000000E+00  0.00000E+00  9.000E+00
      21    -1     0     0   501   502  0.000000000E+00  0.000000000E+00 -7.759183525E+01  7.759183525E+01  0.000000000E+00  0.00000E+00  9.000E+00
      25     1     1     2     0     0 -2.869910804E+00 -6.834025581E+01  3.284874022E+01  1.462281323E+02  1.250000000E+02  0.00000E+00  9.000E+00
      25     1     1     2     0     0  1.101132230E+02 -2.919968488E+01  5.064440856E+02  5.339364712E+02  1.250000000E+02  0.00000E+00  9.000E+00
      21     1     1     2   511   502 -1.072433122E+02  9.753994070E+01  7.270295465E+02  7.413414392E+02  1.525878906E-05  0.00000E+00  9.000E+00
#rwgt            1           1   4.8578226207842884E-002           4      296799           0
</event>
<event>
      5   9999  3.79277E-02  9.65009E+01 -1.00000E+00  1.24528E-01
      21    -1     0     0   502   501  0.000000000E+00  0.000000000E+00  1.726103124E+03  1.726103124E+03  0.000000000E+00  0.00000E+00  9.000E+00
      21    -1     0     0   501   512  0.000000000E+00  0.000000000E+00 -1.687611196E+02  1.687611196E+02  0.000000000E+00  0.00000E+00  9.000E+00
      25     1     1     2     0     0 -7.308686607E+00  1.506427953E+02  4.166889931E+02  4.604360821E+02  1.250000000E+02  0.00000E+00  9.000E+00
      25     1     1     2     0     0  7.845531814E+01 -2.158392229E+02  1.256635469E+03  1.283549574E+03  1.250000000E+02  0.00000E+00  9.000E+00
      21     1     1     2   502   512 -7.114663153E+01  6.519642763E+01 -1.159824583E+02  1.508785869E+02  1.348699152E-06  0.00000E+00  9.000E+00
#rwgt            1           1  0.10107262461652516                4      296855           0
</event>
<event>
      5   9999  3.79277E-02  1.12249E+02 -1.00000E+00  1.21612E-01
      -1    -1     0     0     0   501  0.000000000E+00  0.000000000E+00  1.899526404E+02  1.899526404E+02  0.000000000E+00  0.00000E+00  9.000E+00
      21    -1     0     0   501   502  0.000000000E+00  0.000000000E+00 -7.257233221E+02  7.257233221E+02  0.000000000E+00  0.00000E+00  9.000E+00
      25     1     1     2     0     0  1.633711112E+02  3.884196530E+00 -6.494930030E+01  2.157512887E+02  1.250000000E+02  0.00000E+00  9.000E+00
      25     1     1     2     0     0 -2.715893558E+02 -3.369441915E+01 -5.003634210E+02  5.838532737E+02  1.250000000E+02  0.00000E+00  9.000E+00
      -1     1     1     2     0   502  1.082182446E+02  2.981022262E+01  2.954203963E+01  1.160714002E+02  1.390207266E-06  0.00000E+00  9.000E+00
#rwgt            1           1  0.15963504264256831                4      296903           0
</event>
<event>
      5   9999  3.79277E-02  6.43023E+01 -1.00000E+00  1.33116E-01
      21    -1     0     0   502   501  0.000000000E+00  0.000000000E+00  3.474065165E+02  3.474065165E+02  0.000000000E+00  0.00000E+00  9.000E+00
      21    -1     0     0   501   511  0.000000000E+00  0.000000000E+00 -2.215618416E+02  2.215618416E+02  0.000000000E+00  0.00000E+00  9.000E+00
      25     1     1     2     0     0  5.326309295E+01 -1.437591751E+01  2.650079713E+02  2.981574231E+02  1.250000000E+02  0.00000E+00  9.000E+00
      25     1     1     2     0     0  1.096155009E+01  1.121651331E+01 -9.815891462E+00  1.263618513E+02  1.250000000E+02  0.00000E+00  9.000E+00
      21     1     1     2   502   511 -6.422464305E+01  3.159404197E+00 -1.293474049E+02  1.444490837E+02  0.000000000E+00  0.00000E+00  9.000E+00
#rwgt            1           1   4.0050466834068710E-002           4      296963           0
</event>
<event>
      5   9999  3.79277E-02  7.61958E+01 -1.00000E+00  1.29382E-01
      21    -1     0     0   502   512  0.000000000E+00  0.000000000E+00  7.095267695E+01  7.095267695E+01  0.000000000E+00  0.00000E+00  9.000E+00
      21    -1     0     0   501   502  0.000000000E+00  0.000000000E+00 -2.918198836E+03  2.918198836E+03  0.000000000E+00  0.00000E+00  9.000E+00
      25     1     1     2     0     0  5.153341637E+00 -1.229954150E+02 -4.747696355E+02  5.061478399E+02  1.250000000E+02  0.00000E+00  9.000E+00
      25     1     1     2     0     0 -1.286305683E+01  1.988001412E+02 -2.392651311E+03  2.404182241E+03  1.250000000E+02  0.00000E+00  9.000E+00
      21     1     1     2   501   512  7.709715189E+00 -7.580472615E+01  2.017478646E+01  7.882143252E+01  1.305872339E-06  0.00000E+00  9.000E+00
#rwgt            1           1   1.8736172622103288E-002           4      297065           0
</event>
<event>
      5   9999  3.79277E-02  4.22385E+01 -1.00000E+00  1.43389E-01
      21    -1     0     0   502   511  0.000000000E+00  0.000000000E+00  3.040845942E+02  3.040845942E+02  0.000000000E+00  0.00000E+00  9.000E+00
      21    -1     0     0   501   502  0.000000000E+00  0.000000000E+00 -6.393125538E+02  6.393125538E+02  0.000000000E+00  0.00000E+00  9.000E+00
      25     1     1     2     0     0 -3.738957675E+01 -5.093126775E+01 -1.030032954E+02  1.738581414E+02  1.250000000E+02  0.00000E+00  9.000E+00
      25     1     1     2     0     0  1.649047527E+01  1.422546756E+01 -4.911072472E+02  5.072333072E+02  1.250000000E+02  0.00000E+00  9.000E+00
      21     1     1     2   501   511  2.089910148E+01  3.670580020E+01  2.588825829E+02  2.623056994E+02  5.394796609E-06  0.00000E+00  9.000E+00
#rwgt            1           1   5.6741162114314063E-002           4      297122           0
</event>
<event>
      5   9999  3.79277E-02  3.38956E+01 -1.00000E+00  1.49446E-01
      21    -1     0     0   502   512  0.000000000E+00  0.000000000E+00  1.050095898E+02  1.050095898E+02  0.000000000E+00  0.00000E+00  9.000E+00
      21    -1     0     0   501   502  0.000000000E+00  0.000000000E+00 -4.010626852E+02  4.010626852E+02  0.000000000E+00  0.00000E+00  9.000E+00
      25     1     1     2     0     0 -5.468111127E+00  1.534646801E+02 -1.404246844E+02  2.427455463E+02  1.250000000E+02  0.00000E+00  9.000E+00
      25     1     1     2     0     0  7.929246185E+00 -1.196585862E+02 -1.496394792E+02  2.289061466E+02  1.250000000E+02  0.00000E+00  9.000E+00
      21     1     1     2   501   512 -2.461135057E+00 -3.380609387E+01 -5.988931772E+00  3.442058211E+01  5.057621821E-07  0.00000E+00  9.000E+00
#rwgt            1           1   5.1926509642663848E-002           4      297264           0
</event>
<event>
      5   9999  3.79277E-02  1.56358E+01 -1.00000E+00  1.75702E-01
      21    -1     0     0   502   501  0.000000000E+00  0.000000000E+00  1.427335491E+01  1.427335491E+01  0.000000000E+00  0.00000E+00  9.000E+00
      21    -1     0     0   501   511  0.000000000E+00  0.000000000E+00 -2.704714911E+03  2.704714911E+03  0.000000000E+00  0.00000E+00  9.000E+00
      25     1     1     2     0     0 -3.672490070E+01  6.002712234E+01 -1.824199394E+03  1.829830704E+03  1.250000000E+02  0.00000E+00  9.000E+00
      25     1     1     2     0     0  2.132646206E+01 -6.274097148E+01 -4.308402442E+02  4.534749866E+02  1.250000000E+02  0.00000E+00  9.000E+00
      21     1     1     2   502   511  1.539843864E+01  2.713849142E+00 -4.354019175E+02  4.356825756E+02  5.394796609E-06  0.00000E+00  9.000E+00
#rwgt            1           1   8.0067812950789699E-002           4      297578           0
</event>
<event>
      5   9999  3.79277E-02  2.26054E+01 -1.00000E+00  1.62097E-01
      21    -1     0     0   512   501  0.000000000E+00  0.000000000E+00  1.202679247E+03  1.202679247E+03  0.000000000E+00  0.00000E+00  9.000E+00
      21    -1     0     0   501   502  0.000000000E+00  0.000000000E+00 -7.096168988E+01  7.096168988E+01  0.000000000E+00  0.00000E+00  9.000E+00
      25     1     1     2     0     0 -5.046760196E+01  2.713587319E+00  4.767880827E+00  1.349150662E+02  1.250000000E+02  0.00000E+00  9.000E+00
      25     1     1     2     0     0  3.475976848E+01 -1.896996154E+01  7.719307561E+02  7.829879904E+02  1.250000000E+02  0.00000E+00  9.000E+00
      21     1     1     2   512   502  1.570783348E+01  1.625637422E+01  3.550189206E+02  3.557378806E+02  6.607249480E-06  0.00000E+00  9.000E+00
#rwgt            1           1   4.1627466379270985E-002           4      297787           0
</event>
<event>
      5   9999  3.79277E-02  2.61765E+01 -1.00000E+00  1.57269E-01
      21    -1     0     0   502   511  0.000000000E+00  0.000000000E+00  3.951106271E+02  3.951106271E+02  0.000000000E+00  0.00000E+00  9.000E+00
      21    -1     0     0   501   502  0.000000000E+00  0.000000000E+00 -1.789115227E+02  1.789115227E+02  0.000000000E+00  0.00000E+00  9.000E+00
      25     1     1     2     0     0 -1.522193070E+02  3.529140389E+01  2.600683961E+02  3.281413891E+02  1.250000000E+02  0.00000E+00  9.000E+00
      25     1     1     2     0     0  1.452257932E+02 -1.006637185E+01 -7.428220598E+01  2.057540011E+02  1.250000000E+02  0.00000E+00  9.000E+00
      21     1     1     2   501   511  6.993513794E+00 -2.522503204E+01  3.041291432E+01  4.012675958E+01  0.000000000E+00  0.00000E+00  9.000E+00
#rwgt            1           1   3.5065905317004632E-002           4      298106           0
</event>
<event>
      5   9999  3.79277E-02  1.02550E+01 -1.00000E+00  1.94502E-01
      21    -1     0     0   502   501  0.000000000E+00  0.000000000E+00  1.750257690E+03  1.750257690E+03  0.000000000E+00  0.00000E+00  9.000E+00
      21    -1     0     0   512   502  0.000000000E+00  0.000000000E+00 -2.236764505E+01  2.236764505E+01  0.000000000E+00  0.00000E+00  9.000E+00
      25     1     1     2     0     0 -1.074178055E+01  1.137940501E+02  1.123639092E+03  1.136333701E+03  1.250000000E+02  0.00000E+00  9.000E+00
      25     1     1     2     0     0  6.141564216E+00 -1.229593448E+02  6.001120682E+02  6.252329275E+02  1.250000000E+02  0.00000E+00  9.000E+00
      21     1     1     2   512   501  4.600216337E+00  9.165294749E+00  4.138884951E+00  1.105870638E+01  0.000000000E+00  0.00000E+00  9.000E+00
#rwgt            1           1  0.15173510930264295                4      298267           0
</event>
<event>
      5   9999 -3.79277E-02  2.77050E+01 -1.00000E+00  1.55480E-01
       1    -1     0     0   502     0  0.000000000E+00  0.000000000E+00  1.787357899E+02  1.787357899E+02  0.000000000E+00  0.00000E+00  9.000E+00
      21    -1     0     0   501   502  0.000000000E+00  0.000000000E+00 -8.318608563E+02  8.318608563E+02  0.000000000E+00  0.00000E+00  9.000E+00
      25     1     1     2     0     0  1.308482464E+02 -1.633787101E+02 -2.966699084E+02  3.839946628E+02  1.250000000E+02  0.00000E+00  9.000E+00
      25     1     1     2     0     0 -1.031976681E+02  1.651142888E+02 -4.624184562E+02  5.170767019E+02  1.250000000E+02  0.00000E+00  9.000E+00
       1     1     1     2   501     0 -2.765057828E+01 -1.735578624E+00  1.059632982E+02  1.095252815E+02  0.000000000E+00  0.00000E+00  9.000E+00
#rwgt            1           1 -0.16750929882856649                4      298531           0
</event>
<event>
      5   9999  3.79277E-02  2.76967E+01 -1.00000E+00  1.55489E-01
      21    -1     0     0   511   501  0.000000000E+00  0.000000000E+00  1.580796950E+02  1.580796950E+02  0.000000000E+00  0.00000E+00  9.000E+00
      21    -1     0     0   501   502  0.000000000E+00  0.000000000E+00 -1.966753301E+03  1.966753301E+03  0.000000000E+00  0.00000E+00  9.000E+00
      25     1     1     2     0     0 -1.021198377E+02 -1.744000959E+02 -1.175647186E+03  1.199422845E+03  1.250000000E+02  0.00000E+00  9.000E+00
      25     1     1     2     0     0  1.267206091E+02  1.871244107E+02 -7.562394810E+02  7.991225253E+02  1.250000000E+02  0.00000E+00  9.000E+00
      21     1     1     2   511   502 -2.460077134E+01 -1.272431479E+01  1.232130608E+02  1.262876260E+02  5.394796609E-06  0.00000E+00  9.000E+00
#rwgt            1           1   2.0694039809148471E-002           4      298835           0
</event>
<event>
      5   9999  3.79277E-02  3.86673E+01 -1.00000E+00  1.45759E-01
      21    -1     0     0   502   501  0.000000000E+00  0.000000000E+00  6.019117385E+02  6.019117385E+02  0.000000000E+00  0.00000E+00  9.000E+00
      21    -1     0     0   512   502  0.000000000E+00  0.000000000E+00 -1.424546782E+02  1.424546782E+02  0.000000000E+00  0.00000E+00  9.000E+00
      25     1     1     2     0     0  1.802834196E+02 -9.756180014E+01  1.381847919E+02  2.770206724E+02  1.250000000E+02  0.00000E+00  9.000E+00
      25     1     1     2     0     0 -1.778026178E+02  5.897415050E+01  3.520542572E+02  4.179221475E+02  1.250000000E+02  0.00000E+00  9.000E+00
      21     1     1     2   512   501 -2.480801759E+00  3.858764964E+01 -3.078198878E+01  4.942359675E+01  3.371747881E-07  0.00000E+00  9.000E+00
#rwgt            1           1  0.10453660795232875                4      298968           0
</event>
<event>
      5   9999  3.79277E-02  6.02211E+01 -1.00000E+00  1.34618E-01
      21    -1     0     0   502   511  0.000000000E+00  0.000000000E+00  5.539277495E+02  5.539277495E+02  0.000000000E+00  0.00000E+00  9.000E+00
      21    -1     0     0   501   502  0.000000000E+00  0.000000000E+00 -5.049251817E+02  5.049251817E+02  0.000000000E+00  0.00000E+00  9.000E+00
      25     1     1     2     0     0 -7.609814295E+01  3.760949097E+02 -6.763543204E+01  4.091917156E+02  1.250000000E+02  0.00000E+00  9.000E+00
      25     1     1     2     0     0  4.331687685E+01 -3.255778859E+02 -1.457477987E+02  3.804533249E+02  1.250000000E+02  0.00000E+00  9.000E+00
      21     1     1     2   501   511  3.278126610E+01 -5.051702375E+01  2.623857986E+02  2.692078907E+02  3.814697266E-06  0.00000E+00  9.000E+00
#rwgt            1           1  0.38041335387453140                4      299105           0
</event>
<event>
      5   9999  3.79277E-02  4.52402E+01 -1.00000E+00  1.41601E-01
      21    -1     0     0   512   501  0.000000000E+00  0.000000000E+00  1.281561262E+02  1.281561262E+02  0.000000000E+00  0.00000E+00  9.000E+00
      21    -1     0     0   501   502  0.000000000E+00  0.000000000E+00 -3.825197798E+02  3.825197798E+02  0.000000000E+00  0.00000E+00  9.000E+00
      25     1     1     2     0     0 -4.765503419E+01 -8.629737136E+01 -8.479918909E-02  1.591956211E+02  1.250000000E+02  0.00000E+00  9.000E+00
      25     1     1     2     0     0  8.727569762E+01  1.081348627E+02 -2.396786673E+02  3.039425266E+02  1.250000000E+02  0.00000E+00  9.000E+00
      21     1     1     2   512   502 -3.962066343E+01 -2.183749132E+01 -1.460018706E+01  4.753775826E+01  1.685873940E-07  0.00000E+00  9.000E+00
#rwgt            1           1   3.1455909126936875E-002           4      299273           0
</event>
<event>
      5   9999  3.79277E-02  2.40993E+01 -1.00000E+00  1.59954E-01
      21    -1     0     0   502   501  0.000000000E+00  0.000000000E+00  1.876891705E+03  1.876891705E+03  0.000000000E+00  0.00000E+00  9.000E+00
      -3    -1     0     0     0   502  0.000000000E+00  0.000000000E+00 -5.652379391E+01  5.652379391E+01  0.000000000E+00  0.00000E+00  9.000E+00
      25     1     1     2     0     0  9.760317455E+00 -4.168547864E+01  1.654521548E+03  1.659788991E+03  1.250000000E+02  0.00000E+00  9.000E+00
      25     1     1     2     0     0 -3.382045589E+01  4.031199566E+01  1.939117794E+02  2.366340179E+02  1.250000000E+02  0.00000E+00  9.000E+00
      -3     1     1     2     0   501  2.406013844E+01  1.373482979E+00 -2.806541620E+01  3.699248983E+01  2.105655877E-06  0.00000E+00  9.000E+00
#rwgt            1           1  0.10688581259495891                4      299434           0
</event>
<event>
      5   9999  3.79277E-02  4.77407E+01 -1.00000E+00  1.40231E-01
      21    -1     0     0   511   501  0.000000000E+00  0.000000000E+00  1.006916271E+02  1.006916271E+02  0.000000000E+00  0.00000E+00  9.000E+00
      21    -1     0     0   501   502  0.000000000E+00  0.000000000E+00 -6.249285538E+02  6.249285538E+02  0.000000000E+00  0.00000E+00  9.000E+00
      25     1     1     2     0     0  2.516665270E+01 -3.832839657E+01 -5.164253032E+02  5.333127789E+02  1.250000000E+02  0.00000E+00  9.000E+00
      25     1     1     2     0     0  8.916490873E+00  7.175762753E+01 -5.905115803E+00  1.445286522E+02  1.250000000E+02  0.00000E+00  9.000E+00
      21     1     1     2   511   502 -3.408314357E+01 -3.342923095E+01 -1.906507659E+00  4.777874977E+01  1.139329961E-06  0.00000E+00  9.000E+00
#rwgt            2          11   1.8977837599790603E-003           4      299618           0
</event>
<event>
      5   9999  3.79277E-02  1.18373E+01 -1.00000E+00  1.87654E-01
      21    -1     0     0   502   501  0.000000000E+00  0.000000000E+00  7.509714266E+01  7.509714266E+01  0.000000000E+00  0.00000E+00  9.000E+00
      21    -1     0     0   501   512  0.000000000E+00  0.000000000E+00 -5.891101974E+02  5.891101974E+02  0.000000000E+00  0.00000E+00  9.000E+00
      25     1     1     2     0     0  8.814065441E+01  5.826481509E+01 -4.265769181E+02  4.568987095E+02  1.250000000E+02  0.00000E+00  9.000E+00
      25     1     1     2     0     0 -9.640522399E+01 -6.673938116E+01 -6.765480940E+01  1.842560323E+02  1.250000000E+02  0.00000E+00  9.000E+00
      21     1     1     2   502   512  8.264569584E+00  8.474566069E+00 -1.978132721E+01  2.305259826E+01  3.371747881E-07  0.00000E+00  9.000E+00
#rwgt            1           1   3.5735858861105897E-002           4      299773           0
</event>
<event>
      5   9999  3.79277E-02  4.88187E+01 -1.00000E+00  1.39671E-01
      21    -1     0     0   502   511  0.000000000E+00  0.000000000E+00  1.750049403E+02  1.750049403E+02  0.000000000E+00  0.00000E+00  9.000E+00
      21    -1     0     0   501   502  0.000000000E+00  0.000000000E+00 -4.828200197E+02  4.828200197E+02  0.000000000E+00  0.00000E+00  9.000E+00
      25     1     1     2     0     0  4.713669814E+01  1.764322572E+02 -3.566376753E+02  4.197209086E+02  1.250000000E+02  0.00000E+00  9.000E+00
      25     1     1     2     0     0 -4.210508415E+01 -1.278735747E+02  4.496547677E+01  1.891332422E+02  1.250000000E+02  0.00000E+00  9.000E+00
      21     1     1     2   501   511 -5.031613984E+00 -4.855868251E+01  3.857119106E+00  4.897080921E+01  6.583548198E-07  0.00000E+00  9.000E+00
#rwgt            1           1   3.4542877661160501E-002           4      300034           0
</event>
<event>
      5   9999  3.79277E-02  5.41140E+01 -1.00000E+00  1.37144E-01
      21    -1     0     0   502   512  0.000000000E+00  0.000000000E+00  6.452930644E+02  6.452930644E+02  0.000000000E+00  0.00000E+00  9.000E+00
      21    -1     0     0   501   502  0.000000000E+00  0.000000000E+00 -1.011766899E+02  1.011766899E+02  0.000000000E+00  0.00000E+00  9.000E+00
      25     1     1     2     0     0  1.335579440E+02  1.285007386E+02  2.209138352E+02  3.142898134E+02  1.250000000E+02  0.00000E+00  9.000E+00
      25     1     1     2     0     0 -9.074771229E+01 -9.540078554E+01  1.101324842E+02  2.123455233E+02  1.250000000E+02  0.00000E+00  9.000E+00
      21     1     1     2   501   512 -4.281023167E+01 -3.309995307E+01  2.130700550E+02  2.198344177E+02  3.814697266E-06  0.00000E+00  9.000E+00
#rwgt            1           1   4.1045758277955348E-002           4      300133           0
</event>
<event>
      5   9999  3.79277E-02  1.53834E+02 -1.00000E+00  1.15961E-01
      21    -1     0     0   502   501  0.000000000E+00  0.000000000E+00  1.561314249E+03  1.561314249E+03  0.000000000E+00  0.00000E+00  9.000E+00
      21    -1     0     0   501   511  0.000000000E+00  0.000000000E+00 -1.003749080E+02  1.003749080E+02  0.000000000E+00  0.00000E+00  9.000E+00
      25     1     1     2     0     0  2.878548500E+02 -7.486302352E+01  1.004683344E+03  1.055214911E+03  1.250000000E+02  0.00000E+00  9.000E+00
      25     1     1     2     0     0 -1.424601228E+02  1.251137917E+02  3.579505974E+02  4.239127005E+02  1.250000000E+02  0.00000E+00  9.000E+00
      21     1     1     2   502   511 -1.453947271E+02 -5.025076816E+01  9.830540034E+01  1.825615461E+02  1.348699152E-06  0.00000E+00  9.000E+00
#rwgt            1           1   4.2092264784847490E-002           4      300215           0
</event>
<event>
      5   9999  3.79277E-02  4.97354E+00 -1.00000E+00  2.43003E-01
      21    -1     0     0   502   512  0.000000000E+00  0.000000000E+00  6.120950499E+01  6.120950499E+01  0.000000000E+00  0.00000E+00  9.000E+00
      21    -1     0     0   501   502  0.000000000E+00  0.000000000E+00 -8.669718837E+02  8.669718837E+02  0.000000000E+00  0.00000E+00  9.000E+00
      25     1     1     2     0     0 -2.883778894E+01 -1.130213638E+02 -6.820727685E+02  7.031740242E+02  1.250000000E+02  0.00000E+00  9.000E+00
      25     1     1     2     0     0  3.380532006E+01  1.132657983E+02 -1.309508906E+02  2.162060972E+02  1.250000000E+02  0.00000E+00  9.000E+00
      21     1     1     2   501   512 -4.967531119E+00 -2.444344672E-01  7.261280382E+00  8.801267319E+00  1.884864366E-07  0.00000E+00  9.000E+00
#rwgt            1           1   4.9807704218403318E-002           4      300325           0
</event>
<event>
      5   9999  3.79277E-02  1.74334E+01 -1.00000E+00  1.71446E-01
      21    -1     0     0   502   501  0.000000000E+00  0.000000000E+00  6.634963260E+01  6.634963260E+01  0.000000000E+00  0.00000E+00  9.000E+00
      21    -1     0     0   511   502  0.000000000E+00  0.000000000E+00 -1.059893904E+03  1.059893904E+03  0.000000000E+00  0.00000E+00  9.000E+00
      25     1     1     2     0     0 -2.420470159E+01 -8.592900335E+01 -4.140092031E+01  1.590870749E+02  1.250000000E+02  0.00000E+00  9.000E+00
      25     1     1     2     0     0  1.988966839E+01  6.903806342E+01 -7.160738218E+02  7.304440919E+02  1.250000000E+02  0.00000E+00  9.000E+00
      21     1     1     2   511   501  4.315033199E+00  1.689093994E+01 -2.360695289E+02  2.367123695E+02  2.697398305E-06  0.00000E+00  9.000E+00
#rwgt            1           1   4.3469020179484633E-002           4      300708           0
</event>
<event>
      5   9999  3.79277E-02  2.19544E+01 -1.00000E+00  1.63096E-01
      21    -1     0     0   512   501  0.000000000E+00  0.000000000E+00  2.018619461E+03  2.018619461E+03  0.000000000E+00  0.00000E+00  9.000E+00
      21    -1     0     0   501   502  0.000000000E+00  0.000000000E+00 -1.711199014E+01  1.711199014E+01  0.000000000E+00  0.00000E+00  9.000E+00
      25     1     1     2     0     0  1.057118741E+02 -2.639528775E+01  7.540750255E+02  7.720918699E+02  1.250000000E+02  0.00000E+00  9.000E+00
      25     1     1     2     0     0 -1.223695126E+02  4.069628987E+01  1.093872503E+03  1.108518172E+03  1.250000000E+02  0.00000E+00  9.000E+00
      21     1     1     2   512   502  1.665763851E+01 -1.430100213E+01  1.535599423E+02  1.551214088E+02  2.697398305E-06  0.00000E+00  9.000E+00
#rwgt            1           1  0.13892157911478295                4      300930           0
</event>
<event>
      5   9999  3.79277E-02  4.57001E+01 -1.00000E+00  1.41341E-01
      21    -1     0     0   502   501  0.000000000E+00  0.000000000E+00  7.011601382E+01  7.011601382E+01  0.000000000E+00  0.00000E+00  9.000E+00
      21    -1     0     0   511   502  0.000000000E+00  0.000000000E+00 -1.432584659E+03  1.432584659E+03  0.000000000E+00  0.00000E+00  9.000E+00
      25     1     1     2     0     0  7.330981213E+01  2.688858167E+02 -5.338846333E+02  6.150867522E+02  1.250000000E+02  0.00000E+00  9.000E+00
      25     1     1     2     0     0 -4.055875390E+01 -2.370131111E+02 -6.749100786E+02  7.272886920E+02  1.250000000E+02  0.00000E+00  9.000E+00
      21     1     1     2   511   501 -3.275105823E+01 -3.187270557E+01 -1.536739330E+02  1.603252284E+02  1.907348633E-06  0.00000E+00  9.000E+00
#rwgt            1           1   3.2304168963975588E-002           4      301196           0
</event>
<event>
      5   9999  3.79277E-02  1.29133E+02 -1.00000E+00  1.19032E-01
      21    -1     0     0   512   501  0.000000000E+00  0.000000000E+00  1.080453648E+03  1.080453648E+03  0.000000000E+00  0.00000E+00  9.000E+00
      21    -1     0     0   501   502  0.000000000E+00  0.000000000E+00 -2.869253209E+02  2.869253209E+02  0.000000000E+00  0.00000E+00  9.000E+00
      25     1     1     2     0     0  1.513293715E+02 -1.091910865E+02  1.999330786E+01  2.254950208E+02  1.250000000E+02  0.00000E+00  9.000E+00
      25     1     1     2     0     0 -1.295258031E+02 -1.808772632E+01 -1.340468786E+02  2.251614202E+02  1.250000000E+02  0.00000E+00  9.000E+00
      21     1     1     2   512   502 -2.180356840E+01  1.272788128E+02  9.075818978E+02  9.167225278E+02  0.000000000E+00  0.00000E+00  9.000E+00
#rwgt            2          11   3.0458991420286544E-003           4      301415           0
</event>
<event>
      5   9999  3.79277E-02  8.50543E+01 -1.00000E+00  1.27075E-01
      21    -1     0     0   502   501  0.000000000E+00  0.000000000E+00  7.166415087E+01  7.166415087E+01  0.000000000E+00  0.00000E+00  9.000E+00
      21    -1     0     0   501   511  0.000000000E+00  0.000000000E+00 -7.726308156E+02  7.726308156E+02  0.000000000E+00  0.00000E+00  9.000E+00
      25     1     1     2     0     0 -9.024141019E+01 -4.537016906E+01 -1.328516268E+02  2.085102374E+02  1.250000000E+02  0.00000E+00  9.000E+00
      25     1     1     2     0     0  1.557939693E+02 -8.824770587E+00 -3.821680010E+02  4.313084957E+02  1.250000000E+02  0.00000E+00  9.000E+00
      21     1     1     2   502   511 -6.555255913E+01  5.419493965E+01 -1.859470369E+02  2.044762334E+02  2.697398305E-06  0.00000E+00  9.000E+00
#rwgt            1           1   4.6504092189799999E-002           4      301435           0
</event>
<event>
      5   9999  3.79277E-02  1.49088E+02 -1.00000E+00  1.16499E-01
      21    -1     0     0   502   501  0.000000000E+00  0.000000000E+00  3.427476680E+02  3.427476680E+02  0.000000000E+00  0.00000E+00  9.000E+00
      -3    -1     0     0     0   502  0.000000000E+00  0.000000000E+00 -2.320093015E+02  2.320093015E+02  0.000000000E+00  0.00000E+00  9.000E+00
      25     1     1     2     0     0  2.113303491E+02 -9.671636495E+00  3.092666335E+01  2.476600806E+02  1.250000000E+02  0.00000E+00  9.000E+00
      25     1     1     2     0     0 -6.446623637E+01  3.532525735E+01  1.007066375E+02  1.765519648E+02  1.250000000E+02  0.00000E+00  9.000E+00
      -3     1     1     2     0   501 -1.468641128E+02 -2.565362086E+01 -2.089493430E+01  1.505449241E+02  2.477718555E-06  0.00000E+00  9.000E+00
#rwgt            1           1   3.3672543713553639E-002           4      301519           0
</event>
<event>
      5   9999  3.79277E-02  1.56304E+01 -1.00000E+00  1.75716E-01
      21    -1     0     0   502   511  0.000000000E+00  0.000000000E+00  2.499511394E+02  2.499511394E+02  0.000000000E+00  0.00000E+00  9.000E+00
      21    -1     0     0   501   502  0.000000000E+00  0.000000000E+00 -2.594469770E+02  2.594469770E+02  0.000000000E+00  0.00000E+00  9.000E+00
      25     1     1     2     0     0 -1.400673225E+02  1.651344543E+02  1.378486571E+00  2.500302843E+02  1.250000000E+02  0.00000E+00  9.000E+00
      25     1     1     2     0     0  1.246202479E+02 -1.675214105E+02 -1.239078436E+01  2.436640325E+02  1.250000000E+02  0.00000E+00  9.000E+00
      21     1     1     2   501   511  1.544707457E+01  2.386956248E+00  1.516460114E+00  1.570379967E+01  1.931411236E-07  0.00000E+00  9.000E+00
#rwgt            1           1   2.2605777456607447E-002           4      301761           0
</event>
<event>
      5   9999  3.79277E-02  1.34699E+02 -1.00000E+00  1.18276E-01
      21    -1     0     0   502   512  0.000000000E+00  0.000000000E+00  1.048667536E+03  1.048667536E+03  0.000000000E+00  0.00000E+00  9.000E+00
      21    -1     0     0   501   502  0.000000000E+00  0.000000000E+00 -3.286957957E+02  3.286957957E+02  0.000000000E+00  0.00000E+00  9.000E+00
      25     1     1     2     0     0  3.053763611E+01 -1.838210483E+02 -5.908807240E-01  2.243837654E+02  1.250000000E+02  0.00000E+00  9.000E+00
      25     1     1     2     0     0 -1.292213235E+02  9.213966499E+01 -1.627699906E+02  2.594358074E+02  1.250000000E+02  0.00000E+00  9.000E+00
      21     1     1     2   501   512  9.868368738E+01  9.168138334E+01  8.833326116E+02  8.935437589E+02  1.078959322E-05  0.00000E+00  9.000E+00
#rwgt            1           1   3.2458488256667604E-002           4      301992           0
</event>
<event>
      5   9999  3.79277E-02  2.65865E+02 -1.00000E+00  1.07325E-01
      21    -1     0     0   502   501  0.000000000E+00  0.000000000E+00  1.641528420E+02  1.641528420E+02  0.000000000E+00  0.00000E+00  9.000E+00
      21    -1     0     0   501   511  0.000000000E+00  0.000000000E+00 -1.354462220E+03  1.354462220E+03  0.000000000E+00  0.00000E+00  9.000E+00
      25     1     1     2     0     0 -2.073247325E+02  1.426013372E+02 -2.097149629E+02  3.506052649E+02  1.250000000E+02  0.00000E+00  9.000E+00
      25     1     1     2     0     0  5.512137660E+01  7.538619233E+01 -4.225697154E+00  1.560906809E+02  1.250000000E+02  0.00000E+00  9.000E+00
      21     1     1     2   502   511  1.522033559E+02 -2.179875296E+02 -9.763687179E+02  1.011919116E+03  1.868812365E-05  0.00000E+00  9.000E+00
#rwgt            1           1   2.7908905263613271E-002           4      302044           0
</event>
<event>
      5   9999  3.79277E-02  8.83354E+01 -1.00000E+00  1.26300E-01
      21    -1     0     0   502   501  0.000000000E+00  0.000000000E+00  2.614343641E+03  2.614343641E+03  0.000000000E+00  0.00000E+00  9.000E+00
      21    -1     0     0   512   502  0.000000000E+00  0.000000000E+00 -3.155745173E+01  3.155745173E+01  0.000000000E+00  0.00000E+00  9.000E+00
      25     1     1     2     0     0  2.092124263E+02 -7.671540013E+01  1.663352712E+03  1.682861354E+03  1.250000000E+02  0.00000E+00  9.000E+00
      25     1     1     2     0     0 -1.485073845E+02  1.254345953E+01  6.991444598E+02  7.256994951E+02  1.250000000E+02  0.00000E+00  9.000E+00
      21     1     1     2   512   501 -6.070504180E+01  6.417194061E+01  2.202890182E+02  2.373402444E+02  0.000000000E+00  0.00000E+00  9.000E+00
#rwgt            1           1   5.2528284626450324E-002           4      302076           0
</event>
<event>
      5   9999  3.79277E-02  5.98910E+01 -1.00000E+00  1.34746E-01
      21    -1     0     0   511   501  0.000000000E+00  0.000000000E+00  5.439858095E+02  5.439858095E+02  0.000000000E+00  0.00000E+00  9.000E+00
      21    -1     0     0   501   502  0.000000000E+00  0.000000000E+00 -3.918694189E+02  3.918694189E+02  0.000000000E+00  0.00000E+00  9.000E+00
      25     1     1     2     0     0 -6.229453075E+01  6.693489210E+01 -3.285520375E+02  3.632249023E+02  1.250000000E+02  0.00000E+00  9.000E+00
      25     1     1     2     0     0  1.017280233E+02 -2.185800289E+01  1.081186290E+02  1.952972118E+02  1.250000000E+02  0.00000E+00  9.000E+00
      21     1     1     2   511   502 -3.943349255E+01 -4.507688921E+01  3.725497992E+02  3.773331143E+02  5.394796609E-06  0.00000E+00  9.000E+00
#rwgt            1           1   3.3073491238862593E-002           4      302264           0
</event>
<event>
      5   9999  3.79277E-02  1.12599E+02 -1.00000E+00  1.21554E-01
      21    -1     0     0   502   501  0.000000000E+00  0.000000000E+00  1.039778754E+02  1.039778754E+02  0.000000000E+00  0.00000E+00  9.000E+00
      21    -1     0     0   512   502  0.000000000E+00  0.000000000E+00 -7.583688181E+02  7.583688181E+02  0.000000000E+00  0.00000E+00  9.000E+00
      25     1     1     2     0     0  3.407279113E+01 -7.746652368E+01 -3.925789656E+02  4.206010718E+02  1.250000000E+02  0.00000E+00  9.000E+00
      25     1     1     2     0     0  7.852422611E+01  7.809445736E+01 -1.164675794E+01  1.674080205E+02  1.250000000E+02  0.00000E+00  9.000E+00
      21     1     1     2   512   501 -1.125970172E+02 -6.279336749E-01 -2.501652191E+02  2.743376012E+02  4.672030912E-06  0.00000E+00  9.000E+00
#rwgt            1           1   4.6253989119663164E-002           4      302435           0
</event>
<event>
      5   9999  3.79277E-02  1.99345E+01 -1.00000E+00  1.66487E-01
      21    -1     0     0   502   511  0.000000000E+00  0.000000000E+00  5.155787501E+02  5.155787501E+02  0.000000000E+00  0.00000E+00  9.000E+00
      21    -1     0     0   501   502  0.000000000E+00  0.000000000E+00 -2.209396404E+02  2.209396404E+02  0.000000000E+00  0.00000E+00  9.000E+00
      25     1     1     2     0     0  2.305575574E+02 -2.009441660E+02  8.588981136E+01  3.413757531E+02  1.250000000E+02  0.00000E+00  9.000E+00
      25     1     1     2     0     0 -2.141381334E+02  1.896399595E+02  1.805632574E+02  3.606196672E+02  1.250000000E+02  0.00000E+00  9.000E+00
      21     1     1     2   501   511 -1.641942391E+01  1.130420649E+01  2.818604100E+01  3.452297023E+01  3.371747881E-07  0.00000E+00  9.000E+00
#rwgt            1           1   3.7293273171262804E-002           4      302487           0
</event>
<event>
      5   9999 -3.79277E-02  2.82994E+01 -1.00000E+00  1.54821E-01
      21    -1     0     0   512   501  0.000000000E+00  0.000000000E+00  6.518619234E+02  6.518619234E+02  0.000000000E+00  0.00000E+00  9.000E+00
      21    -1     0     0   501   502  0.000000000E+00  0.000000000E+00 -5.477678415E+02  5.477678415E+02  0.000000000E+00  0.00000E+00  9.000E+00
      25     1     1     2     0     0  1.960650756E+02 -2.379554296E+02 -2.968917490E+02  4.459080746E+02  1.250000000E+02  0.00000E+00  9.000E+00
      25     1     1     2     0     0 -1.683143452E+02  2.435008103E+02 -2.916390590E+01  3.226420568E+02  1.250000000E+02  0.00000E+00  9.000E+00
      21     1     1     2   512   502 -2.775073042E+01 -5.545380697E+00  4.301497368E+02  4.310796334E+02  0.000000000E+00  0.00000E+00  9.000E+00
#rwgt            1           1  -7.7001983432852486E-002           4      302705           0
</event>
<event>
      5   9999  3.79277E-02  9.37265E+01 -1.00000E+00  1.25107E-01
      21    -1     0     0   502   511  0.000000000E+00  0.000000000E+00  1.373012016E+02  1.373012016E+02  0.000000000E+00  0.00000E+00  9.000E+00
      21    -1     0     0   501   502  0.000000000E+00  0.000000000E+00 -9.682682073E+02  9.682682073E+02  0.000000000E+00  0.00000E+00  9.000E+00
      25     1     1     2     0     0 -1.356648549E+02 -8.930904507E+01 -2.102904145E+02  2.936462444E+02  1.250000000E+02  0.00000E+00  9.000E+00
      25     1     1     2     0     0  2.292510558E+02  8.418276182E+01 -6.565502794E+02  7.115659164E+02  1.250000000E+02  0.00000E+00  9.000E+00
      21     1     1     2   501   511 -9.358620081E+01  5.126283249E+00  3.587368823E+01  1.003572482E+02  2.078484985E-06  0.00000E+00  9.000E+00
#rwgt            1           1   3.1069506869785258E-002           4      302878           0
</event>
<event>
      5   9999  3.79277E-02  1.97348E+01 -1.00000E+00  1.66849E-01
      21    -1     0     0   502   501  0.000000000E+00  0.000000000E+00  6.518573287E+02  6.518573287E+02  0.000000000E+00  0.00000E+00  9.000E+00
      21    -1     0     0   512   502  0.000000000E+00  0.000000000E+00 -1.499982393E+02  1.499982393E+02  0.000000000E+00  0.00000E+00  9.000E+00
      25     1     1     2     0     0 -1.866691736E+02  3.761433229E+01  2.035997185E+01  2.286913790E+02  1.250000000E+02  0.00000E+00  9.000E+00
      25     1     1     2     0     0  2.046429298E+02 -2.946521694E+01  4.939210335E+02  5.498453556E+02  1.250000000E+02  0.00000E+00  9.000E+00
      21     1     1     2   512   501 -1.797375618E+01 -8.149115350E+00 -1.242191606E+01  2.331883339E+01  4.768371582E-07  0.00000E+00  9.000E+00
#rwgt            1           1  0.14236621814077527                4      302958           0
</event>
<event>
      5   9999  3.79277E-02  7.58263E+01 -1.00000E+00  1.29486E-01
      21    -1     0     0   502   501  0.000000000E+00  0.000000000E+00  6.001651805E+01  6.001651805E+01  0.000000000E+00  0.00000E+00  9.000E+00
       2    -1     0     0   501     0  0.000000000E+00  0.000000000E+00 -1.646609349E+03  1.646609349E+03  0.000000000E+00  0.00000E+00  9.000E+00
      25     1     1     2     0     0 -4.222671016E+01 -2.414488518E+02 -4.980694425E+02  5.690156523E+02  1.250000000E+02  0.00000E+00  9.000E+00
      25     1     1     2     0     0 -2.725326811E+01  2.110817384E+02 -9.249395889E+02  9.573068913E+02  1.250000000E+02  0.00000E+00  9.000E+00
       2     1     1     2   502     0  6.947997827E+01  3.036711339E+01 -1.635837994E+02  1.803033232E+02  1.907348633E-06  0.00000E+00  9.000E+00
#rwgt            1           1   4.6504294177492508E-002           4      303198           0
</event>
<event>
      5   9999  3.79277E-02  3.25551E+01 -1.00000E+00  1.50614E-01
      21    -1     0     0   502   501  0.000000000E+00  0.000000000E+00  2.332695667E+02  2.332695667E+02  0.000000000E+00  0.00000E+00  9.000E+00
      21    -1     0     0   501   511  0.000000000E+00  0.000000000E+00 -4.760385626E+02  4.760385626E+02  0.000000000E+00  0.00000E+00  9.000E+00
      25     1     1     2     0     0  8.000420120E+01 -2.023233582E+02  6.570904728E+00  2.510051599E+02  1.250000000E+02  0.00000E+00  9.000E+00
      25     1     1     2     0     0 -4.974128108E+01  1.903236368E+02 -2.819034088E+01  2.347700515E+02  1.250000000E+02  0.00000E+00  9.000E+00
      21     1     1     2   502   511 -3.026292012E+01  1.199972139E+01 -2.211495597E+02  2.235329179E+02  2.697398305E-06  0.00000E+00  9.000E+00
#rwgt            1           1   5.0635895811464188E-002           4      303338           0
</event>
<event>
      5   9999  3.79277E-02  6.70469E+01 -1.00000E+00  1.32176E-01
      21    -1     0     0   502   501  0.000000000E+00  0.000000000E+00  1.520183393E+02  1.520183393E+02  0.000000000E+00  0.00000E+00  9.000E+00
      21    -1     0     0   512   502  0.000000000E+00  0.000000000E+00 -6.734836359E+02  6.734836359E+02  0.000000000E+00  0.00000E+00  9.000E+00
      25     1     1     2     0     0  1.019994463E+02  5.401643823E+01  6.417812914E+01  1.818392007E+02  1.250000000E+02  0.00000E+00  9.000E+00
      25     1     1     2     0     0 -6.647750750E+01 -1.108800685E+02 -5.184003247E+02  5.487053355E+02  1.250000000E+02  0.00000E+00  9.000E+00
      21     1     1     2   512   501 -3.552193875E+01  5.686363022E+01 -6.724310106E+01  9.495743896E+01  9.536743164E-07  0.00000E+00  9.000E+00
#rwgt            1           1   2.8446701555909334E-002           4      303465           0
</event>
<event>
      5   9999 -3.79277E-02  2.78841E+02 -1.00000E+00  1.06634E-01
      21    -1     0     0   511   501  0.000000000E+00  0.000000000E+00  1.802484977E+03  1.802484977E+03  0.000000000E+00  0.00000E+00  9.000E+00
      21    -1     0     0   501   502  0.000000000E+00  0.000000000E+00 -1.673485768E+02  1.673485768E+02  0.000000000E+00  0.00000E+00  9.000E+00
      25     1     1     2     0     0 -4.258996076E+02 -1.930957353E+02  4.207565353E+02  6.413559859E+02  1.250000000E+02  0.00000E+00  9.000E+00
      25     1     1     2     0     0  2.267262844E+02 -2.051577088E+00  5.466064562E+02  6.048244662E+02  1.250000000E+02  0.00000E+00  9.000E+00
      21     1     1     2   511   502  1.991733232E+02  1.951473124E+02  6.677734087E+02  7.236531016E+02  7.629394531E-06  0.00000E+00  9.000E+00
#rwgt            1           1  -5.1968524719651264E-002           4      303750           0
</event>
<event>
      5   9999  3.79277E-02  2.42647E+01 -1.00000E+00  1.59728E-01
      21    -1     0     0   502   501  0.000000000E+00  0.000000000E+00  5.696066410E+01  5.696066410E+01  0.000000000E+00  0.00000E+00  9.000E+00
      21    -1     0     0   501   512  0.000000000E+00  0.000000000E+00 -6.517738958E+02  6.517738958E+02  0.000000000E+00  0.00000E+00  9.000E+00
      25     1     1     2     0     0 -3.845030269E+01  5.481589903E+01 -4.474718780E+02  4.694031211E+02  1.250000000E+02  0.00000E+00  9.000E+00
      25     1     1     2     0     0  6.244936683E+01 -5.839668015E+01 -8.784348885E+01  1.750759098E+02  1.250000000E+02  0.00000E+00  9.000E+00
      21     1     1     2   502   512 -2.399906414E+01  3.580781118E+00 -5.949786492E+01  6.425552897E+01  6.743495762E-07  0.00000E+00  9.000E+00
#rwgt            1           1   4.2612402214292307E-002           4      303963           0
</event>
<event>
      5   9999  3.79277E-02  2.49362E+02 -1.00000E+00  1.08268E-01
      21    -1     0     0   502   501  0.000000000E+00  0.000000000E+00  3.402780373E+02  3.402780373E+02  0.000000000E+00  0.00000E+00  9.000E+00
      -3    -1     0     0     0   502  0.000000000E+00  0.000000000E+00 -5.272741545E+02  5.272741545E+02  0.000000000E+00  0.00000E+00  9.000E+00
      25     1     1     2     0     0 -1.697306011E+02  1.030695054E+02  2.332908612E+01  2.357987407E+02  1.250000000E+02  0.00000E+00  9.000E+00
      25     1     1     2     0     0 -1.588188302E+00 -2.842641549E+02 -8.009545984E+00  3.106409260E+02  1.250000000E+02  0.00000E+00  9.000E+00
      -3     1     1     2     0   501  1.713187894E+02  1.811946495E+02 -2.023156573E+02  3.211125251E+02  3.814697266E-06  0.00000E+00  9.000E+00
#rwgt            1           1   2.7191056048828290E-002           4      304131           0
</event>
<event>
      5   9999  3.79277E-02  9.14508E+01 -1.00000E+00  1.25599E-01
      21    -1     0     0   502   501  0.000000000E+00  0.000000000E+00  2.494193865E+03  2.494193865E+03  0.000000000E+00  0.00000E+00  9.000E+00
      21    -1     0     0   501   511  0.000000000E+00  0.000000000E+00 -1.281731064E+02  1.281731064E+02  0.000000000E+00  0.00000E+00  9.000E+00
      25     1     1     2     0     0  2.745030716E+02  2.576553029E+02  1.366266683E+03  1.422690353E+03  1.250000000E+02  0.00000E+00  9.000E+00
      25     1     1     2     0     0 -1.989690648E+02 -3.092098355E+02  1.032041067E+03  1.102693600E+03  1.250000000E+02  0.00000E+00  9.000E+00
      21     1     1     2   502   511 -7.553400678E+01  5.155453266E+01 -3.228699160E+01  9.698301833E+01  3.198720900E-06  0.00000E+00  9.000E+00
#rwgt            1           1  0.11725868826090489                4      304455           0
</event>
<event>
      5   9999  3.79277E-02  2.34084E+02 -1.00000E+00  1.09215E-01
      21    -1     0     0   502   501  0.000000000E+00  0.000000000E+00  1.378814361E+03  1.378814361E+03  0.000000000E+00  0.00000E+00  9.000E+00
      21    -1     0     0   512   502  0.000000000E+00  0.000000000E+00 -1.338504795E+02  1.338504795E+02  0.000000000E+00  0.00000E+00  9.000E+00
      25     1     1     2     0     0 -6.890651928E+01 -8.175534275E+01  9.391352089E+02  9.534316888E+02  1.250000000E+02  0.00000E+00  9.000E+00
      25     1     1     2     0     0 -1.641554547E+02  1.036086622E+02  1.846750672E+02  2.956546104E+02  1.250000000E+02  0.00000E+00  9.000E+00
      21     1     1     2   512   501  2.330619740E+02 -2.185331946E+01  1.211536049E+02  2.635785410E+02  5.223489356E-06  0.00000E+00  9.000E+00
#rwgt            2          11   2.1803514803333574E-003           4      304554           0
</event>
<event>
      5   9999  3.79277E-02  4.77896E+01 -1.00000E+00  1.40205E-01
      21    -1     0     0   502   501  0.000000000E+00  0.000000000E+00  4.194372852E+02  4.194372852E+02  0.000000000E+00  0.00000E+00  9.000E+00
       1    -1     0     0   501     0  0.000000000E+00  0.000000000E+00 -2.147242896E+03  2.147242896E+03  0.000000000E+00  0.00000E+00  9.000E+00
      25     1     1     2     0     0 -1.601132830E+01  6.542251167E+01  2.722819902E+02  3.070813408E+02  1.250000000E+02  0.00000E+00  9.000E+00
      25     1     1     2     0     0  2.687993005E+01 -1.119598459E+02  7.371407122E+01  1.852465979E+02  1.250000000E+02  0.00000E+00  9.000E+00
       1     1     1     2   502     0 -1.086860175E+01  4.653733419E+01 -2.073801672E+03  2.074352242E+03  3.051757812E-05  0.00000E+00  9.000E+00
#rwgt            1           1   5.0196570772714930E-002           4      304574           0
</event>
<event>
      5   9999  3.79277E-02  4.63315E+01 -1.00000E+00  1.40990E-01
      -5    -1     0     0     0   501  0.000000000E+00  0.000000000E+00  2.121738266E+02  2.121738266E+02  0.000000000E+00  0.00000E+00  9.000E+00
      21    -1     0     0   501   502  0.000000000E+00  0.000000000E+00 -1.125849814E+03  1.125849814E+03  0.000000000E+00  0.00000E+00  9.000E+00
      25     1     1     2     0     0  6.277162112E+01 -1.216873628E+02 -7.330258366E+02  7.561084365E+02  1.250000000E+02  0.00000E+00  9.000E+00
      25     1     1     2     0     0 -8.285600685E+01  7.993539491E+01 -3.592428147E+02  3.974106002E+02  1.250000000E+02  0.00000E+00  9.000E+00
      -5     1     1     2     0   502  2.008438573E+01  4.175196790E+01  1.785926637E+02  1.845046041E+02  3.303624740E-06  0.00000E+00  9.000E+00
#rwgt            1           1   4.7009554141442152E-002           4      304683           0
</event>
<event>
      5   9999  3.79277E-02  2.15664E+01 -1.00000E+00  1.63712E-01
      21    -1     0     0   511   501  0.000000000E+00  0.000000000E+00  3.824951503E+02  3.824951503E+02  0.000000000E+00  0.00000E+00  9.000E+00
      21    -1     0     0   501   502  0.000000000E+00  0.000000000E+00 -5.412711806E+02  5.412711806E+02  0.000000000E+00  0.00000E+00  9.000E+00
      25     1     1     2     0     0 -6.445506241E+01  2.307524737E+02  7.165625382E+01  2.795724913E+02  1.250000000E+02  0.00000E+00  9.000E+00
      25     1     1     2     0     0  4.464216023E+01 -2.222342658E+02 -3.982570052E+02  4.749890878E+02  1.250000000E+02  0.00000E+00  9.000E+00
      21     1     1     2   511   502  1.981290218E+01 -8.518207958E+00  1.678247212E+02  1.692047517E+02  2.697398305E-06  0.00000E+00  9.000E+00
#rwgt            1           1   3.7848549802579720E-002           4      304768           0
</event>
<event>
      5   9999  3.79277E-02  9.19220E+01 -1.00000E+00  1.25496E-01
       1    -1     0     0   502     0  0.000000000E+00  0.000000000E+00  1.641475903E+03  1.641475903E+03  0.000000000E+00  0.00000E+00  9.000E+00
      21    -1     0     0   501   502  0.000000000E+00  0.000000000E+00 -1.295465433E+02  1.295465433E+02  0.000000000E+00  0.00000E+00  9.000E+00
      25     1     1     2     0     0  2.932917427E+00  9.304770999E+01 -4.384478835E+01  1.619068986E+02  1.250000000E+02  0.00000E+00  9.000E+00
      25     1     1     2     0     0 -8.893703508E+01 -6.059871217E+01  2.463653800E+02  2.964842333E+02  1.250000000E+02  0.00000E+00  9.000E+00
       1     1     1     2   501     0  8.600411765E+01 -3.244899782E+01  1.309408768E+03  1.312631314E+03  2.642899792E-05  0.00000E+00  9.000E+00
#rwgt            1           1   4.5339146282050088E-002           4      305011           0
</event>
<event>
      5   9999  3.79277E-02  6.25569E+01 -1.00000E+00  1.33742E-01
      21    -1     0     0   502   501  0.000000000E+00  0.000000000E+00  2.165455396E+02  2.165455396E+02  0.000000000E+00  0.00000E+00  9.000E+00
      21    -1     0     0   511   502  0.000000000E+00  0.000000000E+00 -1.529583381E+03  1.529583381E+03  0.000000000E+00  0.00000E+00  9.000E+00
      25     1     1     2     0     0 -1.444785170E+02 -5.131049201E+01  1.328270915E+02  2.382747253E+02  1.250000000E+02  0.00000E+00  9.000E+00
      25     1     1     2     0     0  1.164521676E+02 -4.617014528E+00 -2.115606688E+02  2.719656977E+02  1.250000000E+02  0.00000E+00  9.000E+00
      21     1     1     2   511   501  2.802634940E+01  5.592750653E+01 -1.234304264E+03  1.235888498E+03  0.000000000E+00  0.00000E+00  9.000E+00
#rwgt            1           1   4.0529737891795516E-002           4      305092           0
</event>
<event>
      5   9999  3.79277E-02  2.89619E+01 -1.00000E+00  1.54110E-01
       2    -1     0     0   502     0  0.000000000E+00  0.000000000E+00  6.885028725E+02  6.885028725E+02  0.000000000E+00  0.00000E+00  9.000E+00
      21    -1     0     0   501   502  0.000000000E+00  0.000000000E+00 -1.118107669E+02  1.118107669E+02  0.000000000E+00  0.00000E+00  9.000E+00
      25     1     1     2     0     0  5.526296948E+01  1.103495540E+02  2.721940921E+02  3.239531504E+02  1.250000000E+02  0.00000E+00  9.000E+00
      25     1     1     2     0     0 -5.205669955E+01 -1.391334553E+02  2.544343215E+01  1.958070136E+02  1.250000000E+02  0.00000E+00  9.000E+00
       2     1     1     2   501     0 -3.206269931E+00  2.878390122E+01  2.790545813E+02  2.805534753E+02  3.814697266E-06  0.00000E+00  9.000E+00
#rwgt            1           1   3.8324676609633422E-002           4      305205           0
</event>
<event>
      5   9999  3.79277E-02  1.08953E+01 -1.00000E+00  1.91549E-01
      21    -1     0     0   502   501  0.000000000E+00  0.000000000E+00  4.525620302E+02  4.525620302E+02  0.000000000E+00  0.00000E+00  9.000E+00
      21    -1     0     0   501   511  0.000000000E+00  0.000000000E+00 -1.097188779E+02  1.097188779E+02  0.000000000E+00  0.00000E+00  9.000E+00
      25     1     1     2     0     0 -2.950012354E+00 -1.263431344E+02  3.178879794E+02  3.642101833E+02  1.250000000E+02  0.00000E+00  9.000E+00
      25     1     1     2     0     0 -3.155165639E-01  1.367375374E+02  2.086882136E+01  1.864343353E+02  1.250000000E+02  0.00000E+00  9.000E+00
      21     1     1     2   502   511  3.265528918E+00 -1.039440291E+01  4.086351491E+00  1.163638945E+01  8.429369702E-08  0.00000E+00  9.000E+00
#rwgt            1           1   5.3433607110380657E-002           4      305301           0
</event>
<event>
      5   9999  3.79277E-02  1.03081E+02 -1.00000E+00  1.23238E-01
      21    -1     0     0   502   512  0.000000000E+00  0.000000000E+00  1.409095783E+02  1.409095783E+02  0.000000000E+00  0.00000E+00  9.000E+00
      21    -1     0     0   501   502  0.000000000E+00  0.000000000E+00 -1.523969568E+03  1.523969568E+03  0.000000000E+00  0.00000E+00  9.000E+00
      25     1     1     2     0     0  7.279231329E+01  1.750966866E+02 -5.057614875E+02  5.544161368E+02  1.250000000E+02  0.00000E+00  9.000E+00
      25     1     1     2     0     0 -1.754750326E+02 -1.841489980E+02 -9.453656222E+02  9.869364215E+02  1.250000000E+02  0.00000E+00  9.000E+00
      21     1     1     2   501   512  1.026827193E+02  9.052311435E+00  6.806711970E+01  1.235265882E+02  4.156969970E-06  0.00000E+00  9.000E+00
#rwgt            1           1   9.7396779013819462E-002           4      305516           0
</event>
<event>
      5   9999  3.79277E-02  1.50527E+02 -1.00000E+00  1.16333E-01
      21    -1     0     0   502   511  0.000000000E+00  0.000000000E+00  1.206745853E+03  1.206745853E+03  0.000000000E+00  0.00000E+00  9.000E+00
      21    -1     0     0   501   502  0.000000000E+00  0.000000000E+00 -7.875381775E+01  7.875381775E+01  0.000000000E+00  0.00000E+00  9.000E+00
      25     1     1     2     0     0 -4.299657239E+01  9.466729127E+01  1.792636425E+02  2.420145756E+02  1.250000000E+02  0.00000E+00  9.000E+00
      25     1     1     2     0     0  9.292013841E+01 -2.366744096E+02  6.458762655E+02  7.052872313E+02  1.250000000E+02  0.00000E+00  9.000E+00
      21     1     1     2   501   511 -4.992356601E+01  1.420071184E+02  3.028521269E+02  3.381978635E+02  6.607249480E-06  0.00000E+00  9.000E+00
#rwgt            2          11   2.0031086959142268E-003           4      306230           0
</event>
<event>
      5   9999  3.79277E-02  6.55202E+01 -1.00000E+00  1.32692E-01
      21    -1     0     0   502   501  0.000000000E+00  0.000000000E+00  8.533132597E+01  8.533132597E+01  0.000000000E+00  0.00000E+00  9.000E+00
      21    -1     0     0   501   512  0.000000000E+00  0.000000000E+00 -7.467162904E+02  7.467162904E+02  0.000000000E+00  0.00000E+00  9.000E+00
      25     1     1     2     0     0  2.477729408E+01  1.055856901E+02 -3.016099856E+02  3.440288297E+02  1.250000000E+02  0.00000E+00  9.000E+00
      25     1     1     2     0     0 -4.946925751E+01 -1.662750564E+02 -1.326357596E+02  2.516184543E+02  1.250000000E+02  0.00000E+00  9.000E+00
      21     1     1     2   502   512  2.469196343E+01  6.068936632E+01 -2.271392193E+02  2.364003324E+02  0.000000000E+00  0.00000E+00  9.000E+00
#rwgt            1           1   3.0687719829823060E-002           4      306250           0
</event>
<event>
      5   9999  3.79277E-02  3.38935E+01 -1.00000E+00  1.49448E-01
      21    -1     0     0   502   511  0.000000000E+00  0.000000000E+00  1.191495695E+02  1.191495695E+02  0.000000000E+00  0.00000E+00  9.000E+00
      21    -1     0     0   501   502  0.000000000E+00  0.000000000E+00 -4.471929806E+02  4.471929806E+02  0.000000000E+00  0.00000E+00  9.000E+00
      25     1     1     2     0     0 -4.826817368E+01  3.672856706E+01  3.964860794E+01  1.444846578E+02  1.250000000E+02  0.00000E+00  9.000E+00
      25     1     1     2     0     0  4.107768609E+01 -6.985054409E+01 -3.561557409E+02  3.860549010E+02  1.250000000E+02  0.00000E+00  9.000E+00
      21     1     1     2   501   511  7.190487593E+00  3.312197703E+01 -1.153627825E+01  3.580299135E+01  1.685873940E-07  0.00000E+00  9.000E+00
#rwgt            1           1   3.9878654780895709E-002           4      306338           0
</event>
<event>
      5   9999  3.79277E-02  2.29015E+01 -1.00000E+00  1.61657E-01
      21    -1     0     0   502   501  0.000000000E+00  0.000000000E+00  2.894721839E+02  2.894721839E+02  0.000000000E+00  0.00000E+00  9.000E+00
      21    -1     0     0   501   512  0.000000000E+00  0.000000000E+00 -2.658669586E+02  2.658669586E+02  0.000000000E+00  0.00000E+00  9.000E+00
      25     1     1     2     0     0 -1.933767931E+02  2.482758165E+01 -1.284174243E+02  2.648150823E+02  1.250000000E+02  0.00000E+00  9.000E+00
      25     1     1     2     0     0  1.779775098E+02 -7.876437904E+00  1.553410472E+02  2.673833825E+02  1.250000000E+02  0.00000E+00  9.000E+00
      21     1     1     2   502   512  1.539928331E+01 -1.695114375E+01 -3.318397686E+00  2.314067769E+01  5.855227323E-07  0.00000E+00  9.000E+00
#rwgt            1           1   4.5989801824616712E-002           4      306635           0
</event>
<event>
      5   9999  3.79277E-02  5.25503E+01 -1.00000E+00  1.37854E-01
      21    -1     0     0   502   501  0.000000000E+00  0.000000000E+00  8.424879247E+02  8.424879247E+02  0.000000000E+00  0.00000E+00  9.000E+00
      21    -1     0     0   511   502  0.000000000E+00  0.000000000E+00 -1.425286298E+02  1.425286298E+02  0.000000000E+00  0.00000E+00  9.000E+00
      25     1     1     2     0     0  2.005988446E+02 -2.190974329E+02  3.091898420E+02  4.466172186E+02  1.250000000E+02  0.00000E+00  9.000E+00
      25     1     1     2     0     0 -1.493486282E+02  2.307140917E+02  3.789743460E+02  4.845415976E+02  1.250000000E+02  0.00000E+00  9.000E+00
      21     1     1     2   511   501 -5.125021636E+01 -1.161665871E+01  1.179510682E+01  5.385773836E+01  1.180111758E-06  0.00000E+00  9.000E+00
#rwgt            1           1   3.4661581192495503E-002           4      306919           0
</event>
<event>
      5   9999  3.79277E-02  1.50057E+01 -1.00000E+00  1.77368E-01
      21    -1     0     0   502   512  0.000000000E+00  0.000000000E+00  1.634244697E+03  1.634244697E+03  0.000000000E+00  0.00000E+00  9.000E+00
      21    -1     0     0   501   502  0.000000000E+00  0.000000000E+00 -4.135273906E+01  4.135273906E+01  0.000000000E+00  0.00000E+00  9.000E+00
      25     1     1     2     0     0  9.656824807E+01  1.279859448E+02  3.727291534E+02  4.245678396E+02  1.250000000E+02  0.00000E+00  9.000E+00
      25     1     1     2     0     0 -8.273833111E+01 -1.221631316E+02  5.939442044E+02  6.246312353E+02  1.250000000E+02  0.00000E+00  9.000E+00
      21     1     1     2   501   512 -1.382991696E+01 -5.822813232E+00  6.262186002E+02  6.263983613E+02  1.078959322E-05  0.00000E+00  9.000E+00
#rwgt            1           1   3.8846718783737071E-002           4      307059           0
</event>
<event>
      5   9999  3.79277E-02  5.03051E+01 -1.00000E+00  1.38925E-01
      21    -1     0     0   511   501  0.000000000E+00  0.000000000E+00  9.358938814E+01  9.358938814E+01  0.000000000E+00  0.00000E+00  9.000E+00
      21    -1     0     0   501   502  0.000000000E+00  0.000000000E+00 -1.037448442E+03  1.037448442E+03  0.000000000E+00  0.00000E+00  9.000E+00
      25     1     1     2     0     0 -7.036136740E+01  1.194966441E+02 -5.829142392E+02  6.120818411E+02  1.250000000E+02  0.00000E+00  9.000E+00
      25     1     1     2     0     0  1.128485337E+02 -1.464307017E+02 -3.981233317E+02  4.564032528E+02  1.250000000E+02  0.00000E+00  9.000E+00
      21     1     1     2   511   502 -4.248716629E+01  2.693405761E+01  3.717851663E+01  6.255273661E+01  2.431401974E-06  0.00000E+00  9.000E+00
#rwgt            1           1   4.7267417116262228E-002           4      307205           0
</event>
<event>
      5   9999  3.79277E-02  2.95526E+02 -1.00000E+00  1.05804E-01
      21    -1     0     0   502   501  0.000000000E+00  0.000000000E+00  5.260196390E+02  5.260196390E+02  0.000000000E+00  0.00000E+00  9.000E+00
      21    -1     0     0   501   512  0.000000000E+00  0.000000000E+00 -3.289604077E+02  3.289604077E+02  0.000000000E+00  0.00000E+00  9.000E+00
      25     1     1     2     0     0 -1.402606236E+02 -9.022456739E+00  1.647908764E+02  2.500709503E+02  1.250000000E+02  0.00000E+00  9.000E+00
      25     1     1     2     0     0  2.460723351E+01  2.809785995E+02  1.476812962E+01  3.088649980E+02  1.250000000E+02  0.00000E+00  9.000E+00
      21     1     1     2   502   512  1.156533901E+02 -2.719561428E+02  1.750022526E+01  2.960440983E+02  7.692463782E-06  0.00000E+00  9.000E+00
#rwgt            1           1   1.2658478871942607E-002           4      307414           0
</event>
<event>
      5   9999  3.79277E-02  6.91926E+01 -1.00000E+00  1.31476E-01
      21    -1     0     0   502   501  0.000000000E+00  0.000000000E+00  9.692265459E+01  9.692265459E+01  0.000000000E+00  0.00000E+00  9.000E+00
      21    -1     0     0   511   502  0.000000000E+00  0.000000000E+00 -1.558002834E+03  1.558002834E+03  0.000000000E+00  0.00000E+00  9.000E+00
      25     1     1     2     0     0 -1.062749227E+02 -2.698726085E+02 -2.784316102E+02  4.210400760E+02  1.250000000E+02  0.00000E+00  9.000E+00
      25     1     1     2     0     0  9.715491254E+01  2.012836615E+02 -6.822894136E+02  7.287647311E+02  1.250000000E+02  0.00000E+00  9.000E+00
      21     1     1     2   511   501  9.120010185E+00  6.858894707E+01 -5.003591551E+02  5.051206810E+02  5.394796609E-06  0.00000E+00  9.000E+00
#rwgt            1           1   3.6813755846558105E-002           4      307542           0
</event>
<event>
      5   9999 -5.16968E-02  2.47561E+01 -1.00000E+00  1.59070E-01
      21    -1     0     0   502   501  0.000000000E+00  0.000000000E+00  1.812582897E+03  1.812582897E+03  0.000000000E+00  0.00000E+00  9.000E+00
       1    -1     0     0   501     0  0.000000000E+00  0.000000000E+00 -1.575668648E+02  1.575668648E+02  0.000000000E+00  0.00000E+00  9.000E+00
      25     1     1     2     0     0  3.982437469E+01  7.813285477E+01  7.196702956E+02  7.356908713E+02  1.250000000E+02  0.00000E+00  9.000E+00
      25     1     1     2     0     0 -1.912480198E+01 -6.455369955E+01  1.079195334E+03  1.088494606E+03  1.250000000E+02  0.00000E+00  9.000E+00
       1     1     1     2   502     0 -2.069957270E+01 -1.357915523E+01 -1.438495973E+02  1.459642847E+02  3.814697266E-06  0.00000E+00  9.000E+00
#rwgt            1           1 -0.51624817785095367                4      307584           0
</event>
<event>
      5   9999  3.79277E-02  5.06606E+01 -1.00000E+00  1.38751E-01
      21    -1     0     0   511   501  0.000000000E+00  0.000000000E+00  5.023834542E+02  5.023834542E+02  0.000000000E+00  0.00000E+00  9.000E+00
      21    -1     0     0   501   502  0.000000000E+00  0.000000000E+00 -2.857267472E+02  2.857267472E+02  0.000000000E+00  0.00000E+00  9.000E+00
      25     1     1     2     0     0 -1.668315841E+02  1.880718606E+02  2.792637216E+01  2.821501098E+02  1.250000000E+02  0.00000E+00  9.000E+00
      25     1     1     2     0     0  2.009175769E+02 -1.505932792E+02 -2.940330047E+01  2.820208547E+02  1.250000000E+02  0.00000E+00  9.000E+00
      21     1     1     2   511   502 -3.408599277E+01 -3.747858143E+01  2.181336353E+02  2.239392368E+02  2.697398305E-06  0.00000E+00  9.000E+00
#rwgt            1           1   5.4713862342549512E-002           4      307695           0
</event>
<event>
      5   9999  3.79277E-02  8.37316E+01 -1.00000E+00  1.27398E-01
      21    -1     0     0   502   501  0.000000000E+00  0.000000000E+00  2.898273424E+02  2.898273424E+02  0.000000000E+00  0.00000E+00  9.000E+00
      21    -1     0     0   501   512  0.000000000E+00  0.000000000E+00 -4.042109052E+02  4.042109052E+02  0.000000000E+00  0.00000E+00  9.000E+00
      25     1     1     2     0     0  2.461750206E+02  9.739928076E+01  8.893075312E+01  3.059778416E+02  1.250000000E+02  0.00000E+00  9.000E+00
      25     1     1     2     0     0 -2.017823592E+02 -2.640443633E+01 -1.107882515E+02  2.632723901E+02  1.250000000E+02  0.00000E+00  9.000E+00
      21     1     1     2   502   512 -4.439266147E+01 -7.099484443E+01 -9.252606438E+01  1.247880159E+02  0.000000000E+00  0.00000E+00  9.000E+00
#rwgt            1           1   3.1081752689026489E-002           4      307819           0
</event>
<event>
      5   9999  3.79277E-02  5.10806E+01 -1.00000E+00  1.38548E-01
      21    -1     0     0   511   501  0.000000000E+00  0.000000000E+00  2.488558677E+02  2.488558677E+02  0.000000000E+00  0.00000E+00  9.000E+00
      21    -1     0     0   501   502  0.000000000E+00  0.000000000E+00 -2.339673178E+02  2.339673178E+02  0.000000000E+00  0.00000E+00  9.000E+00
      25     1     1     2     0     0 -7.181623357E+00 -1.673810417E+02 -5.337407305E+01  2.157354410E+02  1.250000000E+02  0.00000E+00  9.000E+00
      25     1     1     2     0     0 -3.324546075E+01  1.361579902E+02  7.837055750E+00  1.879645669E+02  1.250000000E+02  0.00000E+00  9.000E+00
      21     1     1     2   511   502  4.042708410E+01  3.122305147E+01  6.042556718E+01  7.912317765E+01  1.507891493E-06  0.00000E+00  9.000E+00
#rwgt            1           1   3.4030391155008603E-002           4      307911           0
</event>
<event>
      5   9999  3.79277E-02  4.50907E+01 -1.00000E+00  1.41686E-01
      21    -1     0     0   502   501  0.000000000E+00  0.000000000E+00  1.169024866E+03  1.169024866E+03  0.000000000E+00  0.00000E+00  9.000E+00
      21    -1     0     0   501   512  0.000000000E+00  0.000000000E+00 -2.616816791E+02  2.616816791E+02  0.000000000E+00  0.00000E+00  9.000E+00
      25     1     1     2     0     0 -8.182932172E+01 -1.823505726E+02  2.742892284E+02  3.616729877E+02  1.250000000E+02  0.00000E+00  9.000E+00
      25     1     1     2     0     0  1.048003894E+02  1.435498351E+02  8.346427537E+02  8.624634503E+02  1.250000000E+02  0.00000E+00  9.000E+00
      21     1     1     2   502   512 -2.297106772E+01  3.880073751E+01 -2.015887947E+02  2.065701076E+02  4.672030912E-06  0.00000E+00  9.000E+00
#rwgt            1           1   3.7821129215133635E-002           4      308033           0
</event>
<event>
      5   9999 -3.79277E-02  7.71689E+01 -1.00000E+00  1.29111E-01
      21    -1     0     0   502   501  0.000000000E+00  0.000000000E+00  5.106183199E+02  5.106183199E+02  0.000000000E+00  0.00000E+00  9.000E+00
      21    -1     0     0   511   502  0.000000000E+00  0.000000000E+00 -1.421739215E+02  1.421739215E+02  0.000000000E+00  0.00000E+00  9.000E+00
      25     1     1     2     0     0  1.210821076E+02  1.262239743E+02  2.231575466E+02  3.098671636E+02  1.250000000E+02  0.00000E+00  9.000E+00
      25     1     1     2     0     0 -5.822615580E+01 -1.709919270E+02  1.493824114E+02  2.656475657E+02  1.250000000E+02  0.00000E+00  9.000E+00
      21     1     1     2   511   501 -6.285595177E+01  4.476795266E+01 -4.095559625E+00  7.727751204E+01  1.018524616E-06  0.00000E+00  9.000E+00
#rwgt            1           1  -7.1132310090169820E-002           4      308277           0
</event>
<event>
      5   9999  3.79277E-02  7.40560E+01 -1.00000E+00  1.29994E-01
      21    -1     0     0   502   501  0.000000000E+00  0.000000000E+00  2.912112574E+03  2.912112574E+03  0.000000000E+00  0.00000E+00  9.000E+00
      21    -1     0     0   501   512  0.000000000E+00  0.000000000E+00 -6.973723112E+02  6.973723112E+02  0.000000000E+00  0.00000E+00  9.000E+00
      25     1     1     2     0     0 -8.956267186E+01  1.780486684E+02  1.553971155E+03  1.571678768E+03  1.250000000E+02  0.00000E+00  9.000E+00
      25     1     1     2     0     0  1.083326428E+02 -1.064108118E+02  1.340097062E+03  1.354453527E+03  1.250000000E+02  0.00000E+00  9.000E+00
      21     1     1     2   502   512 -1.876997095E+01 -7.163785653E+01 -6.793279534E+02  6.833525902E+02  7.629394531E-06  0.00000E+00  9.000E+00
#rwgt            1           1   4.7055309904178999E-002           4      308388           0
</event>
<event>
      5   9999  3.79277E-02  1.99951E+02 -1.00000E+00  1.11652E-01
      21    -1     0     0   502   501  0.000000000E+00  0.000000000E+00  7.813915629E+02  7.813915629E+02  0.000000000E+00  0.00000E+00  9.000E+00
      21    -1     0     0   511   502  0.000000000E+00  0.000000000E+00 -8.868307367E+02  8.868307367E+02  0.000000000E+00  0.00000E+00  9.000E+00
      25     1     1     2     0     0  7.807550189E+02 -1.370981620E+02 -1.880471664E+02  8.242336091E+02  1.250000000E+02  0.00000E+00  9.000E+00
      25     1     1     2     0     0 -5.873116778E+02  8.650074076E+01  1.634742728E+02  6.283042439E+02  1.250000000E+02  0.00000E+00  9.000E+00
      21     1     1     2   511   501 -1.934433411E+02  5.059742120E+01 -8.086628014E+01  2.156844466E+02  3.568322551E-06  0.00000E+00  9.000E+00
#rwgt            2          11   5.4389000753977679E-003           4      308637           0
</event>
<event>
      5   9999  3.79277E-02  2.56487E+01 -1.00000E+00  1.57922E-01
      21    -1     0     0   512   501  0.000000000E+00  0.000000000E+00  1.127093686E+02  1.127093686E+02  0.000000000E+00  0.00000E+00  9.000E+00
      21    -1     0     0   501   502  0.000000000E+00  0.000000000E+00 -9.691172174E+02  9.691172174E+02  0.000000000E+00  0.00000E+00  9.000E+00
      25     1     1     2     0     0 -2.195167632E+02  2.380210151E+00 -2.515658706E+02  3.565160053E+02  1.250000000E+02  0.00000E+00  9.000E+00
      25     1     1     2     0     0  2.407456562E+02  1.201396972E+01 -6.320577074E+02  6.879133317E+02  1.250000000E+02  0.00000E+00  9.000E+00
      21     1     1     2   512   502 -2.122889298E+01 -1.439417987E+01  2.721572931E+01  3.739724900E+01  1.348699152E-06  0.00000E+00  9.000E+00
#rwgt            1           1   3.3337439230221727E-002           4      308807           0
</event>
<event>
      5   9999  3.79277E-02  6.60905E+01 -1.00000E+00  1.32497E-01
      21    -1     0     0   502   501  0.000000000E+00  0.000000000E+00  1.129673745E+02  1.129673745E+02  0.000000000E+00  0.00000E+00  9.000E+00
      21    -1     0     0   511   502  0.000000000E+00  0.000000000E+00 -7.282245265E+02  7.282245265E+02  0.000000000E+00  0.00000E+00  9.000E+00
      25     1     1     2     0     0 -1.155178117E+01  1.094622522E+02  2.418887045E+01  1.683019007E+02  1.250000000E+02  0.00000E+00  9.000E+00
      25     1     1     2     0     0 -7.445324189E+00 -4.616084633E+01 -5.146632595E+02  5.316855530E+02  1.250000000E+02  0.00000E+00  9.000E+00
      21     1     1     2   511   501  1.899710536E+01 -6.330140591E+01 -1.247827630E+02  1.412044474E+02  1.907348633E-06  0.00000E+00  9.000E+00
#rwgt            1           1   4.1502206368796389E-002           4      308996           0
</event>
<event>
      5   9999  3.79277E-02  6.14451E+01 -1.00000E+00  1.34153E-01
      21    -1     0     0   502   501  0.000000000E+00  0.000000000E+00  2.083537606E+02  2.083537606E+02  0.000000000E+00  0.00000E+00  9.000E+00
      21    -1     0     0   501   512  0.000000000E+00  0.000000000E+00 -8.183792421E+02  8.183792421E+02  0.000000000E+00  0.00000E+00  9.000E+00
      25     1     1     2     0     0  5.600233841E+01  1.830551419E+02  2.537097688E+01  2.300307226E+02  1.250000000E+02  0.00000E+00  9.000E+00
      25     1     1     2     0     0 -2.005997482E+01 -2.328913969E+02 -1.443614351E+02  3.018377532E+02  1.250000000E+02  0.00000E+00  9.000E+00
      21     1     1     2   502   512 -3.594236360E+01  4.983625502E+01 -4.910350233E+02  4.948645269E+02  7.629394531E-06  0.00000E+00  9.000E+00
#rwgt            1           1   4.9728367188033896E-002           4      309052           0
</event>
<event>
      5   9999  3.79277E-02  2.95395E+01 -1.00000E+00  1.53508E-01
      21    -1     0     0   511   501  0.000000000E+00  0.000000000E+00  1.911955796E+02  1.911955796E+02  0.000000000E+00  0.00000E+00  9.000E+00
      21    -1     0     0   501   502  0.000000000E+00  0.000000000E+00 -2.470246438E+02  2.470246438E+02  0.000000000E+00  0.00000E+00  9.000E+00
      25     1     1     2     0     0 -1.049940287E+02  7.682384392E+01 -8.616152522E+01  1.999361335E+02  1.250000000E+02  0.00000E+00  9.000E+00
      25     1     1     2     0     0  1.341694386E+02 -8.144774148E+01  7.223600286E+00  2.007793646E+02  1.250000000E+02  0.00000E+00  9.000E+00
      21     1     1     2   511   502 -2.917540994E+01  4.623897567E+00  2.310886071E+01  3.750472526E+01  6.743495762E-07  0.00000E+00  9.000E+00
#rwgt            1           1   3.2317484859144992E-002           4      309174           0
</event>
<event>
      5   9999  3.79277E-02  2.02689E+01 -1.00000E+00  1.65892E-01
      21    -1     0     0   502   501  0.000000000E+00  0.000000000E+00  2.109486692E+02  2.109486692E+02  0.000000000E+00  0.00000E+00  9.000E+00
      21    -1     0     0   512   502  0.000000000E+00  0.000000000E+00 -3.106070496E+02  3.106070496E+02  0.000000000E+00  0.00000E+00  9.000E+00
      25     1     1     2     0     0 -1.961686641E+01  1.703640310E+02 -1.462997966E+01  2.127152105E+02  1.250000000E+02  0.00000E+00  9.000E+00
      25     1     1     2     0     0  1.205110280E+01 -1.515601229E+02  2.369156502E+01  1.982472955E+02  1.250000000E+02  0.00000E+00  9.000E+00
      21     1     1     2   512   501  7.565763610E+00 -1.880390806E+01 -1.087199658E+02  1.105932127E+02  1.907348633E-06  0.00000E+00  9.000E+00
#rwgt            1           1   5.0691664958963399E-002           4      309340           0
</event>
<event>
      5   9999  3.79277E-02  3.93642E+01 -1.00000E+00  1.45273E-01
      21    -1     0     0   502   501  0.000000000E+00  0.000000000E+00  4.554060782E+01  4.554060782E+01  0.000000000E+00  0.00000E+00  9.000E+00
      21    -1     0     0   501   511  0.000000000E+00  0.000000000E+00 -1.714652937E+03  1.714652937E+03  0.000000000E+00  0.00000E+00  9.000E+00
      25     1     1     2     0     0 -6.051703124E+01 -1.380667485E+02 -9.093471886E+02  9.301946288E+02  1.250000000E+02  0.00000E+00  9.000E+00
      25     1     1     2     0     0  9.773185845E+01  1.508963169E+02 -3.157660771E+02  3.842582856E+02  1.250000000E+02  0.00000E+00  9.000E+00
      21     1     1     2   502   511 -3.721482721E+01 -1.282956839E+01 -4.439990639E+02  4.457406308E+02  0.000000000E+00  0.00000E+00  9.000E+00
#rwgt            1           1   4.4995213645446466E-002           4      309549           0
</event>
<event>
      5   9999  3.79277E-02  7.94680E+01 -1.00000E+00  1.28490E-01
       1    -1     0     0   502     0  0.000000000E+00  0.000000000E+00  2.306495409E+02  2.306495409E+02  0.000000000E+00  0.00000E+00  9.000E+00
      21    -1     0     0   501   502  0.000000000E+00  0.000000000E+00 -7.989007379E+02  7.989007379E+02  0.000000000E+00  0.00000E+00  9.000E+00
      25     1     1     2     0     0  1.389289314E+01  1.439855665E+02 -6.847874213E+02  7.109737465E+02  1.250000000E+02  0.00000E+00  9.000E+00
      25     1     1     2     0     0  5.565399522E-01 -6.584227493E+01 -3.669064326E+01  1.459682096E+02  1.250000000E+02  0.00000E+00  9.000E+00
       1     1     1     2   501     0 -1.444943309E+01 -7.814329154E+01  1.532268676E+02  1.726083228E+02  2.697398305E-06  0.00000E+00  9.000E+00
#rwgt            1           1   3.8425466748994754E-002           4      309686           0
</event>
<event>
      5   9999  3.79277E-02  6.16436E+01 -1.00000E+00  1.34079E-01
      21    -1     0     0   511   501  0.000000000E+00  0.000000000E+00  5.655963455E+02  5.655963455E+02  0.000000000E+00  0.00000E+00  9.000E+00
      21    -1     0     0   501   502  0.000000000E+00  0.000000000E+00 -9.509605296E+02  9.509605296E+02  0.000000000E+00  0.00000E+00  9.000E+00
      25     1     1     2     0     0  3.475590422E+02  2.473970684E+01 -2.172350228E+02  4.292148599E+02  1.250000000E+02  0.00000E+00  9.000E+00
      25     1     1     2     0     0 -3.409121529E+02  3.654445432E+01 -5.721590994E+02  6.786365951E+02  1.250000000E+02  0.00000E+00  9.000E+00
      21     1     1     2   511   502 -6.646889234E+00 -6.128416117E+01  4.040299381E+02  4.087054201E+02  1.078959322E-05  0.00000E+00  9.000E+00
#rwgt            2          11   5.8248550546335853E-003           4      309879           0
</event>
<event>
      5   9999  3.79277E-02  2.02457E+01 -1.00000E+00  1.65933E-01
      21    -1     0     0   502   501  0.000000000E+00  0.000000000E+00  1.271870572E+02  1.271870572E+02  0.000000000E+00  0.00000E+00  9.000E+00
      21    -1     0     0   501   512  0.000000000E+00  0.000000000E+00 -4.612870834E+02  4.612870834E+02  0.000000000E+00  0.00000E+00  9.000E+00
      25     1     1     2     0     0  1.273051017E+02 -9.967120229E+01 -2.061652963E+01  2.054044274E+02  1.250000000E+02  0.00000E+00  9.000E+00
      25     1     1     2     0     0 -1.096591831E+02  1.095963946E+02 -2.743895113E+02  3.390444072E+02  1.250000000E+02  0.00000E+00  9.000E+00
      21     1     1     2   502   512 -1.764591855E+01 -9.925192323E+00 -3.909398535E+01  4.402530607E+01  4.768371582E-07  0.00000E+00  9.000E+00
#rwgt            1           1   2.6363743039683057E-002           4      309929           0
</event>
<event>
      5   9999  3.79277E-02  3.34050E+01 -1.00000E+00  1.49866E-01
      21    -1     0     0   502   501  0.000000000E+00  0.000000000E+00  7.077075492E+02  7.077075492E+02  0.000000000E+00  0.00000E+00  9.000E+00
      21    -1     0     0   511   502  0.000000000E+00  0.000000000E+00 -7.058085001E+01  7.058085001E+01  0.000000000E+00  0.00000E+00  9.000E+00
      25     1     1     2     0     0  1.044428659E+02  8.884630585E+01  3.250268312E+02  3.742584926E+02  1.250000000E+02  0.00000E+00  9.000E+00
      25     1     1     2     0     0 -1.100312177E+02 -5.591207777E+01  3.240097866E+02  3.685652875E+02  1.250000000E+02  0.00000E+00  9.000E+00
      21     1     1     2   511   501  5.588351795E+00 -3.293422808E+01 -1.190991854E+01  3.546461920E+01  4.460403188E-07  0.00000E+00  9.000E+00
#rwgt            1           1   3.8761753013787238E-002           4      310086           0
</event>
<event>
      5   9999  3.79277E-02  2.61021E+01 -1.00000E+00  1.57360E-01
      21    -1     0     0   502   501  0.000000000E+00  0.000000000E+00  6.270171043E+02  6.270171043E+02  0.000000000E+00  0.00000E+00  9.000E+00
      21    -1     0     0   512   502  0.000000000E+00  0.000000000E+00 -1.608997390E+02  1.608997390E+02  0.000000000E+00  0.00000E+00  9.000E+00
      25     1     1     2     0     0 -9.978614315E+01  1.003828100E+02  3.236398294E+02  3.747021778E+02  1.250000000E+02  0.00000E+00  9.000E+00
      25     1     1     2     0     0  1.186146957E+02 -1.184606268E+02  2.364691390E+02  3.156659941E+02  1.250000000E+02  0.00000E+00  9.000E+00
      21     1     1     2   512   501 -1.882855251E+01  1.807781678E+01 -9.399160305E+01  9.754867141E+01  0.000000000E+00  0.00000E+00  9.000E+00
#rwgt            1           1   4.3880874341968752E-002           4      310262           0
</event>
<event>
      5   9999  3.79277E-02  2.10278E+01 -1.00000E+00  1.64593E-01
      21    -1     0     0   511   501  0.000000000E+00  0.000000000E+00  2.562560594E+02  2.562560594E+02  0.000000000E+00  0.00000E+00  9.000E+00
      21    -1     0     0   501   502  0.000000000E+00  0.000000000E+00 -2.421429292E+02  2.421429292E+02  0.000000000E+00  0.00000E+00  9.000E+00
      25     1     1     2     0     0  5.852863800E+01  8.253431372E+01  7.135112956E+01  1.759360625E+02  1.250000000E+02  0.00000E+00  9.000E+00
      25     1     1     2     0     0 -3.808018201E+01 -8.743606584E+01 -1.560005494E+02  2.214866526E+02  1.250000000E+02  0.00000E+00  9.000E+00
      21     1     1     2   511   502 -2.044845599E+01  4.901752121E+00  9.876255000E+01  1.009762735E+02  1.907348633E-06  0.00000E+00  9.000E+00
#rwgt            1           1   2.3970701819065306E-002           4      310393           0
</event>
<event>
      5   9999  3.79277E-02  1.26463E+02 -1.00000E+00  1.19409E-01
      21    -1     0     0   502   501  0.000000000E+00  0.000000000E+00  2.556900006E+02  2.556900006E+02  0.000000000E+00  0.00000E+00  9.000E+00
      21    -1     0     0   501   512  0.000000000E+00  0.000000000E+00 -7.400041719E+02  7.400041719E+02  0.000000000E+00  0.00000E+00  9.000E+00
      25     1     1     2     0     0  8.645419115E+01 -2.464489934E+02 -2.258962323E+02  3.672404407E+02  1.250000000E+02  0.00000E+00  9.000E+00
      25     1     1     2     0     0 -1.277074933E+01  3.492283627E+02 -3.637510419E+01  3.729231684E+02  1.250000000E+02  0.00000E+00  9.000E+00
      21     1     1     2   502   512 -7.368344182E+01 -1.027793693E+02 -2.220428348E+02  2.555305634E+02  2.697398305E-06  0.00000E+00  9.000E+00
#rwgt            1           1   5.1043191284389861E-002           4      310560           0
</event>
<event>
      5   9999  3.79277E-02  3.66724E+01 -1.00000E+00  1.47219E-01
      21    -1     0     0   502   501  0.000000000E+00  0.000000000E+00  3.630158856E+02  3.630158856E+02  0.000000000E+00  0.00000E+00  9.000E+00
      21    -1     0     0   501   511  0.000000000E+00  0.000000000E+00 -9.567620420E+01  9.567620420E+01  0.000000000E+00  0.00000E+00  9.000E+00
      25     1     1     2     0     0  4.711037437E+01 -1.230799758E+01  1.336426786E+01  1.348127510E+02  1.250000000E+02  0.00000E+00  9.000E+00
      25     1     1     2     0     0 -8.053269431E+01  2.740149706E+01  2.419065739E+02  2.852720586E+02  1.250000000E+02  0.00000E+00  9.000E+00
      21     1     1     2   502   511  3.342231994E+01 -1.509349948E+01  1.206883961E+01  3.860728022E+01  1.130918620E-06  0.00000E+00  9.000E+00
#rwgt            1           1   5.0268645734718904E-002           4      310862           0
</event>
<event>
      5   9999  3.79277E-02  2.21238E+01 -1.00000E+00  1.62832E-01
      21    -1     0     0   502   512  0.000000000E+00  0.000000000E+00  1.801397923E+01  1.801397923E+01  0.000000000E+00  0.00000E+00  9.000E+00
      21    -1     0     0   501   502  0.000000000E+00  0.000000000E+00 -1.633630430E+03  1.633630430E+03  0.000000000E+00  0.00000E+00  9.000E+00
      25     1     1     2     0     0  1.240373881E+01 -5.977131889E+01 -1.081984881E+03  1.090890804E+03  1.250000000E+02  0.00000E+00  9.000E+00
      25     1     1     2     0     0 -8.656099977E+00  8.157536428E+01 -4.470246180E+02  4.713655452E+02  1.250000000E+02  0.00000E+00  9.000E+00
      21     1     1     2   501   512 -3.747638833E+00 -2.180404539E+01 -8.660695121E+01  8.938805955E+01  0.000000000E+00  0.00000E+00  9.000E+00
#rwgt            1           1   9.6740808371752460E-002           4      310943           0
</event>
<event>
      5   9999  3.79277E-02  1.43914E+02 -1.00000E+00  1.17111E-01
      21    -1     0     0   502   501  0.000000000E+00  0.000000000E+00  5.756045961E+02  5.756045961E+02  0.000000000E+00  0.00000E+00  9.000E+00
      -1    -1     0     0     0   502  0.000000000E+00  0.000000000E+00 -2.692551729E+02  2.692551729E+02  0.000000000E+00  0.00000E+00  9.000E+00
      25     1     1     2     0     0 -1.458952039E+02 -9.014353875E+01  1.556800636E+01  2.127877602E+02  1.250000000E+02  0.00000E+00  9.000E+00
      25     1     1     2     0     0  1.833024443E+01  1.567655116E+02  4.023918125E+02  4.499506576E+02  1.250000000E+02  0.00000E+00  9.000E+00
      -1     1     1     2     0   501  1.275649594E+02 -6.662197285E+01 -1.116103957E+02  1.821213512E+02  3.015782986E-06  0.00000E+00  9.000E+00
#rwgt            1           1   2.3253157740094951E-003           4      311057           0
</event>
<event>
      5   9999  3.79277E-02  1.51656E+01 -1.00000E+00  1.76936E-01
      21    -1     0     0   502   511  0.000000000E+00  0.000000000E+00  1.619641722E+02  1.619641722E+02  0.000000000E+00  0.00000E+00  9.000E+00
      21    -1     0     0   501   502  0.000000000E+00  0.000000000E+00 -6.208588623E+02  6.208588623E+02  0.000000000E+00  0.00000E+00  9.000E+00
      25     1     1     2     0     0 -1.568827773E+02 -1.535281799E+02 -3.251718305E+01  2.546870139E+02  1.250000000E+02  0.00000E+00  9.000E+00
      25     1     1     2     0     0  1.614729926E+02  1.679823960E+02 -4.361871581E+02  5.100743569E+02  1.250000000E+02  0.00000E+00  9.000E+00
      21     1     1     2   501   511 -4.590215255E+00 -1.445421611E+01  9.809651070E+00  1.806166364E+01  2.064765462E-07  0.00000E+00  9.000E+00
#rwgt            1           1   3.2581025707531887E-002           4      311138           0
</event>
<event>
      5   9999  3.79277E-02  2.41091E+01 -1.00000E+00  1.59940E-01
      21    -1     0     0   512   501  0.000000000E+00  0.000000000E+00  1.053521674E+02  1.053521674E+02  0.000000000E+00  0.00000E+00  9.000E+00
      21    -1     0     0   501   502  0.000000000E+00  0.000000000E+00 -4.401037147E+02  4.401037147E+02  0.000000000E+00  0.00000E+00  9.000E+00
      25     1     1     2     0     0 -1.822306742E+01  2.213265000E+01  3.470462800E+01  1.328583666E+02  1.250000000E+02  0.00000E+00  9.000E+00
      25     1     1     2     0     0  3.121841184E+01 -4.243956266E+01 -3.631783766E+02  3.876844579E+02  1.250000000E+02  0.00000E+00  9.000E+00
      21     1     1     2   512   502 -1.299534441E+01  2.030691266E+01 -6.277798686E+00  2.491305751E+01  2.064765462E-07  0.00000E+00  9.000E+00
#rwgt            1           1   4.4663285925357434E-002           4      311384           0
</event>
<event>
      5   9999  3.79277E-02  3.82784E+01 -1.00000E+00  1.46035E-01
      21    -1     0     0   502   511  0.000000000E+00  0.000000000E+00  1.813194589E+01  1.813194589E+01  0.000000000E+00  0.00000E+00  9.000E+00
      21    -1     0     0   501   502  0.000000000E+00  0.000000000E+00 -1.516643815E+03  1.516643815E+03  0.000000000E+00  0.00000E+00  9.000E+00
      25     1     1     2     0     0  2.718962577E+01  6.443919902E+01 -7.351566320E+02  7.489806137E+02  1.250000000E+02  0.00000E+00  9.000E+00
      25     1     1     2     0     0 -5.550897033E+01 -3.868557665E+01 -6.697385224E+02  6.846550285E+02  1.250000000E+02  0.00000E+00  9.000E+00
      21     1     1     2   501   511  2.831934457E+01 -2.575362237E+01 -9.361671469E+01  1.011401187E+02  1.348699152E-06  0.00000E+00  9.000E+00
#rwgt            1           1   4.2722156765314150E-002           4      311542           0
</event>
<event>
      5   9999  3.79277E-02  1.80709E+01 -1.00000E+00  1.70087E-01
      21    -1     0     0   502   512  0.000000000E+00  0.000000000E+00  6.183015127E+02  6.183015127E+02  0.000000000E+00  0.00000E+00  9.000E+00
      21    -1     0     0   501   502  0.000000000E+00  0.000000000E+00 -7.686890749E+01  7.686890749E+01  0.000000000E+00  0.00000E+00  9.000E+00
      25     1     1     2     0     0 -7.112878779E+00  3.948794152E+01 -2.814900510E+00  1.313118968E+02  1.250000000E+02  0.00000E+00  9.000E+00
      25     1     1     2     0     0  3.639684482E+00 -2.175391246E+01  4.355341481E+02  4.536534737E+02  1.250000000E+02  0.00000E+00  9.000E+00
      21     1     1     2   501   512  3.473194297E+00 -1.773402907E+01  1.087133577E+02  1.102050498E+02  0.000000000E+00  0.00000E+00  9.000E+00
#rwgt            1           1   4.1268685712467550E-002           4      311637           0
</event>
<event>
      5   9999  3.79277E-02  6.77817E+01 -1.00000E+00  1.31933E-01
      21    -1     0     0   502   501  0.000000000E+00  0.000000000E+00  6.773823688E+02  6.773823688E+02  0.000000000E+00  0.00000E+00  9.000E+00
      21    -1     0     0   511   502  0.000000000E+00  0.000000000E+00 -4.096949862E+02  4.096949862E+02  0.000000000E+00  0.00000E+00  9.000E+00
      25     1     1     2     0     0  3.306941307E+02  1.420167134E+02  2.903278397E+02  4.790016800E+02  1.250000000E+02  0.00000E+00  9.000E+00
      25     1     1     2     0     0 -3.896574742E+02 -1.085850019E+02  1.284861571E+02  4.424447337E+02  1.250000000E+02  0.00000E+00  9.000E+00
      21     1     1     2   511   501  5.896334354E+01 -3.343171152E+01 -1.511266142E+02  1.656309413E+02  2.697398305E-06  0.00000E+00  9.000E+00
#rwgt            1           1   4.6354799209869131E-002           4      311849           0
</event>
<event>
      5   9999  3.79277E-02  7.99718E+00 -1.00000E+00  2.07691E-01
      21    -1     0     0   502   501  0.000000000E+00  0.000000000E+00  3.033534027E+02  3.033534027E+02  0.000000000E+00  0.00000E+00  9.000E+00
      21    -1     0     0   512   502  0.000000000E+00  0.000000000E+00 -1.446167699E+02  1.446167699E+02  0.000000000E+00  0.00000E+00  9.000E+00
      25     1     1     2     0     0  8.154760428E+01  5.251846504E+01  2.173873671E+02  2.688688682E+02  1.250000000E+02  0.00000E+00  9.000E+00
      25     1     1     2     0     0 -7.757916530E+01 -4.557538848E+01 -4.047601535E+01  1.592449395E+02  1.250000000E+02  0.00000E+00  9.000E+00
      21     1     1     2   512   501 -3.968438982E+00 -6.943076560E+00 -1.817471889E+01  1.985636490E+01  2.384185791E-07  0.00000E+00  9.000E+00
#rwgt            1           1   1.0210560224240399E-002           4      311966           0
</event>
<event>
      5   9999  3.79277E-02  1.82718E+01 -1.00000E+00  1.69674E-01
      21    -1     0     0   502   501  0.000000000E+00  0.000000000E+00  1.201793360E+02  1.201793360E+02  0.000000000E+00  0.00000E+00  9.000E+00
      21    -1     0     0   501   511  0.000000000E+00  0.000000000E+00 -3.826184596E+02  3.826184596E+02  0.000000000E+00  0.00000E+00  9.000E+00
      25     1     1     2     0     0 -1.435598188E+02  6.356977272E+01 -9.899508604E+01  2.237757016E+02  1.250000000E+02  0.00000E+00  9.000E+00
      25     1     1     2     0     0  1.560869446E+02 -5.026833830E+01 -1.396956008E+02  2.490580273E+02  1.250000000E+02  0.00000E+00  9.000E+00
      21     1     1     2   502   511 -1.252712578E+01 -1.330143442E+01 -2.374843676E+01  2.996406658E+01  3.371747881E-07  0.00000E+00  9.000E+00
#rwgt            1           1   4.0829404262470351E-002           4      312277           0
</event>
<event>
      5   9999  3.79277E-02  4.01681E+01 -1.00000E+00  1.44727E-01
      21    -1     0     0   502   501  0.000000000E+00  0.000000000E+00  5.350806427E+01  5.350806427E+01  0.000000000E+00  0.00000E+00  9.000E+00
      21    -1     0     0   501   512  0.000000000E+00  0.000000000E+00 -7.674649626E+02  7.674649626E+02  0.000000000E+00  0.00000E+00  9.000E+00
      25     1     1     2     0     0 -2.615183554E+01  7.073349828E+01 -4.496598247E+02  4.727643220E+02  1.250000000E+02  0.00000E+00  9.000E+00
      25     1     1     2     0     0  1.626772598E+01 -1.096665337E+02 -1.413031962E+02  2.188218014E+02  1.250000000E+02  0.00000E+00  9.000E+00
      21     1     1     2   502   512  9.884109560E+00  3.893303544E+01 -1.229938775E+02  1.293869034E+02  1.907348633E-06  0.00000E+00  9.000E+00
#rwgt            2          11   2.3002647612214233E-003           4      312517           0
</event>
<event>
      5   9999  3.79277E-02  3.61466E+01 -1.00000E+00  1.47622E-01
      21    -1     0     0   511   501  0.000000000E+00  0.000000000E+00  1.191449603E+03  1.191449603E+03  0.000000000E+00  0.00000E+00  9.000E+00
      21    -1     0     0   501   502  0.000000000E+00  0.000000000E+00 -3.864094096E+02  3.864094096E+02  0.000000000E+00  0.00000E+00  9.000E+00
      25     1     1     2     0     0 -1.361216099E+02 -1.522722081E+02 -1.602202207E+02  2.881170546E+02  1.250000000E+02  0.00000E+00  9.000E+00
      25     1     1     2     0     0  1.415184902E+02  1.165308061E+02 -8.592216750E+01  2.379380817E+02  1.250000000E+02  0.00000E+00  9.000E+00
      21     1     1     2   511   502 -5.396880359E+00  3.574140202E+01  1.051182582E+03  1.051803876E+03  0.000000000E+00  0.00000E+00  9.000E+00
#rwgt            1           1   3.6385708030958634E-002           4      312567           0
</event>
<event>
      5   9999  3.79277E-02  3.29457E+01 -1.00000E+00  1.50267E-01
      21    -1     0     0   502   512  0.000000000E+00  0.000000000E+00  1.092496622E+03  1.092496622E+03  0.000000000E+00  0.00000E+00  9.000E+00
      21    -1     0     0   501   502  0.000000000E+00  0.000000000E+00 -9.703876612E+01  9.703876612E+01  0.000000000E+00  0.00000E+00  9.000E+00
      25     1     1     2     0     0 -1.277417007E+02 -1.244840847E+02  6.351748800E+02  6.714807202E+02  1.250000000E+02  0.00000E+00  9.000E+00
      25     1     1     2     0     0  1.540034200E+02  1.045908349E+02  8.343684724E+01  2.392551015E+02  1.250000000E+02  0.00000E+00  9.000E+00
      21     1     1     2   501   512 -2.626171924E+01  1.989324976E+01  2.768461282E+02  2.787995659E+02  3.814697266E-06  0.00000E+00  9.000E+00
#rwgt            1           1   4.0375329114848653E-002           4      312758           0
</event>
<event>
      5   9999  3.79277E-02  9.77002E+01 -1.00000E+00  1.24284E-01
      21    -1     0     0   511   501  0.000000000E+00  0.000000000E+00  1.428134313E+03  1.428134313E+03  0.000000000E+00  0.00000E+00  9.000E+00
      21    -1     0     0   501   502  0.000000000E+00  0.000000000E+00 -7.465056507E+01  7.465056507E+01  0.000000000E+00  0.00000E+00  9.000E+00
      25     1     1     2     0     0 -1.070306943E+02  4.253020490E+01  5.177988051E+02  5.449816423E+02  1.250000000E+02  0.00000E+00  9.000E+00
      25     1     1     2     0     0  1.840089210E+02 -1.026939561E+02  2.046115932E+02  3.192118978E+02  1.250000000E+02  0.00000E+00  9.000E+00
      21     1     1     2   511   502 -7.697822675E+01  6.016375117E+01  6.310733497E+02  6.385913381E+02  7.629394531E-06  0.00000E+00  9.000E+00
#rwgt            1           1   2.5150948198361261E-002           4      312873           0
</event>
<event>
      5   9999  3.79277E-02  1.83356E+02 -1.00000E+00  1.13039E-01
      21    -1     0     0   502   501  0.000000000E+00  0.000000000E+00  2.352021388E+02  2.352021388E+02  0.000000000E+00  0.00000E+00  9.000E+00
      21    -1     0     0   501   512  0.000000000E+00  0.000000000E+00 -9.745916100E+02  9.745916100E+02  0.000000000E+00  0.00000E+00  9.000E+00
      25     1     1     2     0     0  2.587293517E+01 -1.318387531E+02  2.510092451E+01  1.852185790E+02  1.250000000E+02  0.00000E+00  9.000E+00
      25     1     1     2     0     0 -7.239054305E+01  3.091961873E+02 -1.317806187E+02  3.658330281E+02  1.250000000E+02  0.00000E+00  9.000E+00
      21     1     1     2   502   512  4.651760789E+01 -1.773574342E+02 -6.327097770E+02  6.587421417E+02  0.000000000E+00  0.00000E+00  9.000E+00
#rwgt            1           1   3.4397782859839104E-002           4      313170           0
</event>
<event>
      5   9999  3.79277E-02  7.01677E+01 -1.00000E+00  1.31168E-01
      21    -1     0     0   511   501  0.000000000E+00  0.000000000E+00  2.238072767E+02  2.238072767E+02  0.000000000E+00  0.00000E+00  9.000E+00
      21    -1     0     0   501   502  0.000000000E+00  0.000000000E+00 -8.585910465E+02  8.585910465E+02  0.000000000E+00  0.00000E+00  9.000E+00
      25     1     1     2     0     0  1.272278943E+02  1.839066061E+02 -1.376688498E+02  2.908372209E+02  1.250000000E+02  0.00000E+00  9.000E+00
      25     1     1     2     0     0 -5.722814760E+01 -1.887580429E+02 -6.130652872E+02  6.560325495E+02  1.250000000E+02  0.00000E+00  9.000E+00
      21     1     1     2   511   502 -6.999974666E+01  4.851436747E+00  1.159503672E+02  1.355285528E+02  1.348699152E-06  0.00000E+00  9.000E+00
#rwgt            1           1   3.3425783586893500E-002           4      313246           0
</event>
<event>
      5   9999  3.79277E-02  4.88691E+01 -1.00000E+00  1.39645E-01
      21    -1     0     0   502   501  0.000000000E+00  0.000000000E+00  8.716731962E+01  8.716731962E+01  0.000000000E+00  0.00000E+00  9.000E+00
      21    -1     0     0   512   502  0.000000000E+00  0.000000000E+00 -2.495556651E+03  2.495556651E+03  0.000000000E+00  0.00000E+00  9.000E+00
      25     1     1     2     0     0 -2.355455970E+02 -1.105110801E+02 -1.899108001E+03  1.920919213E+03  1.250000000E+02  0.00000E+00  9.000E+00
      25     1     1     2     0     0  1.907560450E+02  1.300581734E+02 -1.564844425E+02  3.056392938E+02  1.250000000E+02  0.00000E+00  9.000E+00
      21     1     1     2   512   501  4.478955207E+01 -1.954709334E+01 -3.527968882E+02  3.561654632E+02  0.000000000E+00  0.00000E+00  9.000E+00
#rwgt            1           1   3.2388221005182134E-002           4      313395           0
</event>
<event>
      5   9999  3.79277E-02  6.09515E+01 -1.00000E+00  1.34339E-01
      21    -1     0     0   502   501  0.000000000E+00  0.000000000E+00  4.294180112E+02  4.294180112E+02  0.000000000E+00  0.00000E+00  9.000E+00
      21    -1     0     0   511   502  0.000000000E+00  0.000000000E+00 -2.378213717E+02  2.378213717E+02  0.000000000E+00  0.00000E+00  9.000E+00
      25     1     1     2     0     0  5.785325494E+01  1.306340361E+02  2.737911233E+02  3.331648686E+02  1.250000000E+02  0.00000E+00  9.000E+00
      25     1     1     2     0     0 -5.113036651E-01 -1.099704775E+02  6.189592208E+01  1.776228379E+02  1.250000000E+02  0.00000E+00  9.000E+00
      21     1     1     2   511   501 -5.734195127E+01 -2.066355857E+01 -1.440904058E+02  1.564516765E+02  2.697398305E-06  0.00000E+00  9.000E+00
#rwgt            1           1   3.9503918092972878E-002           4      313662           0
</event>
<event>
      5   9999  3.79277E-02  7.53192E+01 -1.00000E+00  1.29630E-01
       1    -1     0     0   502     0  0.000000000E+00  0.000000000E+00  2.837823588E+03  2.837823588E+03  0.000000000E+00  0.00000E+00  9.000E+00
      21    -1     0     0   501   502  0.000000000E+00  0.000000000E+00 -6.285763533E+01  6.285763533E+01  0.000000000E+00  0.00000E+00  9.000E+00
      25     1     1     2     0     0  1.713645889E+02  1.838897779E+01  1.423796863E+02  2.561268278E+02  1.250000000E+02  0.00000E+00  9.000E+00
      25     1     1     2     0     0 -1.080816753E+02 -5.923326104E+01  1.767786530E+03  1.776480916E+03  1.250000000E+02  0.00000E+00  9.000E+00
       1     1     1     2   501     0 -6.328291361E+01  4.084428325E+01  8.647997359E+02  8.680734795E+02  1.078959322E-05  0.00000E+00  9.000E+00
#rwgt            1           1   3.9570485108466259E-002           4      313813           0
</event>
<event>
      5   9999  3.79277E-02  4.61990E+01 -1.00000E+00  1.41063E-01
       2    -1     0     0   502     0  0.000000000E+00  0.000000000E+00  5.180317605E+02  5.180317605E+02  0.000000000E+00  0.00000E+00  9.000E+00
      21    -1     0     0   501   502  0.000000000E+00  0.000000000E+00 -7.085204561E+02  7.085204561E+02  0.000000000E+00  0.00000E+00  9.000E+00
      25     1     1     2     0     0  4.037878556E+01  1.795185603E+02 -2.132931011E+02  3.081822623E+02  1.250000000E+02  0.00000E+00  9.000E+00
      25     1     1     2     0     0 -6.991214064E+01 -1.439920904E+02 -4.235007631E+02  4.696800249E+02  1.250000000E+02  0.00000E+00  9.000E+00
       2     1     1     2   501     0  2.953335508E+01 -3.552646995E+01  4.463051687E+02  4.486899293E+02  0.000000000E+00  0.00000E+00  9.000E+00
#rwgt            1           1   4.5510057591395398E-002           4      313913           0
</event>
<event>
      5   9999  3.79277E-02  1.22959E+02 -1.00000E+00  1.19921E-01
      21    -1     0     0   502   501  0.000000000E+00  0.000000000E+00  3.714829596E+02  3.714829596E+02  0.000000000E+00  0.00000E+00  9.000E+00
      21    -1     0     0   511   502  0.000000000E+00  0.000000000E+00 -2.135060102E+03  2.135060102E+03  0.000000000E+00  0.00000E+00  9.000E+00
      25     1     1     2     0     0 -5.735308547E+02 -4.626565838E+02 -2.218650466E+02  7.796395671E+02  1.250000000E+02  0.00000E+00  9.000E+00
      25     1     1     2     0     0  4.525038347E+02  4.409449063E+02 -1.172421408E+03  1.337680488E+03  1.250000000E+02  0.00000E+00  9.000E+00
      21     1     1     2   511   501  1.210270199E+02  2.171167746E+01 -3.692906882E+02  3.892230067E+02  0.000000000E+00  0.00000E+00  9.000E+00
#rwgt            1           1   1.0744386892313995E-002           4      314170           0
</event>
<event>
      5   9999  3.79277E-02  1.08638E+02 -1.00000E+00  1.22231E-01
      21    -1     0     0   502   512  0.000000000E+00  0.000000000E+00  1.218674733E+02  1.218674733E+02  0.000000000E+00  0.00000E+00  9.000E+00
      21    -1     0     0   501   502  0.000000000E+00  0.000000000E+00 -4.783176728E+02  4.783176728E+02  0.000000000E+00  0.00000E+00  9.000E+00
      25     1     1     2     0     0  1.530231410E+02  4.320100590E+01 -2.700955038E+02  3.374299775E+02  1.250000000E+02  0.00000E+00  9.000E+00
      25     1     1     2     0     0 -4.862975614E+01 -1.313033938E+01 -7.308674930E+01  1.533099211E+02  1.250000000E+02  0.00000E+00  9.000E+00
      21     1     1     2   501   512 -1.043933848E+02 -3.007066652E+01 -1.326794638E+01  1.094452474E+02  1.517286546E-06  0.00000E+00  9.000E+00
#rwgt            1           1   3.7125159097240103E-002           4      314436           0
</event>
<event>
      5   9999  3.79277E-02  1.64686E+01 -1.00000E+00  1.73645E-01
      21    -1     0     0   502   501  0.000000000E+00  0.000000000E+00  2.183113499E+02  2.183113499E+02  0.000000000E+00  0.00000E+00  9.000E+00
      21    -1     0     0   501   511  0.000000000E+00  0.000000000E+00 -1.862707471E+02  1.862707471E+02  0.000000000E+00  0.00000E+00  9.000E+00
      25     1     1     2     0     0  8.118969642E+01 -1.101511445E+02 -2.993114847E+01  1.877389547E+02  1.250000000E+02  0.00000E+00  9.000E+00
      25     1     1     2     0     0 -6.542796729E+01  1.053779631E+02  7.913094010E+01  1.930596791E+02  1.250000000E+02  0.00000E+00  9.000E+00
      21     1     1     2   502   511 -1.576172913E+01  4.773181402E+00 -1.715918882E+01  2.378346331E+01  3.371747881E-07  0.00000E+00  9.000E+00
#rwgt            1           1   3.4329819584077569E-002           4      314482           0
</event>
<event>
      5   9999  3.79277E-02  7.48069E+01 -1.00000E+00  1.29776E-01
      21    -1     0     0   502   512  0.000000000E+00  0.000000000E+00  1.399401160E+03  1.399401160E+03  0.000000000E+00  0.00000E+00  9.000E+00
      21    -1     0     0   501   502  0.000000000E+00  0.000000000E+00 -7.274938722E+01  7.274938722E+01  0.000000000E+00  0.00000E+00  9.000E+00
      25     1     1     2     0     0 -2.431285897E+02  2.595787761E+00  4.853189005E+02  5.570257484E+02  1.250000000E+02  0.00000E+00  9.000E+00
      25     1     1     2     0     0  1.894362230E+02 -5.468422915E+01  3.672154544E+02  4.351420888E+02  1.250000000E+02  0.00000E+00  9.000E+00
      21     1     1     2   501   512  5.369236671E+01  5.208844139E+01  4.741174175E+02  4.799827097E+02  9.344061824E-06  0.00000E+00  9.000E+00
#rwgt            1           1   3.1253667755484354E-002           4      314640           0
</event>
<event>
      5   9999  3.79277E-02  2.00670E+01 -1.00000E+00  1.66249E-01
      21    -1     0     0   502   501  0.000000000E+00  0.000000000E+00  1.203631929E+03  1.203631929E+03  0.000000000E+00  0.00000E+00  9.000E+00
      21    -1     0     0   511   502  0.000000000E+00  0.000000000E+00 -4.920014935E+01  4.920014935E+01  0.000000000E+00  0.00000E+00  9.000E+00
      25     1     1     2     0     0 -1.818717679E+02 -5.529669554E+01  3.907040669E+02  4.521169455E+02  1.250000000E+02  0.00000E+00  9.000E+00
      25     1     1     2     0     0  1.764739267E+02  3.596934322E+01  7.192723053E+02  7.519404828E+02  1.250000000E+02  0.00000E+00  9.000E+00
      21     1     1     2   511   501  5.397841171E+00  1.932735232E+01  4.445540696E+01  4.877464961E+01  8.259061849E-07  0.00000E+00  9.000E+00
#rwgt            1           1   1.7639769700968051E-002           4      314758           0
</event>
<event>
      5   9999  3.79277E-02  1.59636E+02 -1.00000E+00  1.15332E-01
      21    -1     0     0   502   501  0.000000000E+00  0.000000000E+00  1.184833309E+02  1.184833309E+02  0.000000000E+00  0.00000E+00  9.000E+00
       2    -1     0     0   501     0  0.000000000E+00  0.000000000E+00 -1.745151031E+03  1.745151031E+03  0.000000000E+00  0.00000E+00  9.000E+00
      25     1     1     2     0     0 -1.913945126E+02  5.079899616E+01 -4.273832446E+01  2.380419329E+02  1.250000000E+02  0.00000E+00  9.000E+00
      25     1     1     2     0     0  4.686929884E+01  1.699490041E+01 -2.667457718E+02  2.987705885E+02  1.250000000E+02  0.00000E+00  9.000E+00
       2     1     1     2   502     0  1.445252138E+02 -6.779389657E+01 -1.317183604E+03  1.326821840E+03  2.642899792E-05  0.00000E+00  9.000E+00
#rwgt            2          13   8.5373488061284781E-004           4      314988           0
</event>
<event>
      5   9999  3.79277E-02  5.22675E+01 -1.00000E+00  1.37985E-01
      21    -1     0     0   511   501  0.000000000E+00  0.000000000E+00  8.811351451E+02  8.811351451E+02  0.000000000E+00  0.00000E+00  9.000E+00
      21    -1     0     0   501   502  0.000000000E+00  0.000000000E+00 -2.573877350E+02  2.573877350E+02  0.000000000E+00  0.00000E+00  9.000E+00
      25     1     1     2     0     0  1.218471235E+02 -6.168069271E+01  1.838931617E+02  2.609462096E+02  1.250000000E+02  0.00000E+00  9.000E+00
      25     1     1     2     0     0 -9.181638938E+01  1.890158950E+01 -1.897538058E+02  2.458028199E+02  1.250000000E+02  0.00000E+00  9.000E+00
      21     1     1     2   511   502 -3.003073411E+01  4.277910321E+01  6.296080541E+02  6.317738507E+02  0.000000000E+00  0.00000E+00  9.000E+00
#rwgt            1           1   4.0760021446525296E-002           4      315067           0
</event>
<event>
      5   9999  3.79277E-02  3.38046E+01 -1.00000E+00  1.49523E-01
      -1    -1     0     0     0   501  0.000000000E+00  0.000000000E+00  7.760194177E+02  7.760194177E+02  0.000000000E+00  0.00000E+00  9.000E+00
      21    -1     0     0   501   502  0.000000000E+00  0.000000000E+00 -2.467425305E+02  2.467425305E+02  0.000000000E+00  0.00000E+00  9.000E+00
      25     1     1     2     0     0  1.139495603E+02 -2.891431793E+01  2.834192906E+01  1.739218359E+02  1.250000000E+02  0.00000E+00  9.000E+00
      25     1     1     2     0     0 -1.477500543E+02  2.838826739E+01 -1.183578568E+02  2.286253585E+02  1.250000000E+02  0.00000E+00  9.000E+00
      -1     1     1     2     0   502  3.380049402E+01  5.260505424E-01  6.192928150E+02  6.202147538E+02  7.629394531E-06  0.00000E+00  9.000E+00
#rwgt            1           1   3.4895669015184559E-002           4      315165           0
</event>
<event>
      5   9999  3.79277E-02  1.24914E+02 -1.00000E+00  1.19633E-01
       2    -1     0     0   502     0  0.000000000E+00  0.000000000E+00  1.932721106E+03  1.932721106E+03  0.000000000E+00  0.00000E+00  9.000E+00
      21    -1     0     0   501   502  0.000000000E+00  0.000000000E+00 -5.289309299E+02  5.289309299E+02  0.000000000E+00  0.00000E+00  9.000E+00
      25     1     1     2     0     0 -5.619288996E+01 -7.616137193E+01 -1.132226340E+02  1.933974155E+02  1.250000000E+02  0.00000E+00  9.000E+00
      25     1     1     2     0     0  5.948409298E+01 -4.870892461E+01 -3.591307770E+02  3.879572550E+02  1.250000000E+02  0.00000E+00  9.000E+00
       2     1     1     2   501     0 -3.291203021E+00  1.248702965E+02  1.876143587E+03  1.880297365E+03  2.157918644E-05  0.00000E+00  9.000E+00
#rwgt            1           1   5.3026874317448701E-002           4      315418           0
</event>
<event>
      5   9999  3.79277E-02  2.70628E+01 -1.00000E+00  1.56214E-01
      21    -1     0     0   502   511  0.000000000E+00  0.000000000E+00  8.958005184E+01  8.958005184E+01  0.000000000E+00  0.00000E+00  9.000E+00
      21    -1     0     0   501   502  0.000000000E+00  0.000000000E+00 -6.414578509E+02  6.414578509E+02  0.000000000E+00  0.00000E+00  9.000E+00
      25     1     1     2     0     0  1.412325274E+02  1.565423873E+01 -3.371306031E+02  3.866183202E+02  1.250000000E+02  0.00000E+00  9.000E+00
      25     1     1     2     0     0 -1.501789136E+02  9.887045024E+00 -2.384534526E+02  3.084420672E+02  1.250000000E+02  0.00000E+00  9.000E+00
      21     1     1     2   501   511  8.946386157E+00 -2.554128375E+01  2.370625669E+01  3.597751530E+01  9.536743164E-07  0.00000E+00  9.000E+00
#rwgt            1           1   3.7017266627877819E-002           4      315502           0
</event>
<event>
      5   9999  3.79277E-02  8.96446E+01 -1.00000E+00  1.26002E-01
      21    -1     0     0   512   501  0.000000000E+00  0.000000000E+00  5.090236537E+02  5.090236537E+02  0.000000000E+00  0.00000E+00  9.000E+00
      21    -1     0     0   501   502  0.000000000E+00  0.000000000E+00 -3.047381694E+02  3.047381694E+02  0.000000000E+00  0.00000E+00  9.000E+00
      25     1     1     2     0     0 -3.255718830E+02 -2.975154749E+01  1.355147438E+01  3.502725339E+02  1.250000000E+02  0.00000E+00  9.000E+00
      25     1     1     2     0     0  2.478668381E+02  7.445151715E+01  4.289668079E+01  2.905961511E+02  1.250000000E+02  0.00000E+00  9.000E+00
      21     1     1     2   512   502  7.770504488E+01 -4.469996967E+01  1.478373292E+02  1.728931381E+02  1.907348633E-06  0.00000E+00  9.000E+00
#rwgt            1           1  0.20667411573159528                4      315733           0
</event>
<event>
      5   9999  3.79277E-02  5.27137E+01 -1.00000E+00  1.37778E-01
      21    -1     0     0   511   501  0.000000000E+00  0.000000000E+00  1.170494256E+03  1.170494256E+03  0.000000000E+00  0.00000E+00  9.000E+00
      21    -1     0     0   501   502  0.000000000E+00  0.000000000E+00 -1.105751246E+02  1.105751246E+02  0.000000000E+00  0.00000E+00  9.000E+00
      25     1     1     2     0     0  2.616461228E+02 -4.111291571E+01  5.238811003E+02  6.001877812E+02  1.250000000E+02  0.00000E+00  9.000E+00
      25     1     1     2     0     0 -3.100457278E+02  6.199864687E+01  3.517753014E+02  4.892269905E+02  1.250000000E+02  0.00000E+00  9.000E+00
      21     1     1     2   511   502  4.839960505E+01 -2.088573116E+01  1.842627294E+02  1.916546086E+02  2.697398305E-06  0.00000E+00  9.000E+00
#rwgt            1           1   3.1821382961792766E-002           4      316039           0
</event>
<event>
      5   9999  3.79277E-02  8.34638E+01 -1.00000E+00  1.27465E-01
      21    -1     0     0   512   501  0.000000000E+00  0.000000000E+00  8.610765882E+02  8.610765882E+02  0.000000000E+00  0.00000E+00  9.000E+00
      21    -1     0     0   501   502  0.000000000E+00  0.000000000E+00 -1.087441787E+02  1.087441787E+02  0.000000000E+00  0.00000E+00  9.000E+00
      25     1     1     2     0     0 -3.080108103E+01  7.755593435E+01 -1.662635195E+01  1.512119874E+02  1.250000000E+02  0.00000E+00  9.000E+00
      25     1     1     2     0     0  8.378526449E+01 -1.306657186E+01  2.433711742E+02  2.864353928E+02  1.250000000E+02  0.00000E+00  9.000E+00
      21     1     1     2   512   502 -5.298418347E+01 -6.448936248E+01  5.255875873E+02  5.321733867E+02  7.629394531E-06  0.00000E+00  9.000E+00
#rwgt            1           1   4.1690382908957144E-002           4      316163           0
</event>
<event>
      5   9999  3.79277E-02  2.33970E+01 -1.00000E+00  1.60937E-01
      21    -1     0     0   502   501  0.000000000E+00  0.000000000E+00  1.728806596E+01  1.728806596E+01  0.000000000E+00  0.00000E+00  9.000E+00
      21    -1     0     0   501   511  0.000000000E+00  0.000000000E+00 -1.961511183E+03  1.961511183E+03  0.000000000E+00  0.00000E+00  9.000E+00
      25     1     1     2     0     0  4.954047047E+01 -6.816073744E+01 -4.909694985E+02  5.135914649E+02  1.250000000E+02  0.00000E+00  9.000E+00
      25     1     1     2     0     0 -7.094613651E+01  7.760613783E+01 -1.281253759E+03  1.291623885E+03  1.250000000E+02  0.00000E+00  9.000E+00
      21     1     1     2   502   511  2.140566605E+01 -9.445400382E+00 -1.719998596E+02  1.735838986E+02  1.907348633E-06  0.00000E+00  9.000E+00
#rwgt            1           1  0.10026278746814822                4      316295           0
</event>
<event>
      5   9999  3.79277E-02  2.81843E+01 -1.00000E+00  1.54947E-01
      21    -1     0     0   502   512  0.000000000E+00  0.000000000E+00  6.625769522E+02  6.625769522E+02  0.000000000E+00  0.00000E+00  9.000E+00
      21    -1     0     0   501   502  0.000000000E+00  0.000000000E+00 -7.779263604E+01  7.779263604E+01  0.000000000E+00  0.00000E+00  9.000E+00
      25     1     1     2     0     0  1.461050294E+02  7.900746643E+01  3.426138158E+02  4.007469104E+02  1.250000000E+02  0.00000E+00  9.000E+00
      25     1     1     2     0     0 -1.183185284E+02 -8.372607654E+01  1.498122742E+02  2.430597613E+02  1.250000000E+02  0.00000E+00  9.000E+00
      21     1     1     2   501   512 -2.778650100E+01  4.718610109E+00  9.235822618E+01  9.656291660E+01  1.348699152E-06  0.00000E+00  9.000E+00
#rwgt            1           1   5.8876274325216672E-003           4      316395           0
</event>
<event>
      5   9999  3.79277E-02  2.17575E+01 -1.00000E+00  1.63406E-01
      21    -1     0     0   511   501  0.000000000E+00  0.000000000E+00  9.350380620E+02  9.350380620E+02  0.000000000E+00  0.00000E+00  9.000E+00
      21    -1     0     0   501   502  0.000000000E+00  0.000000000E+00 -1.198469260E+02  1.198469260E+02  0.000000000E+00  0.00000E+00  9.000E+00
      25     1     1     2     0     0  1.930318499E+02  7.553349982E-01  1.015063952E+02  2.513770353E+02  1.250000000E+02  0.00000E+00  9.000E+00
      25     1     1     2     0     0 -1.747759791E+02  1.108157235E+01  2.143894721E+02  3.037388514E+02  1.250000000E+02  0.00000E+00  9.000E+00
      21     1     1     2   511   502 -1.825587078E+01 -1.183690734E+01  4.992952687E+02  4.997691013E+02  5.394796609E-06  0.00000E+00  9.000E+00
#rwgt            1           1   3.3387528227475580E-002           4      316576           0
</event>
<event>
      5   9999  3.79277E-02  1.28648E+01 -1.00000E+00  1.83905E-01
      21    -1     0     0   502   512  0.000000000E+00  0.000000000E+00  9.664305193E+01  9.664305193E+01  0.000000000E+00  0.00000E+00  9.000E+00
      21    -1     0     0   501   502  0.000000000E+00  0.000000000E+00 -5.480899885E+02  5.480899885E+02  0.000000000E+00  0.00000E+00  9.000E+00
      25     1     1     2     0     0 -1.233687350E+02 -8.933135374E+01 -3.241276551E+02  3.793200131E+02  1.250000000E+02  0.00000E+00  9.000E+00
      25     1     1     2     0     0  1.311391462E+02  9.958440526E+01 -1.381081837E+02  2.486230074E+02  1.250000000E+02  0.00000E+00  9.000E+00
      21     1     1     2   501   512 -7.770411178E+00 -1.025305152E+01  1.078890223E+01  1.679001985E+01  1.685873940E-07  0.00000E+00  9.000E+00
#rwgt            1           1  0.15941354735218391                4      316749           0
</event>
<event>
      5   9999  3.79277E-02  9.76156E+00 -1.00000E+00  1.96977E-01
      21    -1     0     0   511   501  0.000000000E+00  0.000000000E+00  2.984651316E+03  2.984651316E+03  0.000000000E+00  0.00000E+00  9.000E+00
      21    -1     0     0   501   502  0.000000000E+00  0.000000000E+00 -1.423304057E+01  1.423304057E+01  0.000000000E+00  0.00000E+00  9.000E+00
      25     1     1     2     0     0  1.233800328E+02  4.478881042E+01  1.879777084E+03  1.888495580E+03  1.250000000E+02  0.00000E+00  9.000E+00
      25     1     1     2     0     0 -1.272817373E+02 -3.584091922E+01  8.365904496E+02  8.561505665E+02  1.250000000E+02  0.00000E+00  9.000E+00
      21     1     1     2   511   502  3.901704590E+00 -8.947891199E+00  2.540507417E+02  2.542382100E+02  4.672030912E-06  0.00000E+00  9.000E+00
#rwgt            1           1   4.2781728965033523E-002           4      316900           0
</event>
<event>
      5   9999  3.79277E-02  2.63728E+01 -1.00000E+00  1.57031E-01
      21    -1     0     0   502   501  0.000000000E+00  0.000000000E+00  1.170651596E+02  1.170651596E+02  0.000000000E+00  0.00000E+00  9.000E+00
       2    -1     0     0   501     0  0.000000000E+00  0.000000000E+00 -1.617869852E+03  1.617869852E+03  0.000000000E+00  0.00000E+00  9.000E+00
      25     1     1     2     0     0  5.144223109E+01  1.185164019E+02  1.760870371E+01  1.806308587E+02  1.250000000E+02  0.00000E+00  9.000E+00
      25     1     1     2     0     0 -2.516754610E+01 -1.207888137E+02 -4.157749929E+02  4.513504045E+02  1.250000000E+02  0.00000E+00  9.000E+00
       2     1     1     2   502     0 -2.627468499E+01  2.272411818E+00 -1.102638404E+03  1.102953749E+03  2.157918644E-05  0.00000E+00  9.000E+00
#rwgt            1           1   4.2762986250877849E-002           4      317156           0
</event>
<event>
      5   9999  3.79277E-02  1.10093E+02 -1.00000E+00  1.21978E-01
      21    -1     0     0   511   501  0.000000000E+00  0.000000000E+00  8.624461771E+02  8.624461771E+02  0.000000000E+00  0.00000E+00  9.000E+00
      21    -1     0     0   501   502  0.000000000E+00  0.000000000E+00 -1.196293602E+02  1.196293602E+02  0.000000000E+00  0.00000E+00  9.000E+00
      25     1     1     2     0     0 -1.282485293E+02  8.016039705E+01  4.749530373E+02  5.138859427E+02  1.250000000E+02  0.00000E+00  9.000E+00
      25     1     1     2     0     0  4.618144914E+01 -6.774089142E+00 -4.156870739E+01  1.397554005E+02  1.250000000E+02  0.00000E+00  9.000E+00
      21     1     1     2   511   502  8.206708015E+01 -7.338630791E+01  3.094324870E+02  3.284341941E+02  0.000000000E+00  0.00000E+00  9.000E+00
#rwgt            1           1   3.9780752488577015E-002           4      317354           0
</event>
<event>
      5   9999  3.79277E-02  6.22415E+01 -1.00000E+00  1.33858E-01
      21    -1     0     0   512   501  0.000000000E+00  0.000000000E+00  6.891860241E+01  6.891860241E+01  0.000000000E+00  0.00000E+00  9.000E+00
      21    -1     0     0   501   502  0.000000000E+00  0.000000000E+00 -5.788351981E+02  5.788351981E+02  0.000000000E+00  0.00000E+00  9.000E+00
      25     1     1     2     0     0  5.218725435E+00 -6.574675007E+01 -1.761940707E+02  2.258743473E+02  1.250000000E+02  0.00000E+00  9.000E+00
      25     1     1     2     0     0 -3.300988652E+01  1.214392372E+02 -3.061113465E+02  3.537884925E+02  1.250000000E+02  0.00000E+00  9.000E+00
      21     1     1     2   512   502  2.779116109E+01 -5.569248713E+01 -2.761117856E+01  6.809096077E+01  6.743495762E-07  0.00000E+00  9.000E+00
#rwgt            1           1   3.5869985126151596E-002           4      317463           0
</event>
<event>
      5   9999  3.79277E-02  1.06301E+01 -1.00000E+00  1.92739E-01
      21    -1     0     0   502   501  0.000000000E+00  0.000000000E+00  5.042007248E+02  5.042007248E+02  0.000000000E+00  0.00000E+00  9.000E+00
      21    -1     0     0   511   502  0.000000000E+00  0.000000000E+00 -1.217669329E+02  1.217669329E+02  0.000000000E+00  0.00000E+00  9.000E+00
      25     1     1     2     0     0  2.694089854E+01  1.028432302E+02  3.839241494E+02  4.175228071E+02  1.250000000E+02  0.00000E+00  9.000E+00
      25     1     1     2     0     0 -2.228129383E+01 -9.328885638E+01  4.249981488E+01  1.631885445E+02  1.250000000E+02  0.00000E+00  9.000E+00
      21     1     1     2   511   501 -4.659604710E+00 -9.554373834E+00 -4.399017234E+01  4.525630605E+01  4.768371582E-07  0.00000E+00  9.000E+00
#rwgt            1           1   4.6781574498308331E-002           4      317532           0
</event>
<event>
      5   9999  3.79277E-02  6.97987E+01 -1.00000E+00  1.31284E-01
      21    -1     0     0   502   501  0.000000000E+00  0.000000000E+00  8.321938523E+02  8.321938523E+02  0.000000000E+00  0.00000E+00  9.000E+00
      21    -1     0     0   501   512  0.000000000E+00  0.000000000E+00 -1.060174559E+02  1.060174559E+02  0.000000000E+00  0.00000E+00  9.000E+00
      25     1     1     2     0     0  1.206107250E+01 -1.562024655E+02  1.140099130E+02  2.305817425E+02  1.250000000E+02  0.00000E+00  9.000E+00
      25     1     1     2     0     0 -6.461483656E+01  2.021368150E+02  5.812752468E+02  6.313004685E+02  1.250000000E+02  0.00000E+00  9.000E+00
      21     1     1     2   502   512  5.255376406E+01 -4.593434948E+01  3.089123655E+01  7.632909717E+01  1.168007728E-06  0.00000E+00  9.000E+00
#rwgt            1           1   3.1633080125565829E-002           4      317797           0
</event>
<event>
      5   9999  3.79277E-02  9.30493E+01 -1.00000E+00  1.25252E-01
       3    -1     0     0   502     0  0.000000000E+00  0.000000000E+00  2.884073778E+02  2.884073778E+02  0.000000000E+00  0.00000E+00  9.000E+00
      21    -1     0     0   501   502  0.000000000E+00  0.000000000E+00 -6.350476139E+02  6.350476139E+02  0.000000000E+00  0.00000E+00  9.000E+00
      25     1     1     2     0     0 -1.995064254E+02  1.279304237E+02 -2.151938264E+02  3.436602828E+02  1.250000000E+02  0.00000E+00  9.000E+00
      25     1     1     2     0     0  1.064738395E+02 -1.261653366E+02 -3.132827303E+02  3.755335401E+02  1.250000000E+02  0.00000E+00  9.000E+00
       3     1     1     2   501     0  9.303258590E+01 -1.765087059E+00  1.818363206E+02  2.042611687E+02  2.697398305E-06  0.00000E+00  9.000E+00
#rwgt            1           1   2.9312533702547671E-002           4      317893           0
</event>
<event>
      5   9999  3.79277E-02  1.70643E+01 -1.00000E+00  1.72266E-01
      21    -1     0     0   502   501  0.000000000E+00  0.000000000E+00  4.866752170E+02  4.866752170E+02  0.000000000E+00  0.00000E+00  9.000E+00
      21    -1     0     0   511   502  0.000000000E+00  0.000000000E+00 -7.686328080E+01  7.686328080E+01  0.000000000E+00  0.00000E+00  9.000E+00
      25     1     1     2     0     0 -3.397505213E+01  2.318486411E+01  3.878801259E+02  4.095947194E+02  1.250000000E+02  0.00000E+00  9.000E+00
      25     1     1     2     0     0  4.659065636E+01 -1.169413083E+01  1.262335397E+01  1.345057286E+02  1.250000000E+02  0.00000E+00  9.000E+00
      21     1     1     2   511   501 -1.261560423E+01 -1.149073328E+01  9.308456328E+00  1.943804982E+01  2.384185791E-07  0.00000E+00  9.000E+00
#rwgt            1           1   2.4839764184402414E-002           4      318063           0
</event>
<event>
      5   9999  3.79277E-02  9.56116E+01 -1.00000E+00  1.24711E-01
      21    -1     0     0   502   501  0.000000000E+00  0.000000000E+00  3.954118715E+02  3.954118715E+02  0.000000000E+00  0.00000E+00  9.000E+00
       1    -1     0     0   501     0  0.000000000E+00  0.000000000E+00 -4.055721832E+02  4.055721832E+02  0.000000000E+00  0.00000E+00  9.000E+00
      25     1     1     2     0     0 -8.802407945E+00  9.928011456E+01  3.231984986E+02  3.605777212E+02  1.250000000E+02  0.00000E+00  9.000E+00
      25     1     1     2     0     0 -5.990220950E+01 -3.278762291E+01 -6.700198414E+01  1.574089222E+02  1.250000000E+02  0.00000E+00  9.000E+00
       1     1     1     2   502     0  6.870461744E+01 -6.649249165E+01 -2.663568262E+02  2.829974113E+02  6.607249480E-06  0.00000E+00  9.000E+00
#rwgt            1           1   2.3540783751241301E-002           4      318295           0
</event>
<event>
      5   9999  3.79277E-02  1.92625E+01 -1.00000E+00  1.67727E-01
      21    -1     0     0   511   501  0.000000000E+00  0.000000000E+00  3.603135519E+02  3.603135519E+02  0.000000000E+00  0.00000E+00  9.000E+00
      21    -1     0     0   501   502  0.000000000E+00  0.000000000E+00 -5.664428563E+02  5.664428563E+02  0.000000000E+00  0.00000E+00  9.000E+00
      25     1     1     2     0     0 -1.041915872E+02  9.393908874E+01 -3.622433901E+02  4.080756216E+02  1.250000000E+02  0.00000E+00  9.000E+00
      25     1     1     2     0     0  1.190575059E+02 -8.168961952E+01 -1.305721466E+02  2.313481557E+02  1.250000000E+02  0.00000E+00  9.000E+00
      21     1     1     2   511   502 -1.486591872E+01 -1.224946922E+01  2.866862323E+02  2.873326310E+02  3.814697266E-06  0.00000E+00  9.000E+00
#rwgt            1           1   2.3046001024935047E-002           4      318394           0
</event>
<event>
      5   9999  3.79277E-02  1.20299E+02 -1.00000E+00  1.20322E-01
      21    -1     0     0   502   501  0.000000000E+00  0.000000000E+00  2.057005952E+01  2.057005952E+01  0.000000000E+00  0.00000E+00  9.000E+00
       2    -1     0     0   501     0  0.000000000E+00  0.000000000E+00 -2.863765911E+03  2.863765911E+03  0.000000000E+00  0.00000E+00  9.000E+00
      25     1     1     2     0     0  1.414526927E+02 -1.995921576E+01 -6.707468340E+02  6.970893414E+02  1.250000000E+02  0.00000E+00  9.000E+00
      25     1     1     2     0     0 -2.119579414E+01  2.314075519E+01 -1.334065623E+03  1.340276405E+03  1.250000000E+02  0.00000E+00  9.000E+00
       2     1     1     2   502     0 -1.202568986E+02 -3.181539428E+00 -8.383833948E+02  8.469702241E+02  1.078959322E-05  0.00000E+00  9.000E+00
#rwgt            1           1  0.12939493536137722                4      318544           0
</event>
<event>
      5   9999  3.79277E-02  8.74353E+01 -1.00000E+00  1.26509E-01
      21    -1     0     0   502   511  0.000000000E+00  0.000000000E+00  9.516420062E+02  9.516420062E+02  0.000000000E+00  0.00000E+00  9.000E+00
      21    -1     0     0   501   502  0.000000000E+00  0.000000000E+00 -1.768966175E+02  1.768966175E+02  0.000000000E+00  0.00000E+00  9.000E+00
      25     1     1     2     0     0  1.036433619E+02  5.125669254E+01 -1.761570241E+01  1.711855951E+02  1.250000000E+02  0.00000E+00  9.000E+00
      25     1     1     2     0     0 -1.890859420E+02 -3.269623437E+01  8.449030943E+01  2.441027439E+02  1.250000000E+02  0.00000E+00  9.000E+00
      21     1     1     2   501   511  8.544258014E+01 -1.856045817E+01  7.078707816E+02  7.132502847E+02  0.000000000E+00  0.00000E+00  9.000E+00
#rwgt            1           1   3.9614726376925223E-002           4      318638           0
</event>
<event>
      5   9999  3.79277E-02  1.68850E+01 -1.00000E+00  1.72674E-01
      21    -1     0     0   512   501  0.000000000E+00  0.000000000E+00  1.020945563E+02  1.020945563E+02  0.000000000E+00  0.00000E+00  9.000E+00
      21    -1     0     0   501   502  0.000000000E+00  0.000000000E+00 -5.120013972E+02  5.120013972E+02  0.000000000E+00  0.00000E+00  9.000E+00
      25     1     1     2     0     0 -3.988471221E+01 -1.091961772E+02 -3.465128427E+02  3.862780676E+02  1.250000000E+02  0.00000E+00  9.000E+00
      25     1     1     2     0     0  2.300715405E+01  1.096961913E+02 -9.432805675E+01  1.925756106E+02  1.250000000E+02  0.00000E+00  9.000E+00
      21     1     1     2   512   502  1.687755816E+01 -5.000140676E-01  3.093405855E+01  3.524227521E+01  7.539457465E-07  0.00000E+00  9.000E+00
#rwgt            1           1   4.8114735457120694E-002           4      318713           0
</event>
<event>
      5   9999  3.79277E-02  7.64641E+01 -1.00000E+00  1.29307E-01
      21    -1     0     0   502   501  0.000000000E+00  0.000000000E+00  2.191075880E+02  2.191075880E+02  0.000000000E+00  0.00000E+00  9.000E+00
      21    -1     0     0   501   511  0.000000000E+00  0.000000000E+00 -2.569526420E+02  2.569526420E+02  0.000000000E+00  0.00000E+00  9.000E+00
      25     1     1     2     0     0 -3.715772592E+01 -8.439707873E+01  6.630748647E+01  1.688941866E+02  1.250000000E+02  0.00000E+00  9.000E+00
      25     1     1     2     0     0  1.059758002E+02  1.177262949E+02 -3.646958308E+01  2.050497043E+02  1.250000000E+02  0.00000E+00  9.000E+00
      21     1     1     2   502   511 -6.881807427E+01 -3.332921620E+01 -6.768295738E+01  1.021163391E+02  9.536743164E-07  0.00000E+00  9.000E+00
#rwgt            1           1   2.8578810320362649E-002           4      318965           0
</event>
<event>
      5   9999  3.79277E-02  1.02490E+01 -1.00000E+00  1.94530E-01
      21    -1     0     0   512   501  0.000000000E+00  0.000000000E+00  4.983467513E+02  4.983467513E+02  0.000000000E+00  0.00000E+00  9.000E+00
      21    -1     0     0   501   502  0.000000000E+00  0.000000000E+00 -1.470722991E+02  1.470722991E+02  0.000000000E+00  0.00000E+00  9.000E+00
      25     1     1     2     0     0  1.805532905E+02  1.434684261E+02  1.328941486E+02  2.940553260E+02  1.250000000E+02  0.00000E+00  9.000E+00
      25     1     1     2     0     0 -1.887697510E+02 -1.373421346E+02  2.075287524E+02  3.364373105E+02  1.250000000E+02  0.00000E+00  9.000E+00
      21     1     1     2   512   502  8.216460450E+00 -6.126291493E+00  1.085155117E+01  1.492641392E+01  2.665600750E-07  0.00000E+00  9.000E+00
#rwgt            1           1   3.7911872920694062E-002           4      319087           0
</event>
<event>
      5   9999  3.79277E-02  1.13626E+01 -1.00000E+00  1.89555E-01
      21    -1     0     0   502   501  0.000000000E+00  0.000000000E+00  7.276663569E+02  7.276663569E+02  0.000000000E+00  0.00000E+00  9.000E+00
      21    -1     0     0   501   511  0.000000000E+00  0.000000000E+00 -1.163546556E+02  1.163546556E+02  0.000000000E+00  0.00000E+00  9.000E+00
      25     1     1     2     0     0  5.895074582E+01 -5.408466466E+01 -5.103390988E+01  1.569388459E+02  1.250000000E+02  0.00000E+00  9.000E+00
      25     1     1     2     0     0 -6.670077625E+01  6.239404586E+01  6.560976196E+02  6.741150473E+02  1.250000000E+02  0.00000E+00  9.000E+00
      21     1     1     2   502   511  7.750030428E+00 -8.309381209E+00  6.247991563E+00  1.296711943E+01  1.192092896E-07  0.00000E+00  9.000E+00
#rwgt            1           1   3.7282248398468179E-002           4      319348           0
</event>
<event>
      5   9999  3.79277E-02  3.80187E+01 -1.00000E+00  1.46222E-01
      21    -1     0     0   502   501  0.000000000E+00  0.000000000E+00  2.506395558E+02  2.506395558E+02  0.000000000E+00  0.00000E+00  9.000E+00
      -3    -1     0     0     0   502  0.000000000E+00  0.000000000E+00 -4.371897832E+02  4.371897832E+02  0.000000000E+00  0.00000E+00  9.000E+00
      25     1     1     2     0     0 -7.733711948E+01 -1.721603797E+02 -8.149737812E+01  2.405972756E+02  1.250000000E+02  0.00000E+00  9.000E+00
      25     1     1     2     0     0  1.111560095E+02  1.547908367E+02  9.256814970E+01  2.459872434E+02  1.250000000E+02  0.00000E+00  9.000E+00
      -3     1     1     2     0   501 -3.381889003E+01  1.736954295E+01 -1.976209990E+02  2.012448200E+02  4.672030912E-06  0.00000E+00  9.000E+00
#rwgt            1           1  0.15590382734578750                4      319610           0
</event>
<event>
      5   9999  3.79277E-02  1.25861E+02 -1.00000E+00  1.19496E-01
      21    -1     0     0   502   501  0.000000000E+00  0.000000000E+00  2.910499934E+01  2.910499934E+01  0.000000000E+00  0.00000E+00  9.000E+00
      21    -1     0     0   501   511  0.000000000E+00  0.000000000E+00 -3.571096287E+03  3.571096287E+03  0.000000000E+00  0.00000E+00  9.000E+00
      25     1     1     2     0     0 -1.992903926E+02 -3.883509362E+01 -1.122896301E+03  1.147931151E+03  1.250000000E+02  0.00000E+00  9.000E+00
      25     1     1     2     0     0  1.739914280E+02  1.621268193E+02 -1.411230152E+03  1.436577065E+03  1.250000000E+02  0.00000E+00  9.000E+00
      21     1     1     2   502   511  2.529896466E+01 -1.232917256E+02 -1.007864835E+03  1.015693071E+03  1.078959322E-05  0.00000E+00  9.000E+00
#rwgt            1           1   6.5378221711859641E-002           4      319840           0
</event>
<event>
      5   9999  3.79277E-02  5.13211E+01 -1.00000E+00  1.38432E-01
      21    -1     0     0   502   501  0.000000000E+00  0.000000000E+00  3.725076150E+02  3.725076150E+02  0.000000000E+00  0.00000E+00  9.000E+00
      21    -1     0     0   512   502  0.000000000E+00  0.000000000E+00 -1.950779518E+02  1.950779518E+02  0.000000000E+00  0.00000E+00  9.000E+00
      25     1     1     2     0     0 -1.932668393E+01 -1.989643826E+02  2.080578106E+02  3.144414076E+02  1.250000000E+02  0.00000E+00  9.000E+00
      25     1     1     2     0     0 -4.588094484E+00  1.535558132E+02 -3.683075246E+01  2.014496034E+02  1.250000000E+02  0.00000E+00  9.000E+00
      21     1     1     2   512   501  2.391477842E+01  4.540856933E+01  6.202605066E+00  5.169455585E+01  6.743495762E-07  0.00000E+00  9.000E+00
#rwgt            1           1   2.9684305611426362E-002           4      319886           0
</event>
<event>
      5   9999  3.79277E-02  1.54930E+02 -1.00000E+00  1.15840E-01
      21    -1     0     0   502   511  0.000000000E+00  0.000000000E+00  1.443374284E+03  1.443374284E+03  0.000000000E+00  0.00000E+00  9.000E+00
      21    -1     0     0   501   502  0.000000000E+00  0.000000000E+00 -1.635665657E+02  1.635665657E+02  0.000000000E+00  0.00000E+00  9.000E+00
      25     1     1     2     0     0  1.092110092E+02 -2.038809291E+02  7.699781503E+01  2.739491582E+02  1.250000000E+02  0.00000E+00  9.000E+00
      25     1     1     2     0     0  2.634148735E+01  1.288558923E+02  7.789791409E+01  1.974608821E+02  1.250000000E+02  0.00000E+00  9.000E+00
      21     1     1     2   501   511 -1.355524965E+02  7.502503686E+01  1.124911990E+03  1.135530810E+03  1.525878906E-05  0.00000E+00  9.000E+00
#rwgt            1           1   4.0040807488284688E-002           4      320002           0
</event>
<event>
      5   9999  3.79277E-02  2.51865E+02 -1.00000E+00  1.08120E-01
      21    -1     0     0   512   501  0.000000000E+00  0.000000000E+00  5.422895793E+02  5.422895793E+02  0.000000000E+00  0.00000E+00  9.000E+00
      21    -1     0     0   501   502  0.000000000E+00  0.000000000E+00 -2.366854991E+02  2.366854991E+02  0.000000000E+00  0.00000E+00  9.000E+00
      25     1     1     2     0     0  3.284383090E+01 -1.968999593E+02  1.241459488E+02  2.662433620E+02  1.250000000E+02  0.00000E+00  9.000E+00
      25     1     1     2     0     0 -1.866594573E+02 -2.541469350E+00  5.693132135E+01  2.317636455E+02  1.250000000E+02  0.00000E+00  9.000E+00
      21     1     1     2   512   502  1.538156263E+02  1.994414287E+02  1.245268100E+02  2.809680708E+02  2.336015456E-06  0.00000E+00  9.000E+00
#rwgt            1           1   3.4301531416766805E-002           4      320088           0
</event>
<event>
      5   9999  3.79277E-02  5.22974E+01 -1.00000E+00  1.37971E-01
      21    -1     0     0   502   501  0.000000000E+00  0.000000000E+00  3.918091967E+02  3.918091967E+02  0.000000000E+00  0.00000E+00  9.000E+00
      21    -1     0     0   501   511  0.000000000E+00  0.000000000E+00 -3.113702557E+02  3.113702557E+02  0.000000000E+00  0.00000E+00  9.000E+00
      25     1     1     2     0     0 -2.302125437E+02 -1.194074432E+02  2.166570043E+02  3.603071055E+02  1.250000000E+02  0.00000E+00  9.000E+00
      25     1     1     2     0     0  2.111520873E+02  7.070721731E+01 -8.363143795E+01  2.687078933E+02  1.250000000E+02  0.00000E+00  9.000E+00
      21     1     1     2   502   511  1.906045643E+01  4.870022592E+01 -5.258662540E+01  7.416445358E+01  6.743495762E-07  0.00000E+00  9.000E+00
#rwgt            1           1   4.0153602458667129E-002           4      320165           0
</event>
<event>
      5   9999  3.79277E-02  5.34564E+01 -1.00000E+00  1.37439E-01
      21    -1     0     0   502   501  0.000000000E+00  0.000000000E+00  6.960862926E+01  6.960862926E+01  0.000000000E+00  0.00000E+00  9.000E+00
      21    -1     0     0   512   502  0.000000000E+00  0.000000000E+00 -5.467068454E+02  5.467068454E+02  0.000000000E+00  0.00000E+00  9.000E+00
      25     1     1     2     0     0  1.094710608E+02 -6.699256164E+01 -2.196018269E+02  2.834111481E+02  1.250000000E+02  0.00000E+00  9.000E+00
      25     1     1     2     0     0 -8.793415690E+01  1.806665696E+01 -1.618724876E+02  2.233529097E+02  1.250000000E+02  0.00000E+00  9.000E+00
      21     1     1     2   512   501 -2.153690387E+01  4.892590468E+01 -9.562390167E+01  1.095514169E+02  1.907348633E-06  0.00000E+00  9.000E+00
#rwgt            1           1   5.2078594788783135E-002           4      320320           0
</event>
<event>
      5   9999  3.79277E-02  4.39008E+01 -1.00000E+00  1.42378E-01
      21    -1     0     0   502   511  0.000000000E+00  0.000000000E+00  1.105549326E+03  1.105549326E+03  0.000000000E+00  0.00000E+00  9.000E+00
      21    -1     0     0   501   502  0.000000000E+00  0.000000000E+00 -1.014612405E+02  1.014612405E+02  0.000000000E+00  0.00000E+00  9.000E+00
      25     1     1     2     0     0 -2.082085783E+01 -6.458722018E+01  3.071514031E+02  3.384848616E+02  1.250000000E+02  0.00000E+00  9.000E+00
      25     1     1     2     0     0  5.062713423E+01  3.235571397E+01 -2.864464513E+01  1.416174941E+02  1.250000000E+02  0.00000E+00  9.000E+00
      21     1     1     2   501   511 -2.980627640E+01  3.223150621E+01  7.255813274E+02  7.269082107E+02  0.000000000E+00  0.00000E+00  9.000E+00
#rwgt            1           1   3.0077992835588669E-002           4      320422           0
</event>
<event>
      5   9999  3.79277E-02  4.23439E+01 -1.00000E+00  1.43323E-01
      21    -1     0     0   502   501  0.000000000E+00  0.000000000E+00  9.853493475E+01  9.853493475E+01  0.000000000E+00  0.00000E+00  9.000E+00
      21    -1     0     0   512   502  0.000000000E+00  0.000000000E+00 -4.817226152E+02  4.817226152E+02  0.000000000E+00  0.00000E+00  9.000E+00
      25     1     1     2     0     0  9.591305132E+01 -1.186341162E+01 -1.498068863E+01  1.587119245E+02  1.250000000E+02  0.00000E+00  9.000E+00
      25     1     1     2     0     0 -9.921694967E+01 -3.035140500E+01 -3.028861596E+02  3.437007951E+02  1.250000000E+02  0.00000E+00  9.000E+00
      21     1     1     2   512   501  3.303898352E+00  4.221481662E+01 -6.532083222E+01  7.784483033E+01  9.536743164E-07  0.00000E+00  9.000E+00
#rwgt            1           1   3.4437984488217679E-002           4      320604           0
</event>
<event>
      5   9999  3.79277E-02  1.35488E+02 -1.00000E+00  1.18172E-01
      21    -1     0     0   502   501  0.000000000E+00  0.000000000E+00  1.657474460E+02  1.657474460E+02  0.000000000E+00  0.00000E+00  9.000E+00
      21    -1     0     0   511   502  0.000000000E+00  0.000000000E+00 -1.614566784E+03  1.614566784E+03  0.000000000E+00  0.00000E+00  9.000E+00
      25     1     1     2     0     0 -1.006913160E+02 -3.220246060E+02 -2.252223491E+02  4.244863891E+02  1.250000000E+02  0.00000E+00  9.000E+00
      25     1     1     2     0     0  3.241849296E+01  2.049957618E+02 -1.758823976E+02  2.993891094E+02  1.250000000E+02  0.00000E+00  9.000E+00
      21     1     1     2   511   501  6.827282301E+01  1.170288442E+02 -1.047714591E+03  1.056438732E+03  1.525878906E-05  0.00000E+00  9.000E+00
#rwgt            1           1   4.6161457575029798E-002           4      320693           0
</event>
<event>
      5   9999 -3.79277E-02  5.73170E+01 -1.00000E+00  1.35774E-01
      21    -1     0     0   502   501  0.000000000E+00  0.000000000E+00  3.763668887E+02  3.763668887E+02  0.000000000E+00  0.00000E+00  9.000E+00
       2    -1     0     0   501     0  0.000000000E+00  0.000000000E+00 -7.541729558E+02  7.541729558E+02  0.000000000E+00  0.00000E+00  9.000E+00
      25     1     1     2     0     0 -2.241828141E+01 -3.282606525E+02  1.319356690E+02  3.758851634E+02  1.250000000E+02  0.00000E+00  9.000E+00
      25     1     1     2     0     0 -2.141072135E+01  2.913248112E+02 -8.890942069E+01  3.299370390E+02  1.250000000E+02  0.00000E+00  9.000E+00
       2     1     1     2   502     0  4.382900276E+01  3.693584133E+01 -4.208323153E+02  4.247176421E+02  0.000000000E+00  0.00000E+00  9.000E+00
#rwgt            1           1  -6.9571325736306491E-002           4      320772           0
</event>
<event>
      5   9999  3.79277E-02  1.66750E+01 -1.00000E+00  1.73159E-01
      21    -1     0     0   511   501  0.000000000E+00  0.000000000E+00  1.993445747E+03  1.993445747E+03  0.000000000E+00  0.00000E+00  9.000E+00
      21    -1     0     0   501   502  0.000000000E+00  0.000000000E+00 -2.835672939E+01  2.835672939E+01  0.000000000E+00  0.00000E+00  9.000E+00
      25     1     1     2     0     0  4.813743113E+01 -1.293513742E+02  6.620466111E+02  6.877352001E+02  1.250000000E+02  0.00000E+00  9.000E+00
      25     1     1     2     0     0 -3.353271438E+01  1.373985702E+02  5.622568884E+02  5.930941060E+02  1.250000000E+02  0.00000E+00  9.000E+00
      21     1     1     2   511   502 -1.460471675E+01 -8.047195997E+00  7.407855182E+02  7.409731703E+02  0.000000000E+00  0.00000E+00  9.000E+00
#rwgt            1           1  0.14602223823807070                4      320977           0
</event>
<event>
      5   9999  3.79277E-02  3.14025E+01 -1.00000E+00  1.51674E-01
      21    -1     0     0   502   501  0.000000000E+00  0.000000000E+00  1.267870804E+02  1.267870804E+02  0.000000000E+00  0.00000E+00  9.000E+00
      21    -1     0     0   501   512  0.000000000E+00  0.000000000E+00 -9.840130203E+02  9.840130203E+02  0.000000000E+00  0.00000E+00  9.000E+00
      25     1     1     2     0     0 -3.819916913E+00 -1.116796407E+02  4.014581962E+01  1.724053965E+02  1.250000000E+02  0.00000E+00  9.000E+00
      25     1     1     2     0     0  1.014258085E+01  1.424390179E+02 -4.305875305E+02  4.705553816E+02  1.250000000E+02  0.00000E+00  9.000E+00
      21     1     1     2   502   512 -6.322663938E+00 -3.075937721E+01 -4.667842290E+02  4.678393227E+02  5.394796609E-06  0.00000E+00  9.000E+00
#rwgt            1           1   3.2849467198945166E-002           4      321180           0
</event>
<event>
      5   9999  3.79277E-02  8.37013E+01 -1.00000E+00  1.27406E-01
      21    -1     0     0   511   501  0.000000000E+00  0.000000000E+00  1.494593819E+02  1.494593819E+02  0.000000000E+00  0.00000E+00  9.000E+00
      21    -1     0     0   501   502  0.000000000E+00  0.000000000E+00 -5.353014058E+02  5.353014058E+02  0.000000000E+00  0.00000E+00  9.000E+00
      25     1     1     2     0     0 -1.388879215E+02 -4.753990654E+00 -3.706393905E+01  1.905549546E+02  1.250000000E+02  0.00000E+00  9.000E+00
      25     1     1     2     0     0  1.927651143E+02 -5.930185981E+01 -3.332264373E+02  4.090720699E+02  1.250000000E+02  0.00000E+00  9.000E+00
      21     1     1     2   511   502 -5.387719288E+01  6.405585046E+01 -1.555164760E+01  8.513376319E+01  1.884864366E-06  0.00000E+00  9.000E+00
#rwgt            1           1   3.3320501418500112E-002           4      321341           0
</event>
<event>
      5   9999  3.79277E-02  6.72334E+01 -1.00000E+00  1.32114E-01
      21    -1     0     0   512   501  0.000000000E+00  0.000000000E+00  1.349337653E+03  1.349337653E+03  0.000000000E+00  0.00000E+00  9.000E+00
      21    -1     0     0   501   502  0.000000000E+00  0.000000000E+00 -5.324163195E+02  5.324163195E+02  0.000000000E+00  0.00000E+00  9.000E+00
      25     1     1     2     0     0 -5.806810161E+02 -1.430593332E+02  1.665636914E+02  6.332652514E+02  1.250000000E+02  0.00000E+00  9.000E+00
      25     1     1     2     0     0  5.746368573E+02  7.609813785E+01 -1.693131058E+00  5.929808690E+02  1.250000000E+02  0.00000E+00  9.000E+00
      21     1     1     2   512   502  6.044158869E+00  6.696119530E+01  6.520507735E+02  6.555078525E+02  7.629394531E-06  0.00000E+00  9.000E+00
#rwgt            1           1   3.8757224708469783E-002           4      321445           0
</event>
<event>
      5   9999  3.79277E-02  1.03608E+01 -1.00000E+00  1.93995E-01
      21    -1     0     0   502   511  0.000000000E+00  0.000000000E+00  2.357132172E+03  2.357132172E+03  0.000000000E+00  0.00000E+00  9.000E+00
      21    -1     0     0   501   502  0.000000000E+00  0.000000000E+00 -1.767952691E+01  1.767952691E+01  0.000000000E+00  0.00000E+00  9.000E+00
      25     1     1     2     0     0  3.230360905E+01 -4.520762949E+01  2.957106407E+02  3.258174887E+02  1.250000000E+02  0.00000E+00  9.000E+00
      25     1     1     2     0     0 -3.517629392E+01  3.525307256E+01  1.794808600E+03  1.799845288E+03  1.250000000E+02  0.00000E+00  9.000E+00
      21     1     1     2   501   511  2.872684877E+00  9.954556924E+00  2.489334047E+02  2.491489223E+02  2.697398305E-06  0.00000E+00  9.000E+00
#rwgt            1           1   4.3452896687658060E-002           4      321620           0
</event>
<event>
      5   9999  3.79277E-02  2.42495E+01 -1.00000E+00  1.59749E-01
      21    -1     0     0   502   501  0.000000000E+00  0.000000000E+00  9.376157114E+01  9.376157114E+01  0.000000000E+00  0.00000E+00  9.000E+00
      21    -1     0     0   501   512  0.000000000E+00  0.000000000E+00 -5.855093187E+02  5.855093187E+02  0.000000000E+00  0.00000E+00  9.000E+00
      25     1     1     2     0     0 -9.542655800E+01 -1.368300002E+02 -2.667545964E+02  3.385434856E+02  1.250000000E+02  0.00000E+00  9.000E+00
      25     1     1     2     0     0  9.848689397E+01  1.608856078E+02 -1.782399844E+02  2.880596104E+02  1.250000000E+02  0.00000E+00  9.000E+00
      21     1     1     2   502   512 -3.060335969E+00 -2.405560759E+01 -4.675316673E+01  5.266779387E+01  9.536743164E-07  0.00000E+00  9.000E+00
#rwgt            1           1   2.9979249551736250E-002           4      321840           0
</event>
<event>
      5   9999  3.79277E-02  3.53526E+01 -1.00000E+00  1.48247E-01
      21    -1     0     0   502   511  0.000000000E+00  0.000000000E+00  6.936804171E+01  6.936804171E+01  0.000000000E+00  0.00000E+00  9.000E+00
      21    -1     0     0   501   502  0.000000000E+00  0.000000000E+00 -1.208366004E+03  1.208366004E+03  0.000000000E+00  0.00000E+00  9.000E+00
      25     1     1     2     0     0  9.817238330E+01  1.023441301E+02 -2.263516572E+02  2.949105128E+02  1.250000000E+02  0.00000E+00  9.000E+00
      25     1     1     2     0     0 -1.164472603E+02 -1.326069475E+02 -9.213702219E+02  9.464104040E+02  1.250000000E+02  0.00000E+00  9.000E+00
      21     1     1     2   501   511  1.827487701E+01  3.026281745E+01  8.723916682E+00  3.641312912E+01  1.918491952E-06  0.00000E+00  9.000E+00
#rwgt            1           1   3.8703543185720578E-002           4      321990           0
</event>
<event>
      5   9999  3.79277E-02  3.60906E+01 -1.00000E+00  1.47666E-01
      21    -1     0     0   502   512  0.000000000E+00  0.000000000E+00  4.873886476E+01  4.873886476E+01  0.000000000E+00  0.00000E+00  9.000E+00
      21    -1     0     0   501   502  0.000000000E+00  0.000000000E+00 -1.290685586E+03  1.290685586E+03  0.000000000E+00  0.00000E+00  9.000E+00
      25     1     1     2     0     0 -3.536263786E+01  1.442896570E+02 -9.382588896E+02  9.581360891E+02  1.250000000E+02  0.00000E+00  9.000E+00
      25     1     1     2     0     0  6.606809192E+01 -1.253237094E+02 -2.811620975E+02  3.387449630E+02  1.250000000E+02  0.00000E+00  9.000E+00
      21     1     1     2   501   512 -3.070545406E+01 -1.896594759E+01 -2.252573428E+01  4.254339880E+01  7.539457465E-07  0.00000E+00  9.000E+00
#rwgt            1           1   2.5357602530360745E-002           4      322183           0
</event>
<event>
      5   9999 -3.79277E-02  5.91936E+00 -1.00000E+00  2.26388E-01
      21    -1     0     0   502   511  0.000000000E+00  0.000000000E+00  1.573751826E+03  1.573751826E+03  0.000000000E+00  0.00000E+00  9.000E+00
      21    -1     0     0   501   502  0.000000000E+00  0.000000000E+00 -3.224476223E+02  3.224476223E+02  0.000000000E+00  0.00000E+00  9.000E+00
      25     1     1     2     0     0 -2.166942843E+01  3.086198274E+02  9.782019908E+01  3.477205104E+02  1.250000000E+02  0.00000E+00  9.000E+00
      25     1     1     2     0     0  1.576433693E+01 -3.090306485E+02 -5.650419268E+01  3.384762618E+02  1.250000000E+02  0.00000E+00  9.000E+00
      21     1     1     2   501   511  5.905091504E+00  4.108210781E-01  1.209988197E+03  1.210002676E+03  1.525878906E-05  0.00000E+00  9.000E+00
#rwgt            1           1 -0.23456551969399678                4      322453           0
</event>
<event>
      5   9999 -3.79277E-02  2.85993E+01 -1.00000E+00  1.54496E-01
      21    -1     0     0   502   501  0.000000000E+00  0.000000000E+00  6.969465679E+02  6.969465679E+02  0.000000000E+00  0.00000E+00  9.000E+00
       2    -1     0     0   501     0  0.000000000E+00  0.000000000E+00 -1.027032137E+03  1.027032137E+03  0.000000000E+00  0.00000E+00  9.000E+00
      25     1     1     2     0     0 -8.582663470E+01  1.490068127E+02  4.272417002E+02  4.772103434E+02  1.250000000E+02  0.00000E+00  9.000E+00
      25     1     1     2     0     0  7.628788418E+01 -1.220451475E+02  2.073526167E+02  2.816646356E+02  1.250000000E+02  0.00000E+00  9.000E+00
       2     1     1     2   502     0  9.538750519E+00 -2.696166517E+01 -9.646798861E+02  9.651037259E+02  1.525878906E-05  0.00000E+00  9.000E+00
#rwgt            1           1 -0.11028764381260138                4      322914           0
</event>
<event>
      5   9999  3.79277E-02  4.07558E+01 -1.00000E+00  1.44338E-01
      21    -1     0     0   502   511  0.000000000E+00  0.000000000E+00  3.603328303E+02  3.603328303E+02  0.000000000E+00  0.00000E+00  9.000E+00
      21    -1     0     0   501   502  0.000000000E+00  0.000000000E+00 -3.888962246E+02  3.888962246E+02  0.000000000E+00  0.00000E+00  9.000E+00
      25     1     1     2     0     0 -2.545425041E+02  1.359055791E+02 -1.867131679E+02  3.657171309E+02  1.250000000E+02  0.00000E+00  9.000E+00
      25     1     1     2     0     0  2.632356942E+02 -9.608767204E+01  1.515490074E+02  3.422250328E+02  1.250000000E+02  0.00000E+00  9.000E+00
      21     1     1     2   501   511 -8.693190097E+00 -3.981790702E+01  6.600766098E+00  4.128689122E+01  1.192092896E-07  0.00000E+00  9.000E+00
#rwgt            1           1   3.2180759586859738E-002           4      323059           0
</event>
<event>
      5   9999  3.79277E-02  3.63993E+01 -1.00000E+00  1.47428E-01
      21    -1     0     0   502   501  0.000000000E+00  0.000000000E+00  7.535742764E+02  7.535742764E+02  0.000000000E+00  0.00000E+00  9.000E+00
      21    -1     0     0   512   502  0.000000000E+00  0.000000000E+00 -5.928696085E+02  5.928696085E+02  0.000000000E+00  0.00000E+00  9.000E+00
      25     1     1     2     0     0 -7.428568362E+01 -1.912472621E+02  4.083999531E+02  4.738242287E+02  1.250000000E+02  0.00000E+00  9.000E+00
      25     1     1     2     0     0  1.052266083E+02  1.720752557E+02  2.666746447E+02  3.569634419E+02  1.250000000E+02  0.00000E+00  9.000E+00
      21     1     1     2   512   501 -3.094092472E+01  1.917200641E+01 -5.143699298E+02  5.156562143E+02  0.000000000E+00  0.00000E+00  9.000E+00
#rwgt            1           1   4.0109942348312201E-002           4      323237           0
</event>
<event>
      5   9999  3.79277E-02  1.38463E+01 -1.00000E+00  1.80722E-01
      21    -1     0     0   502   501  0.000000000E+00  0.000000000E+00  1.710786174E+03  1.710786174E+03  0.000000000E+00  0.00000E+00  9.000E+00
      21    -1     0     0   511   502  0.000000000E+00  0.000000000E+00 -2.560408302E+02  2.560408302E+02  0.000000000E+00  0.00000E+00  9.000E+00
      25     1     1     2     0     0  1.185732966E+02  9.936946954E+01  5.320221874E+02  5.679846178E+02  1.250000000E+02  0.00000E+00  9.000E+00
      25     1     1     2     0     0 -1.139668455E+02 -8.631192765E+01  1.152806254E+03  1.168343036E+03  1.250000000E+02  0.00000E+00  9.000E+00
      21     1     1     2   511   501 -4.606451157E+00 -1.305754188E+01 -2.300830975E+02  2.304993504E+02  3.814697266E-06  0.00000E+00  9.000E+00
#rwgt            1           1   4.2583027487895900E-002           4      323597           0
</event>
<event>
      5   9999  3.79277E-02  4.45089E+01 -1.00000E+00  1.42021E-01
      21    -1     0     0   502   501  0.000000000E+00  0.000000000E+00  6.827378795E+01  6.827378795E+01  0.000000000E+00  0.00000E+00  9.000E+00
      21    -1     0     0   501   512  0.000000000E+00  0.000000000E+00 -1.505742449E+03  1.505742449E+03  0.000000000E+00  0.00000E+00  9.000E+00
      25     1     1     2     0     0 -1.113728436E+02  2.222705092E+02 -3.970870238E+02  4.848826600E+02  1.250000000E+02  0.00000E+00  9.000E+00
      25     1     1     2     0     0  1.169455278E+02 -1.781118831E+02 -6.356964954E+02  6.820081624E+02  1.250000000E+02  0.00000E+00  9.000E+00
      21     1     1     2   502   512 -5.572684163E+00 -4.415862612E+01 -4.046851421E+02  4.071254147E+02  7.629394531E-06  0.00000E+00  9.000E+00
#rwgt            1           1   3.1928610712228515E-002           4      323799           0
</event>
<event>
      5   9999  3.79277E-02  1.08126E+01 -1.00000E+00  1.91915E-01
       1    -1     0     0   502     0  0.000000000E+00  0.000000000E+00  8.668887772E+02  8.668887772E+02  0.000000000E+00  0.00000E+00  9.000E+00
      21    -1     0     0   501   502  0.000000000E+00  0.000000000E+00 -5.842467490E+01  5.842467490E+01  0.000000000E+00  0.00000E+00  9.000E+00
      25     1     1     2     0     0 -1.475781736E+01 -1.315776789E+02  2.430744986E+02  3.037115253E+02  1.250000000E+02  0.00000E+00  9.000E+00
      25     1     1     2     0     0  2.366764160E+01  1.377036301E+02  2.857961926E+02  3.417995183E+02  1.250000000E+02  0.00000E+00  9.000E+00
       1     1     1     2   501     0 -8.909824239E+00 -6.125951270E+00  2.795934112E+02  2.798024085E+02  0.000000000E+00  0.00000E+00  9.000E+00
#rwgt            1           1   4.3065860884768936E-002           4      323951           0
</event>
<event>
      5   9999  3.79277E-02  9.32762E+01 -1.00000E+00  1.25203E-01
      21    -1     0     0   502   501  0.000000000E+00  0.000000000E+00  9.769156280E+02  9.769156280E+02  0.000000000E+00  0.00000E+00  9.000E+00
      21    -1     0     0   501   511  0.000000000E+00  0.000000000E+00 -1.712869112E+02  1.712869112E+02  0.000000000E+00  0.00000E+00  9.000E+00
      25     1     1     2     0     0 -2.198485218E+01 -2.310243858E+01  8.701293945E+02  8.796403921E+02  1.250000000E+02  0.00000E+00  9.000E+00
      25     1     1     2     0     0 -2.859224877E+01 -5.527111824E+01  2.199376262E+01  1.413546561E+02  1.250000000E+02  0.00000E+00  9.000E+00
      21     1     1     2   502   511  5.057710096E+01  7.837355682E+01 -8.649444025E+01  1.272074909E+02  2.523185073E-06  0.00000E+00  9.000E+00
#rwgt            1           1   4.6381520025070164E-002           4      324161           0
</event>
<event>
      5   9999  3.79277E-02  1.46929E+01 -1.00000E+00  1.78234E-01
      21    -1     0     0   502   512  0.000000000E+00  0.000000000E+00  5.263213489E+02  5.263213489E+02  0.000000000E+00  0.00000E+00  9.000E+00
      21    -1     0     0   501   502  0.000000000E+00  0.000000000E+00 -7.987428445E+01  7.987428445E+01  0.000000000E+00  0.00000E+00  9.000E+00
      25     1     1     2     0     0 -5.628576451E+01  1.216588391E+02  1.513807117E+02  2.377184896E+02  1.250000000E+02  0.00000E+00  9.000E+00
      25     1     1     2     0     0  6.970892690E+01 -1.276338154E+02  2.193895666E+02  2.913872119E+02  1.250000000E+02  0.00000E+00  9.000E+00
      21     1     1     2   501   512 -1.342316239E+01  5.974976315E+00  7.567678615E+01  7.708993185E+01  0.000000000E+00  0.00000E+00  9.000E+00
#rwgt            1           1   4.0180103082877720E-002           4      324321           0
</event>
<event>
      5   9999  3.79277E-02  3.88186E+01 -1.00000E+00  1.45652E-01
      21    -1     0     0   502   501  0.000000000E+00  0.000000000E+00  1.857298868E+03  1.857298868E+03  0.000000000E+00  0.00000E+00  9.000E+00
      21    -1     0     0   501   511  0.000000000E+00  0.000000000E+00 -7.682106673E+01  7.682106673E+01  0.000000000E+00  0.00000E+00  9.000E+00
      25     1     1     2     0     0  1.949918084E+02 -2.096028864E+01  1.090120886E+03  1.114652271E+03  1.250000000E+02  0.00000E+00  9.000E+00
      25     1     1     2     0     0 -1.605107759E+02  3.879113836E+01  7.330617133E+02  7.617564815E+02  1.250000000E+02  0.00000E+00  9.000E+00
      21     1     1     2   502   511 -3.448103250E+01 -1.783084972E+01 -4.270479793E+01  5.771118237E+01  1.846782373E-06  0.00000E+00  9.000E+00
#rwgt            1           1  0.19017991683688451                4      324523           0
</event>
<event>
      5   9999  3.79277E-02  2.80526E+01 -1.00000E+00  1.55092E-01
      21    -1     0     0   502   512  0.000000000E+00  0.000000000E+00  2.173981359E+02  2.173981359E+02  0.000000000E+00  0.00000E+00  9.000E+00
      21    -1     0     0   501   502  0.000000000E+00  0.000000000E+00 -2.077599519E+03  2.077599519E+03  0.000000000E+00  0.00000E+00  9.000E+00
      25     1     1     2     0     0 -7.849957459E+00  1.592906515E+01 -2.017647421E+03  2.021593795E+03  1.250000000E+02  0.00000E+00  9.000E+00
      25     1     1     2     0     0  1.867983392E+01  9.948747231E+00  1.435519529E+01  1.275891273E+02  1.250000000E+02  0.00000E+00  9.000E+00
      21     1     1     2   501   512 -1.082987646E+01 -2.587781238E+01  1.430908419E+02  1.458147332E+02  1.907348633E-06  0.00000E+00  9.000E+00
#rwgt            2          11   1.7481698698168060E-003           4      324890           0
</event>
<event>
      5   9999  3.79277E-02  2.38877E+02 -1.00000E+00  1.08910E-01
      21    -1     0     0   502   501  0.000000000E+00  0.000000000E+00  2.817394689E+03  2.817394689E+03  0.000000000E+00  0.00000E+00  9.000E+00
      21    -1     0     0   501   511  0.000000000E+00  0.000000000E+00 -6.657345248E+01  6.657345248E+01  0.000000000E+00  0.00000E+00  9.000E+00
      25     1     1     2     0     0  1.099594050E+02 -1.179267498E+02  2.939062424E+02  3.577760031E+02  1.250000000E+02  0.00000E+00  9.000E+00
      25     1     1     2     0     0  1.125387588E+02  2.048577571E+02  1.924202870E+03  1.942373125E+03  1.250000000E+02  0.00000E+00  9.000E+00
      21     1     1     2   502   511 -2.224981638E+02 -8.693100724E+01  5.327121244E+02  5.838190134E+02  7.629394531E-06  0.00000E+00  9.000E+00
#rwgt            2          11   2.9309729464057316E-003           4      325030           0
</event>
<event>
      5   9999  3.79277E-02  1.27862E+01 -1.00000E+00  1.84176E-01
      21    -1     0     0   502   501  0.000000000E+00  0.000000000E+00  2.323761324E+03  2.323761324E+03  0.000000000E+00  0.00000E+00  9.000E+00
      21    -1     0     0   501   512  0.000000000E+00  0.000000000E+00 -5.795604905E+01  5.795604905E+01  0.000000000E+00  0.00000E+00  9.000E+00
      25     1     1     2     0     0 -3.839714656E+01 -1.610920059E+02  1.072195965E+03  1.092087067E+03  1.250000000E+02  0.00000E+00  9.000E+00
      25     1     1     2     0     0  3.958587798E+01  1.738227785E+02  1.231003577E+03  1.250110478E+03  1.250000000E+02  0.00000E+00  9.000E+00
      21     1     1     2   502   512 -1.188731422E+00 -1.273077256E+01 -3.739426666E+01  3.951982833E+01  3.405298437E-06  0.00000E+00  9.000E+00
#rwgt            2          11   1.8739997545596514E-003           4      325050           0
</event>
<event>
      5   9999  3.79277E-02  1.05918E+02 -1.00000E+00  1.22715E-01
      21    -1     0     0   502   501  0.000000000E+00  0.000000000E+00  2.336414292E+02  2.336414292E+02  0.000000000E+00  0.00000E+00  9.000E+00
      21    -1     0     0   501   511  0.000000000E+00  0.000000000E+00 -7.597592625E+02  7.597592625E+02  0.000000000E+00  0.00000E+00  9.000E+00
      25     1     1     2     0     0 -3.287313144E+02 -2.963627000E+01 -4.785122971E+01  3.561703605E+02  1.250000000E+02  0.00000E+00  9.000E+00
      25     1     1     2     0     0  2.757521658E+02 -6.207964861E+01 -4.002261281E+02  5.056669787E+02  1.250000000E+02  0.00000E+00  9.000E+00
      21     1     1     2   502   511  5.297914855E+01  9.171591862E+01 -7.804047537E+01  1.315633524E+02  1.651812370E-06  0.00000E+00  9.000E+00
#rwgt            2          11   3.8627994887600013E-003           4      325160           0
</event>
<event>
      5   9999  3.79277E-02  1.90962E+01 -1.00000E+00  1.68043E-01
      21    -1     0     0   512   501  0.000000000E+00  0.000000000E+00  1.634812659E+02  1.634812659E+02  0.000000000E+00  0.00000E+00  9.000E+00
      21    -1     0     0   501   502  0.000000000E+00  0.000000000E+00 -2.780516455E+02  2.780516455E+02  0.000000000E+00  0.00000E+00  9.000E+00
      25     1     1     2     0     0  1.263530349E+02  1.090908956E+01  2.984438108E+01  1.805541047E+02  1.250000000E+02  0.00000E+00  9.000E+00
      25     1     1     2     0     0 -1.079361961E+02 -5.860921667E+00 -1.645637124E+02  2.332183275E+02  1.250000000E+02  0.00000E+00  9.000E+00
      21     1     1     2   512   502 -1.841683875E+01 -5.048167890E+00  2.014895172E+01  2.776047917E+01  4.129530925E-07  0.00000E+00  9.000E+00
#rwgt            1           1   3.7452168204831708E-002           4      325195           0
</event>
<event>
      5   9999 -3.79277E-02  1.10671E+02 -1.00000E+00  1.21879E-01
      21    -1     0     0   511   501  0.000000000E+00  0.000000000E+00  1.479160855E+03  1.479160855E+03  0.000000000E+00  0.00000E+00  9.000E+00
      21    -1     0     0   501   502  0.000000000E+00  0.000000000E+00 -1.450754945E+02  1.450754945E+02  0.000000000E+00  0.00000E+00  9.000E+00
      25     1     1     2     0     0 -1.112546183E+02  3.083667451E+01 -5.097881536E+01  1.776297559E+02  1.250000000E+02  0.00000E+00  9.000E+00
      25     1     1     2     0     0  1.585683905E+01 -8.693805217E+01  1.792435198E+02  2.357178476E+02  1.250000000E+02  0.00000E+00  9.000E+00
      21     1     1     2   511   502  9.539777920E+01  5.610137766E+01  1.205820656E+03  1.210888746E+03  1.525878906E-05  0.00000E+00  9.000E+00
#rwgt            1           1  -4.5772334590825858E-002           4      325680           0
</event>
<event>
      5   9999  3.79277E-02  1.07687E+02 -1.00000E+00  1.22398E-01
      21    -1     0     0   512   501  0.000000000E+00  0.000000000E+00  3.638983657E+02  3.638983657E+02  0.000000000E+00  0.00000E+00  9.000E+00
      21    -1     0     0   501   502  0.000000000E+00  0.000000000E+00 -2.923134410E+02  2.923134410E+02  0.000000000E+00  0.00000E+00  9.000E+00
      25     1     1     2     0     0 -6.205642459E+01 -1.156214287E+02  1.351924254E+02  2.261002134E+02  1.250000000E+02  0.00000E+00  9.000E+00
      25     1     1     2     0     0  1.557246954E+02  1.687503184E+02 -1.414331831E+02  2.972460193E+02  1.250000000E+02  0.00000E+00  9.000E+00
      21     1     1     2   512   502 -9.366827085E+01 -5.312888975E+01  7.782568245E+01  1.328655739E+02  1.907348633E-06  0.00000E+00  9.000E+00
#rwgt            2          11   2.3415960194052036E-003           4      325824           0
</event>
<event>
      5   9999  3.79277E-02  9.61757E+01 -1.00000E+00  1.24594E-01
      -2    -1     0     0     0   501  0.000000000E+00  0.000000000E+00  1.460655273E+02  1.460655273E+02  0.000000000E+00  0.00000E+00  9.000E+00
      21    -1     0     0   501   502  0.000000000E+00  0.000000000E+00 -6.254227498E+02  6.254227498E+02  0.000000000E+00  0.00000E+00  9.000E+00
      25     1     1     2     0     0  1.992216435E+02  1.013265773E+02 -1.359766917E+02  2.899499943E+02  1.250000000E+02  0.00000E+00  9.000E+00
      25     1     1     2     0     0 -1.899074752E+02 -5.602964270E+00 -2.988784036E+02  3.755656301E+02  1.250000000E+02  0.00000E+00  9.000E+00
      -2     1     1     2     0   502 -9.314168266E+00 -9.572361300E+01 -4.450212722E+01  1.059726528E+02  1.846782373E-06  0.00000E+00  9.000E+00
#rwgt            1           1   2.7745034606716536E-002           4      325889           0
</event>
<event>
      5   9999  3.79277E-02  7.20172E+01 -1.00000E+00  1.30599E-01
      21    -1     0     0   511   501  0.000000000E+00  0.000000000E+00  1.770314624E+03  1.770314624E+03  0.000000000E+00  0.00000E+00  9.000E+00
      21    -1     0     0   501   502  0.000000000E+00  0.000000000E+00 -3.635030859E+01  3.635030859E+01  0.000000000E+00  0.00000E+00  9.000E+00
      25     1     1     2     0     0 -1.436110571E+02 -1.865171822E+01  7.106369150E+02  7.359360348E+02  1.250000000E+02  0.00000E+00  9.000E+00
      25     1     1     2     0     0  1.823668245E+02 -4.204813142E+01  5.901789755E+02  6.316343303E+02  1.250000000E+02  0.00000E+00  9.000E+00
      21     1     1     2   511   502 -3.875576743E+01  6.069984964E+01  4.331484246E+02  4.390945672E+02  0.000000000E+00  0.00000E+00  9.000E+00
#rwgt            1           1   4.1359059867154518E-002           4      326165           0
</event>
<event>
      5   9999 -6.27793E-02  1.16199E+02 -1.00000E+00  1.20965E-01
      21    -1     0     0   502   501  0.000000000E+00  0.000000000E+00  1.676235534E+03  1.676235534E+03  0.000000000E+00  0.00000E+00  9.000E+00
       5    -1     0     0   501     0  0.000000000E+00  0.000000000E+00 -4.178324875E+02  4.178324875E+02  0.000000000E+00  0.00000E+00  9.000E+00
      25     1     1     2     0     0  2.399581321E+02  3.838414602E+00  1.100559564E+03  1.133336222E+03  1.250000000E+02  0.00000E+00  9.000E+00
      25     1     1     2     0     0 -2.049942985E+02 -1.146519054E+02  5.179767390E+02  5.823166011E+02  1.250000000E+02  0.00000E+00  9.000E+00
       5     1     1     2   502     0 -3.496383361E+01  1.108134908E+02 -3.601332568E+02  3.784151979E+02  3.814697266E-06  0.00000E+00  9.000E+00
#rwgt            1           1 -0.59965723503096591                4      326223           0
</event>
<event>
      5   9999  3.79277E-02  6.03310E+01 -1.00000E+00  1.34576E-01
      -1    -1     0     0     0   501  0.000000000E+00  0.000000000E+00  9.625099217E+02  9.625099217E+02  0.000000000E+00  0.00000E+00  9.000E+00
      21    -1     0     0   501   502  0.000000000E+00  0.000000000E+00 -2.197706345E+02  2.197706345E+02  0.000000000E+00  0.00000E+00  9.000E+00
      25     1     1     2     0     0  8.385215903E+01  4.094928382E+01 -1.547742943E+02  2.197455588E+02  1.250000000E+02  0.00000E+00  9.000E+00
      25     1     1     2     0     0 -1.035639054E+02 -9.796924189E+01  2.579669206E+02  3.201490075E+02  1.250000000E+02  0.00000E+00  9.000E+00
      -1     1     1     2     0   502  1.971174635E+01  5.701995807E+01  6.395466609E+02  6.423859899E+02  0.000000000E+00  0.00000E+00  9.000E+00
#rwgt            1           1   5.2847716662610053E-002           4      326344           0
</event>
<event>
      5   9999  3.79277E-02  1.70872E+01 -1.00000E+00  1.72214E-01
      21    -1     0     0   511   501  0.000000000E+00  0.000000000E+00  7.164306064E+02  7.164306064E+02  0.000000000E+00  0.00000E+00  9.000E+00
      21    -1     0     0   501   502  0.000000000E+00  0.000000000E+00 -9.350155719E+01  9.350155719E+01  0.000000000E+00  0.00000E+00  9.000E+00
      25     1     1     2     0     0 -8.377293036E+01 -1.541909019E+02  1.170244040E+02  2.451784029E+02  1.250000000E+02  0.00000E+00  9.000E+00
      25     1     1     2     0     0  8.252990178E+01  1.712328492E+02  4.249551370E+02  4.820204786E+02  1.250000000E+02  0.00000E+00  9.000E+00
      21     1     1     2   511   502  1.243028579E+00 -1.704194730E+01  8.094950815E+01  8.273328205E+01  1.907348633E-06  0.00000E+00  9.000E+00
#rwgt            1           1   4.4960022874974213E-002           4      326538           0
</event>
<event>
      5   9999  3.79277E-02  5.90373E+01 -1.00000E+00  1.35080E-01
      21    -1     0     0   502   501  0.000000000E+00  0.000000000E+00  4.127216207E+02  4.127216207E+02  0.000000000E+00  0.00000E+00  9.000E+00
      21    -1     0     0   512   502  0.000000000E+00  0.000000000E+00 -1.663318864E+02  1.663318864E+02  0.000000000E+00  0.00000E+00  9.000E+00
      25     1     1     2     0     0 -6.148297128E+01 -1.600789316E+02  1.204780066E+02  2.440192004E+02  1.250000000E+02  0.00000E+00  9.000E+00
      25     1     1     2     0     0  1.141575974E+02  1.334183325E+02  1.585521808E+02  2.675746672E+02  1.250000000E+02  0.00000E+00  9.000E+00
      21     1     1     2   512   501 -5.267462608E+01  2.666059910E+01 -3.264045313E+01  6.745963947E+01  4.768371582E-07  0.00000E+00  9.000E+00
#rwgt            1           1   4.7380199606889134E-002           4      326723           0
</event>
<event>
      5   9999  3.79277E-02  2.58865E+01 -1.00000E+00  1.57626E-01
      21    -1     0     0   502   501  0.000000000E+00  0.000000000E+00  1.213258727E+02  1.213258727E+02  0.000000000E+00  0.00000E+00  9.000E+00
      21    -1     0     0   511   502  0.000000000E+00  0.000000000E+00 -3.227700107E+02  3.227700107E+02  0.000000000E+00  0.00000E+00  9.000E+00
      25     1     1     2     0     0 -9.591971452E+01 -3.208801075E+01  1.890566412E+01  1.619032310E+02  1.250000000E+02  0.00000E+00  9.000E+00
      25     1     1     2     0     0  7.083130485E+01  3.846621379E+01 -1.723204316E+02  2.276314005E+02  1.250000000E+02  0.00000E+00  9.000E+00
      21     1     1     2   511   501  2.508840967E+01 -6.378203038E+00 -4.802937046E+01  5.456125183E+01  6.743495762E-07  0.00000E+00  9.000E+00
#rwgt            1           1   4.3013554307663224E-002           4      326800           0
</event>
<event>
      5   9999 -3.79277E-02  1.63651E+01 -1.00000E+00  1.73893E-01
      21    -1     0     0   502   501  0.000000000E+00  0.000000000E+00  1.157868091E+03  1.157868091E+03  0.000000000E+00  0.00000E+00  9.000E+00
      21    -1     0     0   501   512  0.000000000E+00  0.000000000E+00 -2.497006847E+02  2.497006847E+02  0.000000000E+00  0.00000E+00  9.000E+00
      25     1     1     2     0     0  1.996933292E+02 -1.328570798E+02  7.015247409E+02  7.518579597E+02  1.250000000E+02  0.00000E+00  9.000E+00
      25     1     1     2     0     0 -2.091131047E+02  1.462393319E+02  3.839456623E+02  4.776541682E+02  1.250000000E+02  0.00000E+00  9.000E+00
      21     1     1     2   502   512  9.419775532E+00 -1.338225213E+01 -1.773029973E+02  1.780566474E+02  1.907348633E-06  0.00000E+00  9.000E+00
#rwgt            1           1  -5.6883797026878173E-002           4      326899           0
</event>
<event>
      5   9999  3.79277E-02  5.63911E+01 -1.00000E+00  1.36159E-01
      21    -1     0     0   502   501  0.000000000E+00  0.000000000E+00  3.779099177E+02  3.779099177E+02  0.000000000E+00  0.00000E+00  9.000E+00
      21    -1     0     0   501   511  0.000000000E+00  0.000000000E+00 -5.320479990E+02  5.320479990E+02  0.000000000E+00  0.00000E+00  9.000E+00
      25     1     1     2     0     0  3.307296029E+02  1.140190362E+02  1.633319131E+02  4.058136576E+02  1.250000000E+02  0.00000E+00  9.000E+00
      25     1     1     2     0     0 -3.036109647E+02 -6.457680251E+01 -2.614125020E+02  4.246307543E+02  1.250000000E+02  0.00000E+00  9.000E+00
      21     1     1     2   502   511 -2.711863827E+01 -4.944223365E+01 -5.605749242E+01  7.951350493E+01  6.743495762E-07  0.00000E+00  9.000E+00
#rwgt            1           1   4.4378385140541501E-002           4      327149           0
</event>
<event>
      5   9999  3.79277E-02  6.14076E+01 -1.00000E+00  1.34167E-01
      21    -1     0     0   512   501  0.000000000E+00  0.000000000E+00  7.427119972E+01  7.427119972E+01  0.000000000E+00  0.00000E+00  9.000E+00
      21    -1     0     0   501   502  0.000000000E+00  0.000000000E+00 -4.834893876E+02  4.834893876E+02  0.000000000E+00  0.00000E+00  9.000E+00
      25     1     1     2     0     0  2.348898098E+01 -2.877862027E+01 -2.615949768E+02  2.922958657E+02  1.250000000E+02  0.00000E+00  9.000E+00
      25     1     1     2     0     0 -2.316783126E+01  9.018534672E+01 -8.408915926E+01  1.771048612E+02  1.250000000E+02  0.00000E+00  9.000E+00
      21     1     1     2   512   502 -3.211497211E-01 -6.140672645E+01 -6.353405186E+01  8.835986044E+01  1.907348633E-06  0.00000E+00  9.000E+00
#rwgt            1           1   4.2031316010755042E-002           4      327364           0
</event>
<event>
      5   9999  3.79277E-02  7.72526E+01 -1.00000E+00  1.29088E-01
      21    -1     0     0   502   511  0.000000000E+00  0.000000000E+00  7.752697499E+01  7.752697499E+01  0.000000000E+00  0.00000E+00  9.000E+00
      21    -1     0     0   501   502  0.000000000E+00  0.000000000E+00 -7.354932929E+02  7.354932929E+02  0.000000000E+00  0.00000E+00  9.000E+00
      25     1     1     2     0     0  5.759764852E+01  1.229209723E+02 -1.910673626E+02  2.656290488E+02  1.250000000E+02  0.00000E+00  9.000E+00
      25     1     1     2     0     0  2.070398871E+00 -7.385280061E+01 -4.435124504E+02  4.666763507E+02  1.250000000E+02  0.00000E+00  9.000E+00
      21     1     1     2   501   511 -5.966804739E+01 -4.906817167E+01 -2.338650494E+01  8.071486830E+01  5.840038640E-07  0.00000E+00  9.000E+00
#rwgt            1           1   4.1010318715434965E-002           4      327470           0
</event>
<event>
      5   9999  3.79277E-02  4.09534E+01 -1.00000E+00  1.44209E-01
      21    -1     0     0   502   501  0.000000000E+00  0.000000000E+00  1.402166903E+03  1.402166903E+03  0.000000000E+00  0.00000E+00  9.000E+00
       2    -1     0     0   501     0  0.000000000E+00  0.000000000E+00 -2.176787262E+03  2.176787262E+03  0.000000000E+00  0.00000E+00  9.000E+00
      25     1     1     2     0     0 -1.318191784E+02 -1.507697453E+02  8.280510011E+02  8.610466145E+02  1.250000000E+02  0.00000E+00  9.000E+00
      25     1     1     2     0     0  1.187571356E+02  1.119552524E+02  5.384679674E+02  5.763766023E+02  1.250000000E+02  0.00000E+00  9.000E+00
       2     1     1     2   502     0  1.306204279E+01  3.881449287E+01 -2.141139328E+03  2.141530948E+03  3.051757812E-05  0.00000E+00  9.000E+00
#rwgt            1           1   2.9379561597079107E-002           4      327573           0
</event>
<event>
      5   9999  3.79277E-02  2.46957E+01 -1.00000E+00  1.59150E-01
      21    -1     0     0   502   511  0.000000000E+00  0.000000000E+00  1.976212548E+02  1.976212548E+02  0.000000000E+00  0.00000E+00  9.000E+00
      21    -1     0     0   501   502  0.000000000E+00  0.000000000E+00 -5.341097551E+02  5.341097551E+02  0.000000000E+00  0.00000E+00  9.000E+00
      25     1     1     2     0     0 -1.264584031E+02  2.114558982E+02 -2.540081020E+01  2.774446355E+02  1.250000000E+02  0.00000E+00  9.000E+00
      25     1     1     2     0     0  1.433602630E+02 -1.934502675E+02 -3.270159774E+02  4.248995416E+02  1.250000000E+02  0.00000E+00  9.000E+00
      21     1     1     2   501   511 -1.690185980E+01 -1.800563070E+01  1.592828733E+01  2.938683275E+01  3.371747881E-07  0.00000E+00  9.000E+00
#rwgt            1           1   4.2294270511974312E-002           4      327706           0
</event>
<event>
      5   9999  3.79277E-02  8.62704E+01 -1.00000E+00  1.26783E-01
      21    -1     0     0   502   512  0.000000000E+00  0.000000000E+00  1.615816203E+02  1.615816203E+02  0.000000000E+00  0.00000E+00  9.000E+00
      21    -1     0     0   501   502  0.000000000E+00  0.000000000E+00 -4.841443376E+02  4.841443376E+02  0.000000000E+00  0.00000E+00  9.000E+00
      25     1     1     2     0     0 -5.271372622E+01 -9.927739429E+01  1.398318066E+01  1.686868913E+02  1.250000000E+02  0.00000E+00  9.000E+00
      25     1     1     2     0     0  1.356794772E+02  7.562841153E+01 -3.360736913E+02  3.907673261E+02  1.250000000E+02  0.00000E+00  9.000E+00
      21     1     1     2   501   512 -8.296575096E+01  2.364898276E+01 -4.722066611E-01  8.627174043E+01  1.597971513E-06  0.00000E+00  9.000E+00
#rwgt            2          11   2.6221847512930903E-003           4      328265           0
</event>
<event>
      5   9999  3.79277E-02  6.64193E+01 -1.00000E+00  1.32386E-01
      21    -1     0     0   502   501  0.000000000E+00  0.000000000E+00  2.879346110E+02  2.879346110E+02  0.000000000E+00  0.00000E+00  9.000E+00
      21    -1     0     0   501   511  0.000000000E+00  0.000000000E+00 -2.452738682E+02  2.452738682E+02  0.000000000E+00  0.00000E+00  9.000E+00
      25     1     1     2     0     0  3.728920287E+00  1.827984809E+02  5.906904078E+01  2.292233431E+02  1.250000000E+02  0.00000E+00  9.000E+00
      25     1     1     2     0     0 -6.986134339E+01 -1.889645023E+02 -1.456932607E+01  2.375404296E+02  1.250000000E+02  0.00000E+00  9.000E+00
      21     1     1     2   502   511  6.613242310E+01  6.166021427E+00 -1.838971835E+00  6.644470651E+01  5.866593029E-07  0.00000E+00  9.000E+00
#rwgt            1           1   3.5599991112025130E-002           4      328300           0
</event>
<event>
      5   9999  3.79277E-02  4.13177E+01 -1.00000E+00  1.43973E-01
      21    -1     0     0   502   512  0.000000000E+00  0.000000000E+00  2.816895957E+02  2.816895957E+02  0.000000000E+00  0.00000E+00  9.000E+00
      21    -1     0     0   501   502  0.000000000E+00  0.000000000E+00 -2.744960848E+02  2.744960848E+02  0.000000000E+00  0.00000E+00  9.000E+00
      25     1     1     2     0     0  1.150348708E+01  1.496983052E+02  9.311352076E+01  2.164186696E+02  1.250000000E+02  0.00000E+00  9.000E+00
      25     1     1     2     0     0 -5.195941118E+01 -1.580928696E+02 -1.548405540E+02  2.594103564E+02  1.250000000E+02  0.00000E+00  9.000E+00
      21     1     1     2   501   512  4.045592410E+01  8.394564373E+00  6.892054415E+01  8.035665444E+01  1.348699152E-06  0.00000E+00  9.000E+00
#rwgt            1           1   3.1294019737527184E-002           4      328388           0
</event>
<event>
      5   9999  3.79277E-02  4.21232E+01 -1.00000E+00  1.43461E-01
      21    -1     0     0   511   501  0.000000000E+00  0.000000000E+00  5.339498775E+02  5.339498775E+02  0.000000000E+00  0.00000E+00  9.000E+00
      21    -1     0     0   501   502  0.000000000E+00  0.000000000E+00 -8.569352586E+01  8.569352586E+01  0.000000000E+00  0.00000E+00  9.000E+00
      25     1     1     2     0     0  1.230303362E+02 -4.928796355E+01  8.907957731E+01  2.027953108E+02  1.250000000E+02  0.00000E+00  9.000E+00
      25     1     1     2     0     0 -1.077895508E+02  1.001860052E+01  2.491265999E+02  2.990117429E+02  1.250000000E+02  0.00000E+00  9.000E+00
      21     1     1     2   511   502 -1.524078546E+01  3.926936303E+01  1.100501744E+02  1.178363497E+02  1.348699152E-06  0.00000E+00  9.000E+00
#rwgt            1           1   3.9260047060809648E-002           4      328510           0
</event>
<event>
      5   9999  3.79277E-02  5.61541E+01 -1.00000E+00  1.36259E-01
       2    -1     0     0   502     0  0.000000000E+00  0.000000000E+00  1.461061446E+03  1.461061446E+03  0.000000000E+00  0.00000E+00  9.000E+00
      21    -1     0     0   501   502  0.000000000E+00  0.000000000E+00 -2.232263703E+02  2.232263703E+02  0.000000000E+00  0.00000E+00  9.000E+00
      25     1     1     2     0     0 -1.182644029E+02  2.027885686E+02  1.732309431E+02  3.174013739E+02  1.250000000E+02  0.00000E+00  9.000E+00
      25     1     1     2     0     0  1.148605441E+02 -1.467377152E+02 -6.677641038E+01  2.341132005E+02  1.250000000E+02  0.00000E+00  9.000E+00
       2     1     1     2   501     0  3.403858827E+00 -5.605085332E+01  1.131380543E+03  1.132773242E+03  1.525878906E-05  0.00000E+00  9.000E+00
#rwgt            1           1   3.5944188059815516E-002           4      328666           0
</event>
<event>
      5   9999  3.79277E-02  4.61490E+01 -1.00000E+00  1.41091E-01
       2    -1     0     0   502     0  0.000000000E+00  0.000000000E+00  2.458405394E+02  2.458405394E+02  0.000000000E+00  0.00000E+00  9.000E+00
      21    -1     0     0   501   502  0.000000000E+00  0.000000000E+00 -4.199021127E+02  4.199021127E+02  0.000000000E+00  0.00000E+00  9.000E+00
      25     1     1     2     0     0 -1.787241803E+02 -2.463540494E+01 -1.762339108E+02  2.814829073E+02  1.250000000E+02  0.00000E+00  9.000E+00
      25     1     1     2     0     0  2.176938909E+02 -8.484146236E-02 -1.015055169E+02  2.707748277E+02  1.250000000E+02  0.00000E+00  9.000E+00
       2     1     1     2   501     0 -3.896971061E+01  2.472024640E+01  1.036778544E+02  1.134849171E+02  1.348699152E-06  0.00000E+00  9.000E+00
#rwgt            1           1   2.6904551931230012E-002           4      328788           0
</event>
<event>
      5   9999  3.79277E-02  1.32400E+01 -1.00000E+00  1.82647E-01
      21    -1     0     0   502   511  0.000000000E+00  0.000000000E+00  4.168231333E+02  4.168231333E+02  0.000000000E+00  0.00000E+00  9.000E+00
      21    -1     0     0   501   502  0.000000000E+00  0.000000000E+00 -2.350350051E+02  2.350350051E+02  0.000000000E+00  0.00000E+00  9.000E+00
      25     1     1     2     0     0 -1.475343734E+02 -2.294995129E+00 -2.843027373E+01  1.954608370E+02  1.250000000E+02  0.00000E+00  9.000E+00
      25     1     1     2     0     0  1.343170511E+02  3.070136413E+00 -5.443549128E+01  1.914124308E+02  1.250000000E+02  0.00000E+00  9.000E+00
      21     1     1     2   501   511  1.321732236E+01 -7.751412833E-01  2.646538932E+02  2.649848706E+02  3.814697266E-06  0.00000E+00  9.000E+00
#rwgt            1           1   3.2336173272461702E-002           4      328919           0
</event>
<event>
      5   9999  3.79277E-02  5.81324E+01 -1.00000E+00  1.35441E-01
      21    -1     0     0   502   501  0.000000000E+00  0.000000000E+00  5.622335605E+02  5.622335605E+02  0.000000000E+00  0.00000E+00  9.000E+00
       2    -1     0     0   501     0  0.000000000E+00  0.000000000E+00 -2.462589433E+03  2.462589433E+03  0.000000000E+00  0.00000E+00  9.000E+00
      25     1     1     2     0     0  1.761951965E+02 -7.606896389E+01  3.842402340E+02  4.473217991E+02  1.250000000E+02  0.00000E+00  9.000E+00
      25     1     1     2     0     0 -1.907600903E+02  1.979076421E+01  5.641159487E+01  2.357718270E+02  1.250000000E+02  0.00000E+00  9.000E+00
       2     1     1     2   502     0  1.456489380E+01  5.627819968E+01 -2.341007701E+03  2.341729367E+03  3.051757812E-05  0.00000E+00  9.000E+00
#rwgt            1           1   2.6663160449700650E-002           4      329200           0
</event>
<event>
      5   9999  3.79277E-02  3.58150E+01 -1.00000E+00  1.47881E-01
      21    -1     0     0   502   501  0.000000000E+00  0.000000000E+00  1.704367683E+02  1.704367683E+02  0.000000000E+00  0.00000E+00  9.000E+00
      21    -1     0     0   501   511  0.000000000E+00  0.000000000E+00 -4.537666784E+02  4.537666784E+02  0.000000000E+00  0.00000E+00  9.000E+00
      25     1     1     2     0     0  3.980148736E+01  6.432415961E+01 -3.135684026E+02  3.459362644E+02  1.250000000E+02  0.00000E+00  9.000E+00
      25     1     1     2     0     0 -6.316614688E+01 -9.146833539E+01  1.035089992E+02  1.967117978E+02  1.250000000E+02  0.00000E+00  9.000E+00
      21     1     1     2   502   511  2.336465952E+01  2.714417578E+01 -7.327050670E+01  8.155538453E+01  0.000000000E+00  0.00000E+00  9.000E+00
#rwgt            1           1   4.0120568234554795E-002           4      329389           0
</event>
<event>
      5   9999  3.79277E-02  1.39521E+02 -1.00000E+00  1.17654E-01
      21    -1     0     0   502   501  0.000000000E+00  0.000000000E+00  3.254098235E+02  3.254098235E+02  0.000000000E+00  0.00000E+00  9.000E+00
      21    -1     0     0   501   512  0.000000000E+00  0.000000000E+00 -1.207308112E+03  1.207308112E+03  0.000000000E+00  0.00000E+00  9.000E+00
      25     1     1     2     0     0 -3.933637490E+01 -2.013341603E+02  1.628325236E+02  2.902106567E+02  1.250000000E+02  0.00000E+00  9.000E+00
      25     1     1     2     0     0  1.765495990E+02  2.266052391E+02 -1.694402295E+02  3.561666557E+02  1.250000000E+02  0.00000E+00  9.000E+00
      21     1     1     2   502   512 -1.372132241E+02 -2.527107877E+01 -8.752905828E+02  8.863406233E+02  1.078959322E-05  0.00000E+00  9.000E+00
#rwgt            1           1   3.2298929099654899E-002           4      329453           0
</event>
<event>
      5   9999  3.79277E-02  6.18026E+01 -1.00000E+00  1.34020E-01
      -2    -1     0     0     0   501  0.000000000E+00  0.000000000E+00  6.049350257E+02  6.049350257E+02  0.000000000E+00  0.00000E+00  9.000E+00
      21    -1     0     0   501   502  0.000000000E+00  0.000000000E+00 -1.327503387E+02  1.327503387E+02  0.000000000E+00  0.00000E+00  9.000E+00
      25     1     1     2     0     0 -3.923854228E+01  1.672751357E+02  1.099273764E+01  2.127591937E+02  1.250000000E+02  0.00000E+00  9.000E+00
      25     1     1     2     0     0 -1.989184568E+00 -1.212334715E+02  2.485549358E+02  3.034898146E+02  1.250000000E+02  0.00000E+00  9.000E+00
      -2     1     1     2     0   502  4.122772685E+01 -4.604166416E+01  2.126370135E+02  2.214363562E+02  2.697398305E-06  0.00000E+00  9.000E+00
#rwgt            1           1   5.0079238483555701E-002           4      329501           0
</event>
<event>
      5   9999  3.79277E-02  1.11679E+02 -1.00000E+00  1.21708E-01
      21    -1     0     0   502   501  0.000000000E+00  0.000000000E+00  8.206502998E+02  8.206502998E+02  0.000000000E+00  0.00000E+00  9.000E+00
      21    -1     0     0   511   502  0.000000000E+00  0.000000000E+00 -2.678409829E+02  2.678409829E+02  0.000000000E+00  0.00000E+00  9.000E+00
      25     1     1     2     0     0  2.425698038E+02  2.321074012E+02  3.709586511E+02  5.157027014E+02  1.250000000E+02  0.00000E+00  9.000E+00
      25     1     1     2     0     0 -2.385597853E+02 -1.204999914E+02  2.925784025E+02  4.155215286E+02  1.250000000E+02  0.00000E+00  9.000E+00
      21     1     1     2   511   501 -4.010018505E+00 -1.116074098E+02 -1.107277367E+02  1.572670526E+02  4.046097457E-06  0.00000E+00  9.000E+00
#rwgt            1           1   3.6885868206838125E-002           4      329556           0
</event>
<event>
      5   9999  3.79277E-02  1.69607E+01 -1.00000E+00  1.72501E-01
      21    -1     0     0   502   512  0.000000000E+00  0.000000000E+00  2.485827917E+01  2.485827917E+01  0.000000000E+00  0.00000E+00  9.000E+00
      21    -1     0     0   501   502  0.000000000E+00  0.000000000E+00 -1.377277624E+03  1.377277624E+03  0.000000000E+00  0.00000E+00  9.000E+00
      25     1     1     2     0     0 -6.188971157E+00 -7.688043609E+01 -3.221472261E+02  3.540518890E+02  1.250000000E+02  0.00000E+00  9.000E+00
      25     1     1     2     0     0  2.211800339E+01  7.105539851E+01 -1.014647907E+03  1.025023634E+03  1.250000000E+02  0.00000E+00  9.000E+00
      21     1     1     2   501   512 -1.592903223E+01  5.825037580E+00 -1.562421200E+01  2.306038012E+01  3.371747881E-07  0.00000E+00  9.000E+00
#rwgt            1           1   3.9730171833749876E-002           4      329718           0
</event>
<event>
      5   9999  3.79277E-02  4.62913E+01 -1.00000E+00  1.41013E-01
      21    -1     0     0   502   501  0.000000000E+00  0.000000000E+00  7.393315725E+02  7.393315725E+02  0.000000000E+00  0.00000E+00  9.000E+00
      21    -1     0     0   501   511  0.000000000E+00  0.000000000E+00 -1.037255095E+02  1.037255095E+02  0.000000000E+00  0.00000E+00  9.000E+00
      25     1     1     2     0     0  3.139922237E+01  1.534094821E+00  4.502466058E+01  1.365301603E+02  1.250000000E+02  0.00000E+00  9.000E+00
      25     1     1     2     0     0 -7.726215819E+01  4.748718601E+00  6.292570343E+02  6.462053905E+02  1.250000000E+02  0.00000E+00  9.000E+00
      21     1     1     2   502   511  4.586293582E+01 -6.282813422E+00 -3.867563190E+01  6.032153123E+01  0.000000000E+00  0.00000E+00  9.000E+00
#rwgt            1           1   2.9146849892560577E-002           4      329868           0
</event>
<event>
      5   9999  3.79277E-02  1.90165E+01 -1.00000E+00  1.68196E-01
      -1    -1     0     0     0   501  0.000000000E+00  0.000000000E+00  5.960084496E+02  5.960084496E+02  0.000000000E+00  0.00000E+00  9.000E+00
      21    -1     0     0   501   502  0.000000000E+00  0.000000000E+00 -1.916251676E+02  1.916251676E+02  0.000000000E+00  0.00000E+00  9.000E+00
      25     1     1     2     0     0  1.152848211E+02 -2.205284651E+02  8.112877280E+01  2.900521879E+02  1.250000000E+02  0.00000E+00  9.000E+00
      25     1     1     2     0     0 -1.014889572E+02  2.336167484E+02  1.455891241E+02  3.189012177E+02  1.250000000E+02  0.00000E+00  9.000E+00
      -1     1     1     2     0   502 -1.379586396E+01 -1.308828328E+01  1.776653850E+02  1.786802117E+02  0.000000000E+00  0.00000E+00  9.000E+00
#rwgt            2           5   9.6108487599435616E-006           4      329928           0
</event>
<event>
      5   9999  3.79277E-02  1.61818E+01 -1.00000E+00  1.74336E-01
      21    -1     0     0   511   501  0.000000000E+00  0.000000000E+00  1.479081581E+02  1.479081581E+02  0.000000000E+00  0.00000E+00  9.000E+00
      21    -1     0     0   501   502  0.000000000E+00  0.000000000E+00 -9.222839424E+02  9.222839424E+02  0.000000000E+00  0.00000E+00  9.000E+00
      25     1     1     2     0     0 -1.012216862E+02  1.095518890E+02 -2.809618777E+02  3.417777390E+02  1.250000000E+02  0.00000E+00  9.000E+00
      25     1     1     2     0     0  9.451699308E+01 -1.242793857E+02 -5.938788596E+02  6.266545520E+02  1.250000000E+02  0.00000E+00  9.000E+00
      21     1     1     2   511   502  6.704693098E+00  1.472749667E+01  1.004649530E+02  1.017598096E+02  1.907348633E-06  0.00000E+00  9.000E+00
#rwgt            1           1   2.7082628145572118E-002           4      330052           0
</event>
<event>
      5   9999  3.79277E-02  2.47408E+01 -1.00000E+00  1.59091E-01
      21    -1     0     0   502   512  0.000000000E+00  0.000000000E+00  7.837393159E+02  7.837393159E+02  0.000000000E+00  0.00000E+00  9.000E+00
      21    -1     0     0   501   502  0.000000000E+00  0.000000000E+00 -2.194810817E+02  2.194810817E+02  0.000000000E+00  0.00000E+00  9.000E+00
      25     1     1     2     0     0 -3.919508398E+01  2.748098435E+02  1.692951648E+02  3.483425864E+02  1.250000000E+02  0.00000E+00  9.000E+00
      25     1     1     2     0     0  6.150632821E+01 -2.641179350E+02  4.258067927E+01  3.016279600E+02  1.250000000E+02  0.00000E+00  9.000E+00
      21     1     1     2   501   512 -2.231124424E+01 -1.069190848E+01  3.523823901E+02  3.532498512E+02  3.814697266E-06  0.00000E+00  9.000E+00
#rwgt            1           1   3.1762219703555673E-002           4      330286           0
</event>
<event>
      5   9999  3.79277E-02  1.55438E+02 -1.00000E+00  1.15784E-01
      21    -1     0     0   502   511  0.000000000E+00  0.000000000E+00  8.938607926E+02  8.938607926E+02  0.000000000E+00  0.00000E+00  9.000E+00
      21    -1     0     0   501   502  0.000000000E+00  0.000000000E+00 -1.067479375E+02  1.067479375E+02  0.000000000E+00  0.00000E+00  9.000E+00
      25     1     1     2     0     0  7.944669740E+00 -1.941141180E+01  4.595893350E+02  4.767465549E+02  1.250000000E+02  0.00000E+00  9.000E+00
      25     1     1     2     0     0 -1.253678723E+02  1.212585308E+02  7.495848020E+01  2.272982808E+02  1.250000000E+02  0.00000E+00  9.000E+00
      21     1     1     2   501   511  1.174232026E+02 -1.018471190E+02  2.525650399E+02  2.965638945E+02  3.814697266E-06  0.00000E+00  9.000E+00
#rwgt            1           1   4.2797459493707321E-002           4      330654           0
</event>
<event>
      5   9999  3.79277E-02  1.61729E+01 -1.00000E+00  1.74358E-01
      21    -1     0     0   512   501  0.000000000E+00  0.000000000E+00  3.243180569E+02  3.243180569E+02  0.000000000E+00  0.00000E+00  9.000E+00
      21    -1     0     0   501   502  0.000000000E+00  0.000000000E+00 -5.765548952E+02  5.765548952E+02  0.000000000E+00  0.00000E+00  9.000E+00
      25     1     1     2     0     0 -4.300255569E+01  2.847971101E+02  8.376274717E+01  3.249612462E+02  1.250000000E+02  0.00000E+00  9.000E+00
      25     1     1     2     0     0  3.326016253E+01 -2.718878990E+02 -4.052160069E+02  5.048309423E+02  1.250000000E+02  0.00000E+00  9.000E+00
      21     1     1     2   512   502  9.742393165E+00 -1.290921112E+01  6.921642139E+01  7.108076355E+01  1.907348633E-06  0.00000E+00  9.000E+00
#rwgt            1           1   2.0502020119218620E-002           4      330720           0
</event>
<event>
      5   9999  3.79277E-02  3.51796E+01 -1.00000E+00  1.48386E-01
      21    -1     0     0   511   501  0.000000000E+00  0.000000000E+00  3.216907183E+02  3.216907183E+02  0.000000000E+00  0.00000E+00  9.000E+00
      21    -1     0     0   501   502  0.000000000E+00  0.000000000E+00 -3.793672809E+02  3.793672809E+02  0.000000000E+00  0.00000E+00  9.000E+00
      25     1     1     2     0     0 -1.470719511E+02 -8.585189868E+01 -1.771353578E+02  2.756857673E+02  1.250000000E+02  0.00000E+00  9.000E+00
      25     1     1     2     0     0  1.268225698E+02  1.146193094E+02 -7.734234532E+01  2.254515218E+02  1.250000000E+02  0.00000E+00  9.000E+00
      21     1     1     2   511   502  2.024938129E+01 -2.876741070E+01  1.968011406E+02  1.999207100E+02  2.697398305E-06  0.00000E+00  9.000E+00
#rwgt            1           1  0.20635394593111506                4      331108           0
</event>
<event>
      5   9999  3.79277E-02  3.33840E+01 -1.00000E+00  1.49884E-01
      21    -1     0     0   502   512  0.000000000E+00  0.000000000E+00  5.061753944E+02  5.061753944E+02  0.000000000E+00  0.00000E+00  9.000E+00
      21    -1     0     0   501   502  0.000000000E+00  0.000000000E+00 -1.483971316E+02  1.483971316E+02  0.000000000E+00  0.00000E+00  9.000E+00
      25     1     1     2     0     0  6.966683379E+01  1.034820326E+02 -6.171172767E+01  1.870704042E+02  1.250000000E+02  0.00000E+00  9.000E+00
      25     1     1     2     0     0 -3.645556907E+01 -1.000901417E+02  3.891711111E+02  4.224052541E+02  1.250000000E+02  0.00000E+00  9.000E+00
      21     1     1     2   501   512 -3.321126472E+01 -3.391890847E+00  3.031887944E+01  4.509686772E+01  4.768371582E-07  0.00000E+00  9.000E+00
#rwgt            1           1   3.9115523124728740E-002           4      331430           0
</event>
<event>
      5   9999  3.79277E-02  2.82281E+01 -1.00000E+00  1.54899E-01
      21    -1     0     0   502   501  0.000000000E+00  0.000000000E+00  9.845901394E+02  9.845901394E+02  0.000000000E+00  0.00000E+00  9.000E+00
      21    -1     0     0   511   502  0.000000000E+00  0.000000000E+00 -4.071346630E+01  4.071346630E+01  0.000000000E+00  0.00000E+00  9.000E+00
      25     1     1     2     0     0  1.805671512E+01  3.481360740E+01  6.830429414E+02  6.954931287E+02  1.250000000E+02  0.00000E+00  9.000E+00
      25     1     1     2     0     0 -4.553966315E+01 -2.837040853E+01  2.681238475E+02  3.006561800E+02  1.250000000E+02  0.00000E+00  9.000E+00
      21     1     1     2   511   501  2.748294803E+01 -6.443198872E+00 -7.290115807E+00  2.915429699E+01  9.233911863E-07  0.00000E+00  9.000E+00
#rwgt            1           1   8.9093887936181032E-002           4      331604           0
</event>
<event>
      5   9999  3.79277E-02  2.22973E+01 -1.00000E+00  1.62565E-01
      21    -1     0     0   502   501  0.000000000E+00  0.000000000E+00  7.495603274E+01  7.495603274E+01  0.000000000E+00  0.00000E+00  9.000E+00
      21    -1     0     0   501   512  0.000000000E+00  0.000000000E+00 -1.274531670E+03  1.274531670E+03  0.000000000E+00  0.00000E+00  9.000E+00
      25     1     1     2     0     0  4.319983889E+01  1.384656791E+02 -2.698556929E+02  3.308867863E+02  1.250000000E+02  0.00000E+00  9.000E+00
      25     1     1     2     0     0 -6.068588627E+01 -1.523006887E+02 -1.957454205E+02  2.842877877E+02  1.250000000E+02  0.00000E+00  9.000E+00
      21     1     1     2   502   512  1.748604739E+01  1.383500965E+01 -7.339745243E+02  7.343131292E+02  1.078959322E-05  0.00000E+00  9.000E+00
#rwgt            1           1   3.4455632737781010E-002           4      331765           0
</event>
<event>
      5   9999  3.79277E-02  2.84137E+01 -1.00000E+00  1.54697E-01
      21    -1     0     0   502   501  0.000000000E+00  0.000000000E+00  2.634234345E+02  2.634234345E+02  0.000000000E+00  0.00000E+00  9.000E+00
      21    -1     0     0   511   502  0.000000000E+00  0.000000000E+00 -1.798973125E+02  1.798973125E+02  0.000000000E+00  0.00000E+00  9.000E+00
      25     1     1     2     0     0 -5.512515169E+01  5.248264624E+01 -8.532833464E+01  1.694081911E+02  1.250000000E+02  0.00000E+00  9.000E+00
      25     1     1     2     0     0  3.479340983E+01 -7.233104511E+01  1.880325873E+02  2.396322502E+02  1.250000000E+02  0.00000E+00  9.000E+00
      21     1     1     2   511   501  2.033174185E+01  1.984839888E+01 -1.917813067E+01  3.428030572E+01  5.331201500E-07  0.00000E+00  9.000E+00
#rwgt            2          11   2.0997714585064648E-003           4      332030           0
</event>
<event>
      5   9999  3.79277E-02  5.91695E+01 -1.00000E+00  1.35028E-01
      21    -1     0     0   502   512  0.000000000E+00  0.000000000E+00  5.981271318E+01  5.981271318E+01  0.000000000E+00  0.00000E+00  9.000E+00
      21    -1     0     0   501   502  0.000000000E+00  0.000000000E+00 -1.346478513E+03  1.346478513E+03  0.000000000E+00  0.00000E+00  9.000E+00
      25     1     1     2     0     0 -2.035019558E+02 -1.331022421E+02 -6.263156062E+02  6.833926335E+02  1.250000000E+02  0.00000E+00  9.000E+00
      25     1     1     2     0     0  1.443401655E+02  1.321455601E+02 -5.625577507E+02  6.085990103E+02  1.250000000E+02  0.00000E+00  9.000E+00
      21     1     1     2   501   512  5.916179023E+01  9.566819323E-01 -9.779244298E+01  1.142995825E+02  0.000000000E+00  0.00000E+00  9.000E+00
#rwgt            1           1   3.4945546057391683E-002           4      332065           0
</event>
<event>
      5   9999  3.79277E-02  3.14193E+01 -1.00000E+00  1.51658E-01
      21    -1     0     0   502   511  0.000000000E+00  0.000000000E+00  2.436057909E+02  2.436057909E+02  0.000000000E+00  0.00000E+00  9.000E+00
      21    -1     0     0   501   502  0.000000000E+00  0.000000000E+00 -1.006365860E+03  1.006365860E+03  0.000000000E+00  0.00000E+00  9.000E+00
      25     1     1     2     0     0 -3.629825573E+01 -1.054041518E+02 -9.506203671E+01  1.925860571E+02  1.250000000E+02  0.00000E+00  9.000E+00
      25     1     1     2     0     0  4.520926469E+01  1.355333540E+02 -8.507417498E+02  8.716648969E+02  1.250000000E+02  0.00000E+00  9.000E+00
      21     1     1     2   501   511 -8.911008956E+00 -3.012920225E+01  1.830437172E+02  1.857206970E+02  3.814697266E-06  0.00000E+00  9.000E+00
#rwgt            1           1   3.5881433685860678E-002           4      332197           0
</event>
<event>
      5   9999  3.79277E-02  2.73673E+01 -1.00000E+00  1.55863E-01
      21    -1     0     0   512   501  0.000000000E+00  0.000000000E+00  5.707589731E+02  5.707589731E+02  0.000000000E+00  0.00000E+00  9.000E+00
      21    -1     0     0   501   502  0.000000000E+00  0.000000000E+00 -8.604981501E+01  8.604981501E+01  0.000000000E+00  0.00000E+00  9.000E+00
      25     1     1     2     0     0  1.110091997E+02  7.697654525E+01  2.317923231E+02  2.959748503E+02  1.250000000E+02  0.00000E+00  9.000E+00
      25     1     1     2     0     0 -8.537660950E+01 -8.656502013E+01  9.114105351E+01  1.967596498E+02  1.250000000E+02  0.00000E+00  9.000E+00
      21     1     1     2   512   502 -2.563259018E+01  9.588474882E+00  1.617757814E+02  1.640742880E+02  1.907348633E-06  0.00000E+00  9.000E+00
#rwgt            1           1   6.8266481672335746E-002           4      332283           0
</event>
<event>
      5   9999  3.79277E-02  1.30906E+02 -1.00000E+00  1.18786E-01
       1    -1     0     0   502     0  0.000000000E+00  0.000000000E+00  1.243734258E+03  1.243734258E+03  0.000000000E+00  0.00000E+00  9.000E+00
      21    -1     0     0   501   502  0.000000000E+00  0.000000000E+00 -2.251668584E+02  2.251668584E+02  0.000000000E+00  0.00000E+00  9.000E+00
      25     1     1     2     0     0 -7.856972040E+01 -1.848643409E+02 -8.621933782E+01  2.518070684E+02  1.250000000E+02  0.00000E+00  9.000E+00
      25     1     1     2     0     0  1.546358297E+02  7.832698097E+01  1.697105666E+02  2.728993078E+02  1.250000000E+02  0.00000E+00  9.000E+00
       1     1     1     2   501     0 -7.606610928E+01  1.065373599E+02  9.350761707E+02  9.441947400E+02  1.078959322E-05  0.00000E+00  9.000E+00
#rwgt            1           1   3.3761438956250944E-002           4      332648           0
</event>
<event>
      5   9999  3.79277E-02  2.63549E+02 -1.00000E+00  1.07453E-01
      21    -1     0     0   502   501  0.000000000E+00  0.000000000E+00  9.215682718E+01  9.215682718E+01  0.000000000E+00  0.00000E+00  9.000E+00
       2    -1     0     0   501     0  0.000000000E+00  0.000000000E+00 -1.876708057E+03  1.876708057E+03  0.000000000E+00  0.00000E+00  9.000E+00
      25     1     1     2     0     0 -1.560584883E+02 -1.159095473E+02 -1.731257687E+02  2.887677384E+02  1.250000000E+02  0.00000E+00  9.000E+00
      25     1     1     2     0     0  8.180680094E+01 -1.369636755E+02 -5.413648034E+02  5.780590381E+02  1.250000000E+02  0.00000E+00  9.000E+00
       2     1     1     2   502     0  7.425168735E+01  2.528732228E+02 -1.070060657E+03  1.102038107E+03  0.000000000E+00  0.00000E+00  9.000E+00
#rwgt            2          13   4.8364668363020671E-004           4      332733           0
</event>
<event>
      5   9999  3.79277E-02  3.42232E+01 -1.00000E+00  1.49170E-01
      21    -1     0     0   502   511  0.000000000E+00  0.000000000E+00  6.368830166E+02  6.368830166E+02  0.000000000E+00  0.00000E+00  9.000E+00
      21    -1     0     0   501   502  0.000000000E+00  0.000000000E+00 -9.847148081E+01  9.847148081E+01  0.000000000E+00  0.00000E+00  9.000E+00
      25     1     1     2     0     0 -1.085592505E+02 -1.213878792E+01  4.508679117E+02  4.804574225E+02  1.250000000E+02  0.00000E+00  9.000E+00
      25     1     1     2     0     0  9.876558075E+01 -2.065320181E+01 -2.774579522E-01  1.606433057E+02  1.250000000E+02  0.00000E+00  9.000E+00
      21     1     1     2   501   511  9.793669717E+00  3.279198973E+01  8.782108199E+01  9.425376915E+01  0.000000000E+00  0.00000E+00  9.000E+00
#rwgt            1           1   4.0662553479259615E-002           4      332992           0
</event>
<event>
      5   9999  3.79277E-02  5.95540E+01 -1.00000E+00  1.34877E-01
      -3    -1     0     0     0   501  0.000000000E+00  0.000000000E+00  8.995132566E+01  8.995132566E+01  0.000000000E+00  0.00000E+00  9.000E+00
      21    -1     0     0   501   502  0.000000000E+00  0.000000000E+00 -1.298802311E+03  1.298802311E+03  0.000000000E+00  0.00000E+00  9.000E+00
      25     1     1     2     0     0 -1.863013602E+02 -2.970468069E+01 -7.916898000E+02  8.234004519E+02  1.250000000E+02  0.00000E+00  9.000E+00
      25     1     1     2     0     0  1.858211826E+02  8.925676190E+01 -4.398798328E+02  5.016129471E+02  1.250000000E+02  0.00000E+00  9.000E+00
      -3     1     1     2     0   502  4.801775867E-01 -5.955208121E+01  2.271864742E+01  6.374023759E+01  2.407909617E-06  0.00000E+00  9.000E+00
#rwgt            1           1   2.8834031201881979E-002           4      333064           0
</event>
<event>
      5   9999  3.79277E-02  3.73917E+01 -1.00000E+00  1.46680E-01
      21    -1     0     0   502   501  0.000000000E+00  0.000000000E+00  9.966876598E+01  9.966876598E+01  0.000000000E+00  0.00000E+00  9.000E+00
      21    -1     0     0   511   502  0.000000000E+00  0.000000000E+00 -1.354676533E+03  1.354676533E+03  0.000000000E+00  0.00000E+00  9.000E+00
      25     1     1     2     0     0  2.332986952E+02 -1.915587212E+02 -7.535236658E+02  8.213074575E+02  1.250000000E+02  0.00000E+00  9.000E+00
      25     1     1     2     0     0 -2.025784998E+02  2.128755598E+02 -3.366565838E+02  4.640223141E+02  1.250000000E+02  0.00000E+00  9.000E+00
      21     1     1     2   511   501 -3.072019536E+01 -2.131683859E+01 -1.648275173E+02  1.690155273E+02  1.907348633E-06  0.00000E+00  9.000E+00
#rwgt            1           1   4.6575249658447435E-002           4      333193           0
</event>
<event>
      5   9999  3.79277E-02  5.69321E+01 -1.00000E+00  1.35933E-01
      21    -1     0     0   502   501  0.000000000E+00  0.000000000E+00  1.404686803E+02  1.404686803E+02  0.000000000E+00  0.00000E+00  9.000E+00
       1    -1     0     0   501     0  0.000000000E+00  0.000000000E+00 -6.600391330E+02  6.600391330E+02  0.000000000E+00  0.00000E+00  9.000E+00
      25     1     1     2     0     0  6.017149904E+01  2.000345475E+02 -1.177456892E+02  2.704135293E+02  1.250000000E+02  0.00000E+00  9.000E+00
      25     1     1     2     0     0 -6.941364800E+00 -1.798400319E+02 -1.352409723E+02  2.574990102E+02  1.250000000E+02  0.00000E+00  9.000E+00
       1     1     1     2   502     0 -5.323013424E+01 -2.019451559E+01 -2.665837911E+02  2.725952739E+02  3.814697266E-06  0.00000E+00  9.000E+00
#rwgt            1           1   4.0916048917765548E-002           4      333409           0
</event>
<event>
      5   9999  3.79277E-02  2.56922E+01 -1.00000E+00  1.57868E-01
      21    -1     0     0   511   501  0.000000000E+00  0.000000000E+00  1.129831876E+03  1.129831876E+03  0.000000000E+00  0.00000E+00  9.000E+00
      21    -1     0     0   501   502  0.000000000E+00  0.000000000E+00 -4.020647454E+01  4.020647454E+01  0.000000000E+00  0.00000E+00  9.000E+00
      25     1     1     2     0     0  6.600967720E+01  4.538272907E+01  4.206204322E+02  4.460531556E+02  1.250000000E+02  0.00000E+00  9.000E+00
      25     1     1     2     0     0 -8.681684799E+01 -3.031115647E+01  1.946587203E+02  2.489436657E+02  1.250000000E+02  0.00000E+00  9.000E+00
      21     1     1     2   511   502  2.080717079E+01 -1.507157260E+01  4.743462491E+02  4.750415294E+02  7.629394531E-06  0.00000E+00  9.000E+00
#rwgt            1           1   3.0520144341744000E-002           4      333525           0
</event>
<event>
      5   9999  3.79277E-02  7.13479E+01 -1.00000E+00  1.30803E-01
      21    -1     0     0   502   512  0.000000000E+00  0.000000000E+00  1.141999753E+02  1.141999753E+02  0.000000000E+00  0.00000E+00  9.000E+00
      21    -1     0     0   501   502  0.000000000E+00  0.000000000E+00 -1.181790496E+03  1.181790496E+03  0.000000000E+00  0.00000E+00  9.000E+00
      25     1     1     2     0     0 -1.776684410E+02  7.237726035E+01 -3.490759381E+02  4.174728175E+02  1.250000000E+02  0.00000E+00  9.000E+00
      25     1     1     2     0     0  1.121440156E+02 -1.006096684E+02 -7.674343343E+02  7.920094968E+02  1.250000000E+02  0.00000E+00  9.000E+00
      21     1     1     2   501   512  6.552442544E+01  2.823240809E+01  4.891975144E+01  8.650815728E+01  2.023048729E-06  0.00000E+00  9.000E+00
#rwgt            1           1  0.12571515001315411                4      333652           0
</event>
<event>
      5   9999  3.79277E-02  1.04744E+02 -1.00000E+00  1.22929E-01
      21    -1     0     0   511   501  0.000000000E+00  0.000000000E+00  3.131636063E+02  3.131636063E+02  0.000000000E+00  0.00000E+00  9.000E+00
      21    -1     0     0   501   502  0.000000000E+00  0.000000000E+00 -2.368368249E+02  2.368368249E+02  0.000000000E+00  0.00000E+00  9.000E+00
      25     1     1     2     0     0  9.409131307E+01 -1.649247058E+02  9.271091338E+01  2.455069189E+02  1.250000000E+02  0.00000E+00  9.000E+00
      25     1     1     2     0     0 -4.601101350E+01  7.186743885E+01 -9.034896871E+01  1.762664979E+02  1.250000000E+02  0.00000E+00  9.000E+00
      21     1     1     2   511   502 -4.808029957E+01  9.305726697E+01  7.396483678E+01  1.282270144E+02  2.132480600E-06  0.00000E+00  9.000E+00
#rwgt            1           1   4.1718832225246354E-002           4      333799           0
</event>
<event>
      5   9999  3.79277E-02  3.28174E+01 -1.00000E+00  1.50381E-01
      21    -1     0     0   502   501  0.000000000E+00  0.000000000E+00  6.228450409E+02  6.228450409E+02  0.000000000E+00  0.00000E+00  9.000E+00
      -1    -1     0     0     0   502  0.000000000E+00  0.000000000E+00 -1.316370886E+02  1.316370886E+02  0.000000000E+00  0.00000E+00  9.000E+00
      25     1     1     2     0     0  3.246763489E+01  4.493609862E+01 -2.809810628E+01  1.395990826E+02  1.250000000E+02  0.00000E+00  9.000E+00
      25     1     1     2     0     0 -3.190742822E+01 -7.774876587E+01  5.498154104E+02  5.700745040E+02  1.250000000E+02  0.00000E+00  9.000E+00
      -1     1     1     2     0   501 -5.602066696E-01  3.281266726E+01 -3.050935195E+01  4.480854294E+01  1.066240300E-06  0.00000E+00  9.000E+00
#rwgt            1           1   3.0948214755495571E-002           4      333884           0
</event>
<event>
      5   9999  3.79277E-02  2.36166E+01 -1.00000E+00  1.60625E-01
      21    -1     0     0   511   501  0.000000000E+00  0.000000000E+00  6.216120145E+01  6.216120145E+01  0.000000000E+00  0.00000E+00  9.000E+00
      21    -1     0     0   501   502  0.000000000E+00  0.000000000E+00 -3.873807152E+03  3.873807152E+03  0.000000000E+00  0.00000E+00  9.000E+00
      25     1     1     2     0     0 -2.203699494E+02  2.630158156E+02 -1.421060609E+03  1.467234980E+03  1.250000000E+02  0.00000E+00  9.000E+00
      25     1     1     2     0     0  1.994687679E+02 -2.740106551E+02 -2.410758748E+03  2.437673557E+03  1.250000000E+02  0.00000E+00  9.000E+00
      21     1     1     2   511   502  2.090118151E+01  1.099483958E+01  2.017340605E+01  3.105981644E+01  8.259061849E-07  0.00000E+00  9.000E+00
#rwgt            1           1   9.4889032729177057E-003           4      334110           0
</event>
<event>
      5   9999  3.79277E-02  1.34620E+01 -1.00000E+00  1.81927E-01
      21    -1     0     0   502   501  0.000000000E+00  0.000000000E+00  1.934235794E+02  1.934235794E+02  0.000000000E+00  0.00000E+00  9.000E+00
      21    -1     0     0   501   512  0.000000000E+00  0.000000000E+00 -2.068506836E+02  2.068506836E+02  0.000000000E+00  0.00000E+00  9.000E+00
      25     1     1     2     0     0  2.267399374E+01  1.227331449E+02 -6.149795931E+01  1.870415298E+02  1.250000000E+02  0.00000E+00  9.000E+00
      25     1     1     2     0     0 -2.672976262E+01 -1.355696815E+02  5.947336976E+01  1.955906451E+02  1.250000000E+02  0.00000E+00  9.000E+00
      21     1     1     2   502   512  4.055768880E+00  1.283653655E+01 -1.140251469E+01  1.764208812E+01  2.920019320E-07  0.00000E+00  9.000E+00
#rwgt            1           1   3.9977269203298721E-002           4      334293           0
</event>
<event>
      5   9999  3.79277E-02  2.65346E+02 -1.00000E+00  1.07354E-01
      21    -1     0     0   502   511  0.000000000E+00  0.000000000E+00  1.800542064E+02  1.800542064E+02  0.000000000E+00  0.00000E+00  9.000E+00
      21    -1     0     0   501   502  0.000000000E+00  0.000000000E+00 -1.289592201E+03  1.289592201E+03  0.000000000E+00  0.00000E+00  9.000E+00
      25     1     1     2     0     0  2.661990386E+02 -3.190652208E+02 -7.365961270E+02  8.549054904E+02  1.250000000E+02  0.00000E+00  9.000E+00
      25     1     1     2     0     0 -1.493292413E+02  8.084268898E+01 -9.758783758E+01  2.323427398E+02  1.250000000E+02  0.00000E+00  9.000E+00
      21     1     1     2   501   511 -1.168697972E+02  2.382225318E+02 -2.753540305E+02  3.823981777E+02  1.009274029E-05  0.00000E+00  9.000E+00
#rwgt            2          11   1.7245569165664732E-003           4      334498           0
</event>
<event>
      5   9999  3.79277E-02  2.22516E+01 -1.00000E+00  1.62635E-01
      21    -1     0     0   502   501  0.000000000E+00  0.000000000E+00  6.262890339E+02  6.262890339E+02  0.000000000E+00  0.00000E+00  9.000E+00
      21    -1     0     0   501   512  0.000000000E+00  0.000000000E+00 -6.834846259E+02  6.834846259E+02  0.000000000E+00  0.00000E+00  9.000E+00
      25     1     1     2     0     0  6.298680439E+01 -1.445296225E+02  3.710674210E+02  4.221044661E+02  1.250000000E+02  0.00000E+00  9.000E+00
      25     1     1     2     0     0 -5.636528594E+01  1.657732075E+02  1.790822091E+02  2.799164865E+02  1.250000000E+02  0.00000E+00  9.000E+00
      21     1     1     2   502   512 -6.621518450E+00 -2.124358505E+01 -6.073452221E+02  6.077527072E+02  1.078959322E-05  0.00000E+00  9.000E+00
#rwgt            1           1   3.2139423509868453E-002           4      334518           0
</event>
<event>
      5   9999  3.79277E-02  8.35207E+01 -1.00000E+00  1.27451E-01
      21    -1     0     0   502   511  0.000000000E+00  0.000000000E+00  8.598310368E+02  8.598310368E+02  0.000000000E+00  0.00000E+00  9.000E+00
      21    -1     0     0   501   502  0.000000000E+00  0.000000000E+00 -1.055251192E+02  1.055251192E+02  0.000000000E+00  0.00000E+00  9.000E+00
      25     1     1     2     0     0  6.677415792E+01 -1.368099569E+02  5.783900273E+01  2.052951600E+02  1.250000000E+02  0.00000E+00  9.000E+00
      25     1     1     2     0     0 -1.052342344E+02  6.267135055E+01  2.458940180E+02  3.018125418E+02  1.250000000E+02  0.00000E+00  9.000E+00
      21     1     1     2   501   511  3.846007651E+01  7.413860638E+01  4.505728968E+02  4.582484542E+02  7.629394531E-06  0.00000E+00  9.000E+00
#rwgt            1           1   8.3479502771192773E-002           4      334705           0
</event>
<event>
      5   9999  3.79277E-02  2.20557E+01 -1.00000E+00  1.62938E-01
      21    -1     0     0   502   501  0.000000000E+00  0.000000000E+00  1.712216346E+02  1.712216346E+02  0.000000000E+00  0.00000E+00  9.000E+00
      21    -1     0     0   512   502  0.000000000E+00  0.000000000E+00 -3.798116250E+02  3.798116250E+02  0.000000000E+00  0.00000E+00  9.000E+00
      25     1     1     2     0     0 -1.222739764E+02 -4.293163328E+01  7.344148764E+01  1.944548856E+02  1.250000000E+02  0.00000E+00  9.000E+00
      25     1     1     2     0     0  1.371105879E+02  5.925126221E+01 -2.397799299E+02  3.089165586E+02  1.250000000E+02  0.00000E+00  9.000E+00
      21     1     1     2   512   501 -1.483661152E+01 -1.631962893E+01 -4.225154813E+01  4.766181542E+01  9.536743164E-07  0.00000E+00  9.000E+00
#rwgt            1           1   4.3256912695728400E-002           4      334758           0
</event>
<event>
      5   9999  3.79277E-02  5.96557E+01 -1.00000E+00  1.34837E-01
      21    -1     0     0   511   501  0.000000000E+00  0.000000000E+00  3.534928565E+02  3.534928565E+02  0.000000000E+00  0.00000E+00  9.000E+00
      21    -1     0     0   501   502  0.000000000E+00  0.000000000E+00 -5.374019602E+02  5.374019602E+02  0.000000000E+00  0.00000E+00  9.000E+00
      25     1     1     2     0     0 -1.410491862E+02  2.154519659E+00  2.770609251E+01  1.905049670E+02  1.250000000E+02  0.00000E+00  9.000E+00
      25     1     1     2     0     0  1.182622091E+02  5.297768012E+01 -4.341466371E+02  4.700009438E+02  1.250000000E+02  0.00000E+00  9.000E+00
      21     1     1     2   511   502  2.278697714E+01 -5.513219978E+01  2.225314409E+02  2.303889059E+02  0.000000000E+00  0.00000E+00  9.000E+00
#rwgt            1           1   5.2700374717703079E-002           4      335101           0
</event>
<event>
      5   9999  3.79277E-02  1.72455E+01 -1.00000E+00  1.71860E-01
      21    -1     0     0   502   501  0.000000000E+00  0.000000000E+00  5.893155936E+02  5.893155936E+02  0.000000000E+00  0.00000E+00  9.000E+00
      21    -1     0     0   512   502  0.000000000E+00  0.000000000E+00 -1.045905133E+02  1.045905133E+02  0.000000000E+00  0.00000E+00  9.000E+00
      25     1     1     2     0     0 -7.845324723E+01 -9.414773282E+01  4.452954245E+02  4.784680999E+02  1.250000000E+02  0.00000E+00  9.000E+00
      25     1     1     2     0     0  8.558295200E+01  7.844498622E+01  6.670026384E+01  1.831720031E+02  1.250000000E+02  0.00000E+00  9.000E+00
      21     1     1     2   512   501 -7.129704772E+00  1.570274660E+01 -2.727060804E+01  3.226600385E+01  8.259061849E-07  0.00000E+00  9.000E+00
#rwgt            1           1   4.8773189460935604E-002           4      335179           0
</event>
<event>
      5   9999 -3.79277E-02  4.46922E+01 -1.00000E+00  1.41915E-01
      21    -1     0     0   502   501  0.000000000E+00  0.000000000E+00  5.173938978E+02  5.173938978E+02  0.000000000E+00  0.00000E+00  9.000E+00
      21    -1     0     0   501   511  0.000000000E+00  0.000000000E+00 -1.686352442E+02  1.686352442E+02  0.000000000E+00  0.00000E+00  9.000E+00
      25     1     1     2     0     0  2.200395308E+01 -2.286230466E+01  4.413378669E+02  4.597944885E+02  1.250000000E+02  0.00000E+00  9.000E+00
      25     1     1     2     0     0 -5.460754697E+01  5.343017273E+01 -1.045356989E+02  1.799707751E+02  1.250000000E+02  0.00000E+00  9.000E+00
      21     1     1     2   502   511  3.260359390E+01 -3.056786806E+01  1.195648560E+01  4.626387836E+01  5.840038640E-07  0.00000E+00  9.000E+00
#rwgt            1           1  -1.5100903850834168E-002           4      335368           0
</event>
<event>
      5   9999  3.79277E-02  8.29115E+01 -1.00000E+00  1.27603E-01
      21    -1     0     0   502   501  0.000000000E+00  0.000000000E+00  1.445018838E+03  1.445018838E+03  0.000000000E+00  0.00000E+00  9.000E+00
      21    -1     0     0   501   512  0.000000000E+00  0.000000000E+00 -4.932889116E+01  4.932889116E+01  0.000000000E+00  0.00000E+00  9.000E+00
      25     1     1     2     0     0 -1.214396045E+02  8.609034589E+00  2.838370483E+02  3.331818768E+02  1.250000000E+02  0.00000E+00  9.000E+00
      25     1     1     2     0     0  5.164407619E+01  3.614470539E+01  1.045884739E+03  1.055212508E+03  1.250000000E+02  0.00000E+00  9.000E+00
      21     1     1     2   502   512  6.979552836E+01 -4.475373998E+01  6.596815911E+01  1.059533437E+02  1.348699152E-06  0.00000E+00  9.000E+00
#rwgt            1           1   2.0519604413419549E-002           4      335591           0
</event>
<event>
      5   9999  3.79277E-02  1.65257E+01 -1.00000E+00  1.73510E-01
      21    -1     0     0   502   511  0.000000000E+00  0.000000000E+00  2.591911308E+02  2.591911308E+02  0.000000000E+00  0.00000E+00  9.000E+00
      21    -1     0     0   501   502  0.000000000E+00  0.000000000E+00 -2.627908081E+02  2.627908081E+02  0.000000000E+00  0.00000E+00  9.000E+00
      25     1     1     2     0     0 -2.370248200E+01 -7.163628685E+01  1.827496178E+01  1.471480189E+02  1.250000000E+02  0.00000E+00  9.000E+00
      25     1     1     2     0     0  1.764026646E+01  8.700991661E+01 -1.681920748E+02  2.275862004E+02  1.250000000E+02  0.00000E+00  9.000E+00
      21     1     1     2   501   511  6.062215533E+00 -1.537362976E+01  1.463174357E+02  1.472477196E+02  2.697398305E-06  0.00000E+00  9.000E+00
#rwgt            1           1   3.4726619926903839E-002           4      335693           0
</event>
<event>
      5   9999  3.79277E-02  3.71726E+01 -1.00000E+00  1.46843E-01
      21    -1     0     0   502   501  0.000000000E+00  0.000000000E+00  8.883979148E+02  8.883979148E+02  0.000000000E+00  0.00000E+00  9.000E+00
      21    -1     0     0   512   502  0.000000000E+00  0.000000000E+00 -2.569491975E+02  2.569491975E+02  0.000000000E+00  0.00000E+00  9.000E+00
      25     1     1     2     0     0  3.382699151E+01 -2.809907641E+01  7.807863788E+02  7.919508777E+02  1.250000000E+02  0.00000E+00  9.000E+00
      25     1     1     2     0     0  3.264207936E+00  2.564112912E+01  5.981609911E+01  1.409648476E+02  1.250000000E+02  0.00000E+00  9.000E+00
      21     1     1     2   512   501 -3.709119945E+01  2.457947291E+00 -2.091537606E+02  2.124313869E+02  0.000000000E+00  0.00000E+00  9.000E+00
#rwgt            1           1   4.8182155032963435E-002           4      335914           0
</event>
<event>
      5   9999  3.79277E-02  8.97667E+01 -1.00000E+00  1.25974E-01
      21    -1     0     0   511   501  0.000000000E+00  0.000000000E+00  7.897910578E+02  7.897910578E+02  0.000000000E+00  0.00000E+00  9.000E+00
      21    -1     0     0   501   502  0.000000000E+00  0.000000000E+00 -4.059272302E+02  4.059272302E+02  0.000000000E+00  0.00000E+00  9.000E+00
      25     1     1     2     0     0  1.361110705E+02  7.599462990E+01  7.683369122E+01  2.140790121E+02  1.250000000E+02  0.00000E+00  9.000E+00
      25     1     1     2     0     0 -2.244134050E+02 -5.984679056E+01 -2.818161193E+02  3.859900773E+02  1.250000000E+02  0.00000E+00  9.000E+00
      21     1     1     2   511   502  8.830233446E+01 -1.614783934E+01  5.888462557E+02  5.956491987E+02  1.525878906E-05  0.00000E+00  9.000E+00
#rwgt            1           1   4.6258278653128697E-002           4      336049           0
</event>
<event>
      5   9999  3.79277E-02  1.83116E+02 -1.00000E+00  1.13060E-01
      21    -1     0     0   502   501  0.000000000E+00  0.000000000E+00  2.238687323E+02  2.238687323E+02  0.000000000E+00  0.00000E+00  9.000E+00
      21    -1     0     0   501   512  0.000000000E+00  0.000000000E+00 -1.649237038E+03  1.649237038E+03  0.000000000E+00  0.00000E+00  9.000E+00
      25     1     1     2     0     0 -2.014923251E+02 -2.780492166E+02 -1.041636475E+03  1.103875931E+03  1.250000000E+02  0.00000E+00  9.000E+00
      25     1     1     2     0     0  1.443233770E+02  1.040857053E+02  1.092344976E+02  2.433521043E+02  1.250000000E+02  0.00000E+00  9.000E+00
      21     1     1     2   502   512  5.716894811E+01  1.739635113E+02 -4.929663279E+02  5.258777352E+02  5.394796609E-06  0.00000E+00  9.000E+00
#rwgt            1           1  0.15069422212216416                4      336142           0
</event>
<event>
      5   9999  3.79277E-02  1.16156E+02 -1.00000E+00  1.20971E-01
       1    -1     0     0   502     0  0.000000000E+00  0.000000000E+00  7.245590177E+02  7.245590177E+02  0.000000000E+00  0.00000E+00  9.000E+00
      21    -1     0     0   501   502  0.000000000E+00  0.000000000E+00 -1.591026246E+02  1.591026246E+02  0.000000000E+00  0.00000E+00  9.000E+00
      25     1     1     2     0     0  1.535916712E+01 -1.636641151E+02  1.215951084E+02  2.396501971E+02  1.250000000E+02  0.00000E+00  9.000E+00
      25     1     1     2     0     0  5.750656951E+01  2.541231948E+02  1.448939823E+02  3.232721296E+02  1.250000000E+02  0.00000E+00  9.000E+00
       1     1     1     2   501     0 -7.286573663E+01 -9.045907971E+01  2.989673024E+02  3.207393156E+02  3.814697266E-06  0.00000E+00  9.000E+00
#rwgt            1           1   3.4547726135635434E-002           4      336207           0
</event>
<event>
      5   9999  3.79277E-02  2.42475E+02 -1.00000E+00  1.08686E-01
       2    -1     0     0   502     0  0.000000000E+00  0.000000000E+00  7.096669091E+02  7.096669091E+02  0.000000000E+00  0.00000E+00  9.000E+00
      21    -1     0     0   501   502  0.000000000E+00  0.000000000E+00 -2.481137618E+02  2.481137618E+02  0.000000000E+00  0.00000E+00  9.000E+00
      25     1     1     2     0     0 -7.795338311E+01 -1.040795214E+01 -8.495303133E+01  1.703733340E+02  1.250000000E+02  0.00000E+00  9.000E+00
      25     1     1     2     0     0  1.245442540E+01  2.438691373E+02  4.487768564E+02  5.259780753E+02  1.250000000E+02  0.00000E+00  9.000E+00
       2     1     1     2   501     0  6.549895772E+01 -2.334611852E+02  9.772932225E+01  2.614292617E+02  2.697398305E-06  0.00000E+00  9.000E+00
#rwgt            2          18   4.4653691320478830E-005           4      336305           0
</event>
<event>
      5   9999 -3.79277E-02  8.36812E+01 -1.00000E+00  1.27411E-01
      21    -1     0     0   502   501  0.000000000E+00  0.000000000E+00  4.581208254E+02  4.581208254E+02  0.000000000E+00  0.00000E+00  9.000E+00
      21    -1     0     0   511   502  0.000000000E+00  0.000000000E+00 -1.301515703E+03  1.301515703E+03  0.000000000E+00  0.00000E+00  9.000E+00
      25     1     1     2     0     0  1.882062470E+02 -1.699107630E+02  1.492971999E+02  3.196965948E+02  1.250000000E+02  0.00000E+00  9.000E+00
      25     1     1     2     0     0 -2.019387809E+02  2.524574796E+02  8.671553364E+01  3.572934844E+02  1.250000000E+02  0.00000E+00  9.000E+00
      21     1     1     2   511   501  1.373253382E+01 -8.254671665E+01 -1.079407611E+03  1.082646449E+03  1.525878906E-05  0.00000E+00  9.000E+00
#rwgt            1           1  -8.0660692968796924E-002           4      336429           0
</event>
<event>
      5   9999  3.79277E-02  2.74381E+01 -1.00000E+00  1.55782E-01
       2    -1     0     0   502     0  0.000000000E+00  0.000000000E+00  6.788658984E+02  6.788658984E+02  0.000000000E+00  0.00000E+00  9.000E+00
      21    -1     0     0   501   502  0.000000000E+00  0.000000000E+00 -2.437658066E+02  2.437658066E+02  0.000000000E+00  0.00000E+00  9.000E+00
      25     1     1     2     0     0 -2.823479356E+01  1.764605811E+02  1.592055755E+01  2.186641360E+02  1.250000000E+02  0.00000E+00  9.000E+00
      25     1     1     2     0     0  4.921891185E+01 -1.587825034E+02 -6.584876590E+01  2.181638023E+02  1.250000000E+02  0.00000E+00  9.000E+00
       2     1     1     2   501     0 -2.098411829E+01 -1.767807762E+01  4.850283002E+02  4.858037666E+02  5.394796609E-06  0.00000E+00  9.000E+00
#rwgt            1           1   3.8840396526180668E-002           4      336525           0
</event>
<event>
      5   9999  3.79277E-02  8.78576E+01 -1.00000E+00  1.26410E-01
      21    -1     0     0   502   501  0.000000000E+00  0.000000000E+00  1.383924038E+02  1.383924038E+02  0.000000000E+00  0.00000E+00  9.000E+00
      21    -1     0     0   501   511  0.000000000E+00  0.000000000E+00 -6.336693535E+02  6.336693535E+02  0.000000000E+00  0.00000E+00  9.000E+00
      25     1     1     2     0     0  2.724833917E+01  7.248152533E+01  5.335702488E+01  1.564225547E+02  1.250000000E+02  0.00000E+00  9.000E+00
      25     1     1     2     0     0 -1.151045276E+02 -7.197625635E+01 -3.030801316E+02  3.548410911E+02  1.250000000E+02  0.00000E+00  9.000E+00
      21     1     1     2   502   511  8.785618843E+01 -5.052689849E-01 -2.455538430E+02  2.607981115E+02  5.394796609E-06  0.00000E+00  9.000E+00
#rwgt            1           1   3.0720999284210296E-002           4      336635           0
</event>
<event>
      5   9999  3.79277E-02  2.81941E+01 -1.00000E+00  1.54936E-01
      21    -1     0     0   502   501  0.000000000E+00  0.000000000E+00  5.315121192E+02  5.315121192E+02  0.000000000E+00  0.00000E+00  9.000E+00
       1    -1     0     0   501     0  0.000000000E+00  0.000000000E+00 -5.845246284E+02  5.845246284E+02  0.000000000E+00  0.00000E+00  9.000E+00
      25     1     1     2     0     0  4.967286836E+01  1.478965479E+02  4.303322630E+02  4.745014640E+02  1.250000000E+02  0.00000E+00  9.000E+00
      25     1     1     2     0     0 -2.503556405E+01 -1.616046437E+02 -5.607457823E+01  2.133358823E+02  1.250000000E+02  0.00000E+00  9.000E+00
       1     1     1     2   502     0 -2.463730431E+01  1.370809585E+01 -4.272701940E+02  4.281994014E+02  0.000000000E+00  0.00000E+00  9.000E+00
#rwgt            1           1   4.2921411532368239E-002           4      336735           0
</event>
<event>
      5   9999  3.79277E-02  3.43267E+01 -1.00000E+00  1.49084E-01
      21    -1     0     0   502   501  0.000000000E+00  0.000000000E+00  8.141098214E+02  8.141098214E+02  0.000000000E+00  0.00000E+00  9.000E+00
      21    -1     0     0   501   511  0.000000000E+00  0.000000000E+00 -1.697361894E+03  1.697361894E+03  0.000000000E+00  0.00000E+00  9.000E+00
      25     1     1     2     0     0  8.286049970E+00 -4.656866749E+02  5.189671303E+02  7.084381555E+02  1.250000000E+02  0.00000E+00  9.000E+00
      25     1     1     2     0     0 -4.053313355E+01  4.774530677E+02 -1.060812184E+02  5.064411038E+02  1.250000000E+02  0.00000E+00  9.000E+00
      21     1     1     2   502   511  3.224708358E+01 -1.176639275E+01 -1.296137985E+03  1.296592456E+03  2.642899792E-05  0.00000E+00  9.000E+00
#rwgt            1           1   5.0459617426303123E-002           4      336971           0
</event>
<event>
      5   9999  3.79277E-02  3.79410E+01 -1.00000E+00  1.46278E-01
       2    -1     0     0   502     0  0.000000000E+00  0.000000000E+00  2.068770471E+03  2.068770471E+03  0.000000000E+00  0.00000E+00  9.000E+00
      21    -1     0     0   501   502  0.000000000E+00  0.000000000E+00 -2.597387454E+01  2.597387454E+01  0.000000000E+00  0.00000E+00  9.000E+00
      25     1     1     2     0     0 -1.180640216E+00 -1.220675146E+02  6.526344851E+02  6.756172312E+02  1.250000000E+02  0.00000E+00  9.000E+00
      25     1     1     2     0     0 -1.920255338E+01  1.540682143E+02  6.973726446E+02  7.252994955E+02  1.250000000E+02  0.00000E+00  9.000E+00
       2     1     1     2   501     0  2.038319359E+01 -3.200069966E+01  6.927894666E+02  6.938276186E+02  1.078959322E-05  0.00000E+00  9.000E+00
#rwgt            1           1   3.9375856643041454E-002           4      337220           0
</event>
<event>
      5   9999  3.79277E-02  2.66394E+01 -1.00000E+00  1.56712E-01
      21    -1     0     0   502   511  0.000000000E+00  0.000000000E+00  1.282735779E+02  1.282735779E+02  0.000000000E+00  0.00000E+00  9.000E+00
      21    -1     0     0   501   502  0.000000000E+00  0.000000000E+00 -2.953502476E+02  2.953502476E+02  0.000000000E+00  0.00000E+00  9.000E+00
      25     1     1     2     0     0 -6.925415713E+01 -1.110828442E+02 -4.903285591E+01  1.875226854E+02  1.250000000E+02  0.00000E+00  9.000E+00
      25     1     1     2     0     0  6.573784857E+01  8.467649004E+01 -1.270438185E+02  2.079824621E+02  1.250000000E+02  0.00000E+00  9.000E+00
      21     1     1     2   501   511  3.516308561E+00  2.640635420E+01  9.000004764E+00  2.811867803E+01  4.129530925E-07  0.00000E+00  9.000E+00
#rwgt            1           1   3.9574141215502935E-002           4      337366           0
</event>
<event>
      5   9999  3.79277E-02  6.47106E+01 -1.00000E+00  1.32972E-01
      21    -1     0     0   502   501  0.000000000E+00  0.000000000E+00  3.218687275E+02  3.218687275E+02  0.000000000E+00  0.00000E+00  9.000E+00
      -2    -1     0     0     0   502  0.000000000E+00  0.000000000E+00 -1.655155277E+03  1.655155277E+03  0.000000000E+00  0.00000E+00  9.000E+00
      25     1     1     2     0     0 -9.915690871E+01 -3.129048662E+01  2.761138224E+02  3.204294462E+02  1.250000000E+02  0.00000E+00  9.000E+00
      25     1     1     2     0     0  1.551523517E+02 -1.143643753E+00 -4.140646732E+02  4.595085567E+02  1.250000000E+02  0.00000E+00  9.000E+00
      -2     1     1     2     0   501 -5.599544298E+01  3.243413037E+01 -1.195335699E+03  1.197086002E+03  1.525878906E-05  0.00000E+00  9.000E+00
#rwgt            1           1   2.2714214619615401E-002           4      337531           0
</event>
<event>
      5   9999  3.79277E-02  7.15332E+01 -1.00000E+00  1.30746E-01
      21    -1     0     0   511   501  0.000000000E+00  0.000000000E+00  1.443032086E+02  1.443032086E+02  0.000000000E+00  0.00000E+00  9.000E+00
      21    -1     0     0   501   502  0.000000000E+00  0.000000000E+00 -5.726259412E+02  5.726259412E+02  0.000000000E+00  0.00000E+00  9.000E+00
      25     1     1     2     0     0 -1.500416382E+02  5.033855690E+01 -7.762493193E+01  2.160951031E+02  1.250000000E+02  0.00000E+00  9.000E+00
      25     1     1     2     0     0  7.951328223E+01 -6.228647531E+01 -3.881395924E+02  4.200944064E+02  1.250000000E+02  0.00000E+00  9.000E+00
      21     1     1     2   511   502  7.052835601E+01  1.194791842E+01  3.744179173E+01  8.073964035E+01  1.168007728E-06  0.00000E+00  9.000E+00
#rwgt            1           1   4.1509213914448027E-002           4      337718           0
</event>
<event>
      5   9999  3.79277E-02  2.54112E+01 -1.00000E+00  1.58222E-01
      21    -1     0     0   502   501  0.000000000E+00  0.000000000E+00  3.658040544E+02  3.658040544E+02  0.000000000E+00  0.00000E+00  9.000E+00
      21    -1     0     0   512   502  0.000000000E+00  0.000000000E+00 -4.108790850E+02  4.108790850E+02  0.000000000E+00  0.00000E+00  9.000E+00
      25     1     1     2     0     0  1.724767171E+01  5.134020787E+01 -1.425262770E+02  1.971599320E+02  1.250000000E+02  0.00000E+00  9.000E+00
      25     1     1     2     0     0 -3.230407185E+01 -7.181055246E+01  3.216153704E+02  3.539233745E+02  1.250000000E+02  0.00000E+00  9.000E+00
      21     1     1     2   512   501  1.505640014E+01  2.047034459E+01 -2.241641240E+02  2.255998330E+02  0.000000000E+00  0.00000E+00  9.000E+00
#rwgt            1           1   2.5475272771212205E-002           4      337947           0
</event>
<event>
      5   9999  3.79277E-02  3.04227E+01 -1.00000E+00  1.52619E-01
      21    -1     0     0   502   501  0.000000000E+00  0.000000000E+00  2.915191608E+02  2.915191608E+02  0.000000000E+00  0.00000E+00  9.000E+00
       2    -1     0     0   501     0  0.000000000E+00  0.000000000E+00 -5.022555885E+02  5.022555885E+02  0.000000000E+00  0.00000E+00  9.000E+00
      25     1     1     2     0     0  6.353778774E+01  4.111494271E+01  1.798702845E+02  2.317451364E+02  1.250000000E+02  0.00000E+00  9.000E+00
      25     1     1     2     0     0 -8.421801326E+01 -1.880200732E+01  1.740435674E+01  1.528859080E+02  1.250000000E+02  0.00000E+00  9.000E+00
       2     1     1     2   502     0  2.068022551E+01 -2.231293539E+01 -4.080110690E+02  4.091437049E+02  5.394796609E-06  0.00000E+00  9.000E+00
#rwgt            1           1   4.4362563665613086E-002           4      338164           0
</event>
<event>
      5   9999  3.79277E-02  7.87274E+01 -1.00000E+00  1.28687E-01
      21    -1     0     0   511   501  0.000000000E+00  0.000000000E+00  4.085988874E+02  4.085988874E+02  0.000000000E+00  0.00000E+00  9.000E+00
      21    -1     0     0   501   502  0.000000000E+00  0.000000000E+00 -7.856957015E+02  7.856957015E+02  0.000000000E+00  0.00000E+00  9.000E+00
      25     1     1     2     0     0  3.894457222E+01  2.208955397E+02 -8.640177495E+01  2.709276396E+02  1.250000000E+02  0.00000E+00  9.000E+00
      25     1     1     2     0     0 -1.172726778E+02 -2.288147954E+02 -5.675749681E+02  6.355119480E+02  1.250000000E+02  0.00000E+00  9.000E+00
      21     1     1     2   511   502  7.832810555E+01  7.919255727E+00  2.768799290E+02  2.878550013E+02  5.394796609E-06  0.00000E+00  9.000E+00
#rwgt            1           1  0.12539764946973747                4      338280           0
</event>
<event>
      5   9999  3.79277E-02  1.04247E+02 -1.00000E+00  1.23021E-01
      21    -1     0     0   512   501  0.000000000E+00  0.000000000E+00  1.262607410E+03  1.262607410E+03  0.000000000E+00  0.00000E+00  9.000E+00
      21    -1     0     0   501   502  0.000000000E+00  0.000000000E+00 -6.394042209E+01  6.394042209E+01  0.000000000E+00  0.00000E+00  9.000E+00
      25     1     1     2     0     0 -5.705248807E+01  1.030103394E+01  8.118467494E+02  8.234568855E+02  1.250000000E+02  0.00000E+00  9.000E+00
      25     1     1     2     0     0  1.304001456E+01 -1.048010220E+02  8.629870062E+01  1.850020592E+02  1.250000000E+02  0.00000E+00  9.000E+00
      21     1     1     2   512   502  4.401247351E+01  9.449998805E+01  3.005215381E+02  3.180888876E+02  5.394796609E-06  0.00000E+00  9.000E+00
#rwgt            1           1   4.2923683333466710E-002           4      338426           0
</event>
<event>
      5   9999  3.79277E-02  3.29337E+01 -1.00000E+00  1.50278E-01
      21    -1     0     0   502   501  0.000000000E+00  0.000000000E+00  8.950883857E+01  8.950883857E+01  0.000000000E+00  0.00000E+00  9.000E+00
      21    -1     0     0   511   502  0.000000000E+00  0.000000000E+00 -2.124494069E+03  2.124494069E+03  0.000000000E+00  0.00000E+00  9.000E+00
      25     1     1     2     0     0  2.761893219E+01 -3.326217532E+02 -8.683256109E+02  9.386236747E+02  1.250000000E+02  0.00000E+00  9.000E+00
      25     1     1     2     0     0  4.820199695E+00  3.383078710E+02 -5.492794242E+02  6.571212489E+02  1.250000000E+02  0.00000E+00  9.000E+00
      21     1     1     2   511   501 -3.243913189E+01 -5.686117834E+00 -6.173801951E+02  6.182579838E+02  0.000000000E+00  0.00000E+00  9.000E+00
#rwgt            1           1   4.4521134284092503E-002           4      338494           0
</event>
<event>
      5   9999  3.79277E-02  8.36985E+01 -1.00000E+00  1.27407E-01
      21    -1     0     0   502   501  0.000000000E+00  0.000000000E+00  2.072581736E+03  2.072581736E+03  0.000000000E+00  0.00000E+00  9.000E+00
      21    -1     0     0   512   502  0.000000000E+00  0.000000000E+00 -5.015329506E+01  5.015329506E+01  0.000000000E+00  0.00000E+00  9.000E+00
      25     1     1     2     0     0  1.587336439E+02  3.769579918E+01  9.425789818E+02  9.647266348E+02  1.250000000E+02  0.00000E+00  9.000E+00
      25     1     1     2     0     0 -2.311557451E+02  4.262229237E+00  1.024473610E+03  1.057649433E+03  1.250000000E+02  0.00000E+00  9.000E+00
      21     1     1     2   512   501  7.242210116E+01 -4.195802842E+01  5.537584918E+01  1.003589635E+02  2.697398305E-06  0.00000E+00  9.000E+00
#rwgt            1           1  0.11529083897702171                4      338692           0
</event>
<event>
      5   9999  3.79277E-02  7.94950E+01 -1.00000E+00  1.28483E-01
      21    -1     0     0   502   511  0.000000000E+00  0.000000000E+00  1.831354437E+02  1.831354437E+02  0.000000000E+00  0.00000E+00  9.000E+00
      21    -1     0     0   501   502  0.000000000E+00  0.000000000E+00 -4.347620910E+02  4.347620910E+02  0.000000000E+00  0.00000E+00  9.000E+00
      25     1     1     2     0     0 -5.666153218E+01 -1.741095145E+02 -2.893081852E+02  3.644844006E+02  1.250000000E+02  0.00000E+00  9.000E+00
      25     1     1     2     0     0  5.729583537E+01  9.461705495E+01  4.692015781E+01  1.733831048E+02  1.250000000E+02  0.00000E+00  9.000E+00
      21     1     1     2   501   511 -6.343031926E-01  7.949245960E+01 -9.238619920E+00  8.003002918E+01  1.348699152E-06  0.00000E+00  9.000E+00
#rwgt            1           1   1.8714725553137045E-002           4      338758           0
</event>
<event>
      5   9999  3.79277E-02  1.18341E+01 -1.00000E+00  1.87666E-01
      21    -1     0     0   502   501  0.000000000E+00  0.000000000E+00  2.325019272E+03  2.325019272E+03  0.000000000E+00  0.00000E+00  9.000E+00
      21    -1     0     0   512   502  0.000000000E+00  0.000000000E+00 -8.479662160E+01  8.479662160E+01  0.000000000E+00  0.00000E+00  9.000E+00
      25     1     1     2     0     0  1.340443202E+02 -5.180564771E+01  1.488817952E+03  1.500951565E+03  1.250000000E+02  0.00000E+00  9.000E+00
      25     1     1     2     0     0 -1.324748509E+02  6.353521185E+01  8.184025371E+02  8.408293656E+02  1.250000000E+02  0.00000E+00  9.000E+00
      21     1     1     2   512   501 -1.569469308E+00 -1.172956414E+01 -6.699783854E+01  6.803496364E+01  9.536743164E-07  0.00000E+00  9.000E+00
#rwgt            1           1   6.9150972828979765E-002           4      338809           0
</event>
<event>
      5   9999  3.79277E-02  2.44883E+02 -1.00000E+00  1.08538E-01
      21    -1     0     0   502   501  0.000000000E+00  0.000000000E+00  7.420174410E+01  7.420174410E+01  0.000000000E+00  0.00000E+00  9.000E+00
       1    -1     0     0   501     0  0.000000000E+00  0.000000000E+00 -2.524383449E+03  2.524383449E+03  0.000000000E+00  0.00000E+00  9.000E+00
      25     1     1     2     0     0  4.026362170E+01  2.891160229E+02 -9.928838499E+02  1.042426292E+03  1.250000000E+02  0.00000E+00  9.000E+00
      25     1     1     2     0     0  1.841631926E+02 -1.911356710E+02 -6.640579352E+02  7.259799360E+02  1.250000000E+02  0.00000E+00  9.000E+00
       1     1     1     2   502     0 -2.244268143E+02 -9.798035194E+01 -7.932399193E+02  8.301789650E+02  1.078959322E-05  0.00000E+00  9.000E+00
#rwgt            1           1   3.2153804707942886E-002           4      339040           0
</event>
<event>
      5   9999  3.79277E-02  1.08456E+01 -1.00000E+00  1.91768E-01
      21    -1     0     0   502   511  0.000000000E+00  0.000000000E+00  1.290852060E+03  1.290852060E+03  0.000000000E+00  0.00000E+00  9.000E+00
      21    -1     0     0   501   502  0.000000000E+00  0.000000000E+00 -3.648756185E+01  3.648756185E+01  0.000000000E+00  0.00000E+00  9.000E+00
      25     1     1     2     0     0 -1.974756303E+01 -6.499595658E+01  4.865022921E+02  5.068766328E+02  1.250000000E+02  0.00000E+00  9.000E+00
      25     1     1     2     0     0  1.376793192E+01  7.404417990E+01  1.765737081E+02  2.290750334E+02  1.250000000E+02  0.00000E+00  9.000E+00
      21     1     1     2   501   511  5.979631107E+00 -9.048223318E+00  5.912884979E+02  5.913879557E+02  1.078959322E-05  0.00000E+00  9.000E+00
#rwgt            1           1   2.8137556192435350E-002           4      339117           0
</event>
<event>
      5   9999  3.79277E-02  2.82022E+01 -1.00000E+00  1.54928E-01
      21    -1     0     0   502   501  0.000000000E+00  0.000000000E+00  2.347768791E+02  2.347768791E+02  0.000000000E+00  0.00000E+00  9.000E+00
       1    -1     0     0   501     0  0.000000000E+00  0.000000000E+00 -7.286923443E+02  7.286923443E+02  0.000000000E+00  0.00000E+00  9.000E+00
      25     1     1     2     0     0 -1.896189172E+01  1.908834175E+02 -9.809322405E+01  2.490849514E+02  1.250000000E+02  0.00000E+00  9.000E+00
      25     1     1     2     0     0  4.699670366E+01 -1.878155005E+02  7.528167181E+01  2.424369660E+02  1.250000000E+02  0.00000E+00  9.000E+00
       1     1     1     2   502     0 -2.803481194E+01 -3.067917018E+00 -4.711039130E+02  4.719473060E+02  0.000000000E+00  0.00000E+00  9.000E+00
#rwgt            1           1   3.5506050472655745E-002           4      339271           0
</event>
<event>
      5   9999  3.79277E-02  9.71869E+01 -1.00000E+00  1.24388E-01
      21    -1     0     0   502   501  0.000000000E+00  0.000000000E+00  3.413277230E+02  3.413277230E+02  0.000000000E+00  0.00000E+00  9.000E+00
      21    -1     0     0   501   511  0.000000000E+00  0.000000000E+00 -8.990344097E+02  8.990344097E+02  0.000000000E+00  0.00000E+00  9.000E+00
      25     1     1     2     0     0  3.073445117E+02  2.845236606E+02  1.320763892E+01  4.372800065E+02  1.250000000E+02  0.00000E+00  9.000E+00
      25     1     1     2     0     0 -3.768621078E+02 -2.166076143E+02 -3.878346764E+02  5.958058770E+02  1.250000000E+02  0.00000E+00  9.000E+00
      21     1     1     2   502   511  6.951759606E+01 -6.791604635E+01 -1.830796493E+02  2.072762492E+02  0.000000000E+00  0.00000E+00  9.000E+00
#rwgt            1           1  0.53219129869447535                4      339421           0
</event>
<event>
      5   9999  3.79277E-02  7.21325E+01 -1.00000E+00  1.30564E-01
      21    -1     0     0   502   512  0.000000000E+00  0.000000000E+00  6.201713843E+02  6.201713843E+02  0.000000000E+00  0.00000E+00  9.000E+00
      21    -1     0     0   501   502  0.000000000E+00  0.000000000E+00 -9.105999859E+01  9.105999859E+01  0.000000000E+00  0.00000E+00  9.000E+00
      25     1     1     2     0     0 -7.251982289E+01  5.446522911E+01  1.609730485E+01  1.552730148E+02  1.250000000E+02  0.00000E+00  9.000E+00
      25     1     1     2     0     0  1.239775447E+00 -6.552199883E+01  3.134950255E+02  3.438005242E+02  1.250000000E+02  0.00000E+00  9.000E+00
      21     1     1     2   501   512  7.128004744E+01  1.105676972E+01  1.995190553E+02  2.121578440E+02  4.672030912E-06  0.00000E+00  9.000E+00
#rwgt            1           1   3.9455070459965338E-002           4      339707           0
</event>
<event>
      5   9999  3.79277E-02  3.60331E+01 -1.00000E+00  1.47710E-01
      21    -1     0     0   502   501  0.000000000E+00  0.000000000E+00  3.612775370E+02  3.612775370E+02  0.000000000E+00  0.00000E+00  9.000E+00
      21    -1     0     0   501   511  0.000000000E+00  0.000000000E+00 -3.678450802E+02  3.678450802E+02  0.000000000E+00  0.00000E+00  9.000E+00
      25     1     1     2     0     0 -1.647988237E+02  8.922019925E+01  1.743976306E+02  2.848831862E+02  1.250000000E+02  0.00000E+00  9.000E+00
      25     1     1     2     0     0  1.906456813E+02 -1.143265250E+02  4.734664044E+00  2.550759635E+02  1.250000000E+02  0.00000E+00  9.000E+00
      21     1     1     2   502   511 -2.584685762E+01  2.510632575E+01 -1.856998379E+02  1.891634675E+02  0.000000000E+00  0.00000E+00  9.000E+00
#rwgt            1           1   3.3531692858447475E-002           4      339833           0
</event>
<event>
      5   9999  3.79277E-02  1.69569E+01 -1.00000E+00  1.72509E-01
      21    -1     0     0   502   512  0.000000000E+00  0.000000000E+00  1.598183817E+03  1.598183817E+03  0.000000000E+00  0.00000E+00  9.000E+00
      21    -1     0     0   501   502  0.000000000E+00  0.000000000E+00 -2.113971374E+02  2.113971374E+02  0.000000000E+00  0.00000E+00  9.000E+00
      25     1     1     2     0     0  2.441617589E+01 -1.843174949E+02  1.994389979E+02  2.999499999E+02  1.250000000E+02  0.00000E+00  9.000E+00
      25     1     1     2     0     0 -3.656203884E+01  1.724847413E+02 -8.858835578E+01  2.335822456E+02  1.250000000E+02  0.00000E+00  9.000E+00
      21     1     1     2   501   512  1.214586295E+01  1.183275353E+01  1.275936038E+03  1.276048709E+03  0.000000000E+00  0.00000E+00  9.000E+00
#rwgt            1           1   3.3378509160389223E-002           4      339916           0
</event>
<event>
      5   9999 -3.84113E-02  1.36630E+02 -1.00000E+00  1.18023E-01
       1    -1     0     0   502     0  0.000000000E+00  0.000000000E+00  2.038108461E+03  2.038108461E+03  0.000000000E+00  0.00000E+00  9.000E+00
      21    -1     0     0   501   502  0.000000000E+00  0.000000000E+00 -1.068827068E+02  1.068827068E+02  0.000000000E+00  0.00000E+00  9.000E+00
      25     1     1     2     0     0 -6.529370189E+01  2.579218834E+02  4.770678214E+02  5.603620898E+02  1.250000000E+02  0.00000E+00  9.000E+00
      25     1     1     2     0     0  1.952221016E+02 -2.156564346E+02  3.496340693E+02  4.716867065E+02  1.250000000E+02  0.00000E+00  9.000E+00
       1     1     1     2   501     0 -1.299283997E+02 -4.226544880E+01  1.104523864E+03  1.112942372E+03  1.525878906E-05  0.00000E+00  9.000E+00
#rwgt            1           1 -0.41760106082119158                4      340227           0
</event>
<event>
      5   9999  3.79277E-02  1.71372E+01 -1.00000E+00  1.72102E-01
      21    -1     0     0   502   511  0.000000000E+00  0.000000000E+00  5.126601312E+02  5.126601312E+02  0.000000000E+00  0.00000E+00  9.000E+00
      21    -1     0     0   501   502  0.000000000E+00  0.000000000E+00 -3.829944214E+02  3.829944214E+02  0.000000000E+00  0.00000E+00  9.000E+00
      25     1     1     2     0     0 -4.691350513E+01  3.821138104E+02 -6.746253286E+01  4.103511111E+02  1.250000000E+02  0.00000E+00  9.000E+00
      25     1     1     2     0     0  3.731369780E+01 -3.679177674E+02  1.230883867E+02  4.093061771E+02  1.250000000E+02  0.00000E+00  9.000E+00
      21     1     1     2   501   511  9.599807328E+00 -1.419604291E+01  7.403985593E+01  7.599726443E+01  0.000000000E+00  0.00000E+00  9.000E+00
#rwgt            1           1   4.2573899078241134E-002           4      340344           0
</event>
<event>
      5   9999  3.79277E-02  5.73771E+01 -1.00000E+00  1.35749E-01
      21    -1     0     0   502   501  0.000000000E+00  0.000000000E+00  6.885885915E+02  6.885885915E+02  0.000000000E+00  0.00000E+00  9.000E+00
      21    -1     0     0   501   512  0.000000000E+00  0.000000000E+00 -3.941837677E+02  3.941837677E+02  0.000000000E+00  0.00000E+00  9.000E+00
      25     1     1     2     0     0  1.561282071E+02  2.010473580E+02 -2.248455994E+02  3.619068952E+02  1.250000000E+02  0.00000E+00  9.000E+00
      25     1     1     2     0     0 -1.129805478E+02 -2.388681150E+02  5.723578958E+02  6.426827689E+02  1.250000000E+02  0.00000E+00  9.000E+00
      21     1     1     2   502   512 -4.314765934E+01  3.782075695E+01 -5.310747257E+01  7.818269505E+01  1.651812370E-06  0.00000E+00  9.000E+00
#rwgt            1           1  0.13571698779364261                4      340603           0
</event>
<event>
      5   9999  3.79277E-02  2.45847E+01 -1.00000E+00  1.59298E-01
      21    -1     0     0   502   501  0.000000000E+00  0.000000000E+00  6.125019964E+02  6.125019964E+02  0.000000000E+00  0.00000E+00  9.000E+00
      21    -1     0     0   501   511  0.000000000E+00  0.000000000E+00 -5.169063232E+01  5.169063232E+01  0.000000000E+00  0.00000E+00  9.000E+00
      25     1     1     2     0     0 -4.385790145E+01 -1.108124876E+02  2.909513158E+02  3.383498058E+02  1.250000000E+02  0.00000E+00  9.000E+00
      25     1     1     2     0     0  4.374618564E+01  8.622801571E+01  2.338956722E+02  2.822785591E+02  1.250000000E+02  0.00000E+00  9.000E+00
      21     1     1     2   502   511  1.117158103E-01  2.458447185E+01  3.596437613E+01  4.356426388E+01  4.768371582E-07  0.00000E+00  9.000E+00
#rwgt            1           1   4.5013563321812423E-002           4      340796           0
</event>
<event>
      5   9999  3.79277E-02  1.70425E+02 -1.00000E+00  1.14238E-01
      21    -1     0     0   502   501  0.000000000E+00  0.000000000E+00  6.447099963E+02  6.447099963E+02  0.000000000E+00  0.00000E+00  9.000E+00
       1    -1     0     0   501     0  0.000000000E+00  0.000000000E+00 -2.352280659E+03  2.352280659E+03  0.000000000E+00  0.00000E+00  9.000E+00
      25     1     1     2     0     0  1.459235685E+02  4.349038222E+01  8.223055877E+01  2.134759143E+02  1.250000000E+02  0.00000E+00  9.000E+00
      25     1     1     2     0     0 -1.467609368E+02  1.269323792E+02  4.666625872E+02  5.206242136E+02  1.250000000E+02  0.00000E+00  9.000E+00
       1     1     1     2   502     0  8.373682987E-01 -1.704227614E+02 -2.256463809E+03  2.262890527E+03  4.315837288E-05  0.00000E+00  9.000E+00
#rwgt            2          12   1.2007457419162638E-002           4      340918           0
</event>
<event>
      5   9999 -3.79277E-02  6.56650E+01 -1.00000E+00  1.32642E-01
      21    -1     0     0   502   511  0.000000000E+00  0.000000000E+00  1.059814645E+02  1.059814645E+02  0.000000000E+00  0.00000E+00  9.000E+00
      21    -1     0     0   501   502  0.000000000E+00  0.000000000E+00 -6.708619564E+02  6.708619564E+02  0.000000000E+00  0.00000E+00  9.000E+00
      25     1     1     2     0     0  3.754079632E+01  1.255620086E+02 -3.016978234E+02  3.518830857E+02  1.250000000E+02  0.00000E+00  9.000E+00
      25     1     1     2     0     0 -9.863296982E+01 -1.496377144E+02 -2.819104817E+02  3.566769238E+02  1.250000000E+02  0.00000E+00  9.000E+00
      21     1     1     2   501   511  6.109217350E+01  2.407570574E+01  1.872781318E+01  6.828341129E+01  7.907449699E-07  0.00000E+00  9.000E+00
#rwgt            1           1 -0.32465632167831388                4      340967           0
</event>
<event>
      5   9999  3.79277E-02  9.07143E+01 -1.00000E+00  1.25762E-01
      21    -1     0     0   512   501  0.000000000E+00  0.000000000E+00  1.687435266E+02  1.687435266E+02  0.000000000E+00  0.00000E+00  9.000E+00
      21    -1     0     0   501   502  0.000000000E+00  0.000000000E+00 -1.239638864E+03  1.239638864E+03  0.000000000E+00  0.00000E+00  9.000E+00
      25     1     1     2     0     0  3.631091368E+02 -6.918762620E+01 -5.255649307E+02  6.545828208E+02  1.250000000E+02  0.00000E+00  9.000E+00
      25     1     1     2     0     0 -3.481640670E+02  1.586623728E+02 -5.237501502E+02  6.605536965E+02  1.250000000E+02  0.00000E+00  9.000E+00
      21     1     1     2   512   502 -1.494506981E+01 -8.947474659E+01 -2.158025621E+01  9.324587309E+01  1.066240300E-06  0.00000E+00  9.000E+00
#rwgt            1           1   2.3920450857159981E-002           4      341125           0
</event>
<event>
      5   9999  3.79277E-02  1.38234E+02 -1.00000E+00  1.17817E-01
      21    -1     0     0   502   501  0.000000000E+00  0.000000000E+00  9.583521575E+02  9.583521575E+02  0.000000000E+00  0.00000E+00  9.000E+00
      21    -1     0     0   511   502  0.000000000E+00  0.000000000E+00 -3.396909463E+02  3.396909463E+02  0.000000000E+00  0.00000E+00  9.000E+00
      25     1     1     2     0     0 -7.520984430E+01 -7.655921299E+00  3.084509631E+01  1.493035625E+02  1.250000000E+02  0.00000E+00  9.000E+00
      25     1     1     2     0     0 -3.544412021E+01  9.050784223E+01  8.434174179E+02  8.581526064E+02  1.250000000E+02  0.00000E+00  9.000E+00
      21     1     1     2   511   501  1.106539645E+02 -8.285192093E+01 -2.556013029E+02  2.905869349E+02  2.697398305E-06  0.00000E+00  9.000E+00
#rwgt            1           1   1.8232392022873033E-002           4      341304           0
</event>
<event>
      5   9999  3.79277E-02  3.74546E+01 -1.00000E+00  1.46634E-01
      21    -1     0     0   502   501  0.000000000E+00  0.000000000E+00  1.047358942E+03  1.047358942E+03  0.000000000E+00  0.00000E+00  9.000E+00
      21    -1     0     0   512   502  0.000000000E+00  0.000000000E+00 -6.195501954E+01  6.195501954E+01  0.000000000E+00  0.00000E+00  9.000E+00
      25     1     1     2     0     0 -1.253244873E+02 -7.580941288E+01  7.492141852E+02  7.735633068E+02  1.250000000E+02  0.00000E+00  9.000E+00
      25     1     1     2     0     0  9.747320811E+01  5.076645576E+01  2.460142063E+02  2.970290373E+02  1.250000000E+02  0.00000E+00  9.000E+00
      21     1     1     2   512   501  2.785127915E+01  2.504295713E+01 -9.824469204E+00  3.872161731E+01  1.130918620E-06  0.00000E+00  9.000E+00
#rwgt            1           1   4.0329494773718749E-002           4      341425           0
</event>
<event>
      5   9999  3.79277E-02  1.21538E+01 -1.00000E+00  1.86448E-01
      21    -1     0     0   502   501  0.000000000E+00  0.000000000E+00  1.600085519E+03  1.600085519E+03  0.000000000E+00  0.00000E+00  9.000E+00
      21    -1     0     0   511   502  0.000000000E+00  0.000000000E+00 -4.304079112E+01  4.304079112E+01  0.000000000E+00  0.00000E+00  9.000E+00
      25     1     1     2     0     0 -1.898930511E+02  1.095026674E+02  7.178615059E+02  7.609207230E+02  1.250000000E+02  0.00000E+00  9.000E+00
      25     1     1     2     0     0  1.796521653E+02 -1.160479145E+02  8.319810707E+02  8.680780616E+02  1.250000000E+02  0.00000E+00  9.000E+00
      21     1     1     2   511   501  1.024088580E+01  6.545247130E+00  7.202151675E+00  1.412752599E+01  2.920019320E-07  0.00000E+00  9.000E+00
#rwgt            1           1   4.2677935385103442E-002           4      341513           0
</event>
<event>
      5   9999  3.79277E-02  4.72055E+00 -1.00000E+00  2.47597E-01
      21    -1     0     0   512   501  0.000000000E+00  0.000000000E+00  1.478981279E+03  1.478981279E+03  0.000000000E+00  0.00000E+00  9.000E+00
      21    -1     0     0   501   502  0.000000000E+00  0.000000000E+00 -5.677566631E+01  5.677566631E+01  0.000000000E+00  0.00000E+00  9.000E+00
      25     1     1     2     0     0 -1.199724582E+02  3.396632762E+01  1.127825286E+02  2.095041787E+02  1.250000000E+02  0.00000E+00  9.000E+00
      25     1     1     2     0     0  1.152519432E+02 -3.394768393E+01  8.860755768E+02  9.028789418E+02  1.250000000E+02  0.00000E+00  9.000E+00
      21     1     1     2   512   502  4.720514982E+00 -1.864369014E-02  4.233475069E+02  4.233738244E+02  0.000000000E+00  0.00000E+00  9.000E+00
#rwgt            1           1   1.6041306011365639E-002           4      341778           0
</event>
<event>
      5   9999  3.79277E-02  4.10834E+01 -1.00000E+00  1.44124E-01
      21    -1     0     0   502   501  0.000000000E+00  0.000000000E+00  2.637911366E+02  2.637911366E+02  0.000000000E+00  0.00000E+00  9.000E+00
      21    -1     0     0   501   511  0.000000000E+00  0.000000000E+00 -5.026585459E+02  5.026585459E+02  0.000000000E+00  0.00000E+00  9.000E+00
      25     1     1     2     0     0  4.666567247E+01  1.126182053E+02  1.202596212E+02  2.120092489E+02  1.250000000E+02  0.00000E+00  9.000E+00
      25     1     1     2     0     0 -7.117148605E+00 -1.014936093E+02  2.932775619E+01  1.638191802E+02  1.250000000E+02  0.00000E+00  9.000E+00
      21     1     1     2   502   511 -3.954852386E+01 -1.112459603E+01 -3.884547866E+02  3.906212534E+02  7.629394531E-06  0.00000E+00  9.000E+00
#rwgt            1           1   5.1468177900533318E-002           4      342236           0
</event>
<event>
      5   9999  3.79277E-02  6.45520E+01 -1.00000E+00  1.33028E-01
      21    -1     0     0   502   501  0.000000000E+00  0.000000000E+00  4.654433497E+01  4.654433497E+01  0.000000000E+00  0.00000E+00  9.000E+00
      21    -1     0     0   501   512  0.000000000E+00  0.000000000E+00 -2.127179634E+03  2.127179634E+03  0.000000000E+00  0.00000E+00  9.000E+00
      25     1     1     2     0     0  7.898037155E+01 -5.166495648E+01 -1.199246786E+02  1.972665592E+02  1.250000000E+02  0.00000E+00  9.000E+00
      25     1     1     2     0     0 -1.036664663E+02 -7.980296516E+00 -1.704614712E+03  1.712351231E+03  1.250000000E+02  0.00000E+00  9.000E+00
      21     1     1     2   502   512  2.468609474E+01  5.964525299E+01 -2.560959086E+02  2.641061791E+02  0.000000000E+00  0.00000E+00  9.000E+00
#rwgt            1           1   3.6943399523430391E-002           4      342432           0
</event>
<event>
      5   9999  3.79277E-02  1.27144E+02 -1.00000E+00  1.19312E-01
      21    -1     0     0   502   501  0.000000000E+00  0.000000000E+00  1.453096054E+02  1.453096054E+02  0.000000000E+00  0.00000E+00  9.000E+00
      21    -1     0     0   501   511  0.000000000E+00  0.000000000E+00 -6.447227822E+02  6.447227822E+02  0.000000000E+00  0.00000E+00  9.000E+00
      25     1     1     2     0     0 -7.742431676E+01 -8.025057802E+01  2.340557463E+01  1.691375210E+02  1.250000000E+02  0.00000E+00  9.000E+00
      25     1     1     2     0     0  8.572302885E+01 -4.662217166E+01 -1.210838388E+02  1.995203262E+02  1.250000000E+02  0.00000E+00  9.000E+00
      21     1     1     2   502   511 -8.298712091E+00  1.268727497E+02 -4.017349126E+02  4.213745403E+02  5.394796609E-06  0.00000E+00  9.000E+00
#rwgt            1           1   4.2045964244874445E-002           4      342532           0
</event>
<event>
      5   9999  3.79277E-02  2.89719E+02 -1.00000E+00  1.06086E-01
      21    -1     0     0   502   501  0.000000000E+00  0.000000000E+00  1.918983204E+03  1.918983204E+03  0.000000000E+00  0.00000E+00  9.000E+00
      21    -1     0     0   512   502  0.000000000E+00  0.000000000E+00 -1.686445694E+02  1.686445694E+02  0.000000000E+00  0.00000E+00  9.000E+00
      25     1     1     2     0     0  3.528879562E+02  2.470986890E+02  6.379316915E+02  7.798522391E+02  1.250000000E+02  0.00000E+00  9.000E+00
      25     1     1     2     0     0 -8.593320887E+01 -3.596700098E+02  7.323411798E+02  8.298768800E+02  1.250000000E+02  0.00000E+00  9.000E+00
      21     1     1     2   512   501 -2.669547473E+02  1.125713209E+02  3.800657629E+02  4.778986540E+02  0.000000000E+00  0.00000E+00  9.000E+00
#rwgt            2          11   1.9694262437048304E-003           4      342744           0
</event>
<event>
      5   9999  3.79277E-02  7.89406E+01 -1.00000E+00  1.28630E-01
      21    -1     0     0   502   501  0.000000000E+00  0.000000000E+00  3.348964282E+02  3.348964282E+02  0.000000000E+00  0.00000E+00  9.000E+00
      21    -1     0     0   501   511  0.000000000E+00  0.000000000E+00 -2.893821207E+02  2.893821207E+02  0.000000000E+00  0.00000E+00  9.000E+00
      25     1     1     2     0     0  1.856453450E+02  1.421843644E+02  1.897873915E+01  2.658303597E+02  1.250000000E+02  0.00000E+00  9.000E+00
      25     1     1     2     0     0 -1.364446915E+02 -2.039170192E+02  4.036623321E+01  2.783051155E+02  1.250000000E+02  0.00000E+00  9.000E+00
      21     1     1     2   502   511 -4.920065353E+01  6.173265477E+01 -1.383066477E+01  8.014307369E+01  1.092571186E-06  0.00000E+00  9.000E+00
#rwgt            1           1   4.8863765598830614E-002           4      342809           0
</event>
<event>
      5   9999  3.79277E-02  4.15893E+01 -1.00000E+00  1.43798E-01
      21    -1     0     0   502   501  0.000000000E+00  0.000000000E+00  2.786792635E+02  2.786792635E+02  0.000000000E+00  0.00000E+00  9.000E+00
      21    -1     0     0   501   512  0.000000000E+00  0.000000000E+00 -3.714034207E+02  3.714034207E+02  0.000000000E+00  0.00000E+00  9.000E+00
      25     1     1     2     0     0  5.483650715E+01  8.486336207E+01 -2.033153000E+02  2.591735788E+02  1.250000000E+02  0.00000E+00  9.000E+00
      25     1     1     2     0     0 -7.389146969E+01 -1.218306629E+02  2.101558285E+02  2.830073002E+02  1.250000000E+02  0.00000E+00  9.000E+00
      21     1     1     2   502   512  1.905496254E+01  3.696730080E+01 -9.956468574E+01  1.079018052E+02  0.000000000E+00  0.00000E+00  9.000E+00
#rwgt            1           1   4.5938313872340451E-002           4      342991           0
</event>
<event>
      5   9999  3.79277E-02  3.07854E+02 -1.00000E+00  1.05229E-01
      21    -1     0     0   502   501  0.000000000E+00  0.000000000E+00  1.634939274E+03  1.634939274E+03  0.000000000E+00  0.00000E+00  9.000E+00
      21    -1     0     0   501   511  0.000000000E+00  0.000000000E+00 -2.090995057E+02  2.090995057E+02  0.000000000E+00  0.00000E+00  9.000E+00
      25     1     1     2     0     0  1.299379183E+02  3.776650800E+02  1.294287327E+03  1.360264482E+03  1.250000000E+02  0.00000E+00  9.000E+00
      25     1     1     2     0     0 -5.143951575E+01 -7.998690477E+01  5.636864323E+01  1.668722645E+02  1.250000000E+02  0.00000E+00  9.000E+00
      21     1     1     2   502   511 -7.849840252E+01 -2.976781753E+02  7.518379783E+01  3.169020333E+02  5.955694197E-06  0.00000E+00  9.000E+00
#rwgt            1           1   4.7005745177528847E-002           4      343231           0
</event>
<event>
      5   9999  3.79277E-02  1.46110E+02 -1.00000E+00  1.16848E-01
      21    -1     0     0   502   501  0.000000000E+00  0.000000000E+00  3.870924701E+02  3.870924701E+02  0.000000000E+00  0.00000E+00  9.000E+00
      21    -1     0     0   501   512  0.000000000E+00  0.000000000E+00 -2.942391422E+02  2.942391422E+02  0.000000000E+00  0.00000E+00  9.000E+00
      25     1     1     2     0     0  9.372776269E+01 -4.061942930E+01  1.651956594E+02  2.309749714E+02  1.250000000E+02  0.00000E+00  9.000E+00
      25     1     1     2     0     0 -2.308633921E+02  9.103602530E+01  1.820716278E+01  2.784635784E+02  1.250000000E+02  0.00000E+00  9.000E+00
      21     1     1     2   502   512  1.371356295E+02 -5.041659600E+01 -9.054949430E+01  1.718930625E+02  0.000000000E+00  0.00000E+00  9.000E+00
#rwgt            1           1   4.0265668820409301E-002           4      343268           0
</event>
<event>
      5   9999  3.79277E-02  1.26345E+02 -1.00000E+00  1.19426E-01
      21    -1     0     0   502   511  0.000000000E+00  0.000000000E+00  4.785448154E+02  4.785448154E+02  0.000000000E+00  0.00000E+00  9.000E+00
      21    -1     0     0   501   502  0.000000000E+00  0.000000000E+00 -4.892563270E+02  4.892563270E+02  0.000000000E+00  0.00000E+00  9.000E+00
      25     1     1     2     0     0 -1.480671830E+02  8.280233710E+01 -3.749454791E+02  4.301037433E+02  1.250000000E+02  0.00000E+00  9.000E+00
      25     1     1     2     0     0  1.671756223E+02  4.208972888E+01  8.147835592E+01  2.279977115E+02  1.250000000E+02  0.00000E+00  9.000E+00
      21     1     1     2   501   511 -1.910843934E+01 -1.248920660E+02  2.827556116E+02  3.096996876E+02  3.814697266E-06  0.00000E+00  9.000E+00
#rwgt            1           1   4.1520583137890962E-002           4      343335           0
</event>
<event>
      5   9999 -3.79277E-02  2.26285E+02 -1.00000E+00  1.09730E-01
      21    -1     0     0   512   501  0.000000000E+00  0.000000000E+00  7.789235232E+02  7.789235232E+02  0.000000000E+00  0.00000E+00  9.000E+00
      21    -1     0     0   501   502  0.000000000E+00  0.000000000E+00 -2.616883245E+02  2.616883245E+02  0.000000000E+00  0.00000E+00  9.000E+00
      25     1     1     2     0     0  1.499693347E+02 -7.036041213E+01 -1.566133705E+02  2.599887243E+02  1.250000000E+02  0.00000E+00  9.000E+00
      25     1     1     2     0     0  1.990794015E+00 -9.730834350E+01  3.636475241E+02  3.966577854E+02  1.250000000E+02  0.00000E+00  9.000E+00
      21     1     1     2   512   502 -1.519601287E+02  1.676687556E+02  3.102010452E+02  3.839653380E+02  5.394796609E-06  0.00000E+00  9.000E+00
#rwgt            1           1  -1.9910504120274064E-002           4      343418           0
</event>
<event>
      5   9999  3.79277E-02  3.06095E+01 -1.00000E+00  1.52436E-01
      21    -1     0     0   502   501  0.000000000E+00  0.000000000E+00  5.306026182E+02  5.306026182E+02  0.000000000E+00  0.00000E+00  9.000E+00
      21    -1     0     0   511   502  0.000000000E+00  0.000000000E+00 -1.099703660E+02  1.099703660E+02  0.000000000E+00  0.00000E+00  9.000E+00
      25     1     1     2     0     0 -1.725135729E+02  2.070083402E+01  7.944324673E+01  2.283105053E+02  1.250000000E+02  0.00000E+00  9.000E+00
      25     1     1     2     0     0  1.473036955E+02 -3.806187372E+01  3.173102454E+02  3.734405933E+02  1.250000000E+02  0.00000E+00  9.000E+00
      21     1     1     2   511   501  2.520987739E+01  1.736103970E+01  2.387876005E+01  3.882188557E+01  0.000000000E+00  0.00000E+00  9.000E+00
#rwgt            1           1   3.1351401602976933E-002           4      343463           0
</event>
<event>
      5   9999  3.79277E-02  3.44245E+01 -1.00000E+00  1.49003E-01
      21    -1     0     0   502   512  0.000000000E+00  0.000000000E+00  9.900598329E+01  9.900598329E+01  0.000000000E+00  0.00000E+00  9.000E+00
      21    -1     0     0   501   502  0.000000000E+00  0.000000000E+00 -7.615096642E+02  7.615096642E+02  0.000000000E+00  0.00000E+00  9.000E+00
      25     1     1     2     0     0  1.247144627E+02 -1.056627567E+01 -4.168291882E+02  4.528100214E+02  1.250000000E+02  0.00000E+00  9.000E+00
      25     1     1     2     0     0 -1.573554885E+02  2.150295074E+01 -2.888182465E+02  3.525111433E+02  1.250000000E+02  0.00000E+00  9.000E+00
      21     1     1     2   501   512  3.264102583E+01 -1.093667507E+01  4.314375380E+01  5.519448270E+01  1.784161275E-06  0.00000E+00  9.000E+00
#rwgt            1           1   4.1192047565505589E-002           4      343686           0
</event>
<event>
      5   9999  3.79277E-02  1.60699E+01 -1.00000E+00  1.74610E-01
      21    -1     0     0   511   501  0.000000000E+00  0.000000000E+00  8.790642050E+01  8.790642050E+01  0.000000000E+00  0.00000E+00  9.000E+00
      21    -1     0     0   501   502  0.000000000E+00  0.000000000E+00 -1.004428722E+03  1.004428722E+03  0.000000000E+00  0.00000E+00  9.000E+00
      25     1     1     2     0     0 -2.406317136E+02  6.907700776E+01 -6.260231057E+02  6.857150891E+02  1.250000000E+02  0.00000E+00  9.000E+00
      25     1     1     2     0     0  2.253416628E+02 -7.402223772E+01 -2.691767349E+02  3.799200854E+02  1.250000000E+02  0.00000E+00  9.000E+00
      21     1     1     2   511   502  1.529005074E+01  4.945229961E+00 -2.132246086E+01  2.669996795E+01  5.331201500E-07  0.00000E+00  9.000E+00
#rwgt            1           1   4.2628179146619344E-002           4      343773           0
</event>
<event>
      5   9999  3.79277E-02  1.25156E+01 -1.00000E+00  1.85127E-01
      21    -1     0     0   502   501  0.000000000E+00  0.000000000E+00  1.231650313E+03  1.231650313E+03  0.000000000E+00  0.00000E+00  9.000E+00
      21    -1     0     0   501   512  0.000000000E+00  0.000000000E+00 -1.445080633E+02  1.445080633E+02  0.000000000E+00  0.00000E+00  9.000E+00
      25     1     1     2     0     0  2.011014973E+02  2.837522499E+02  2.442303060E+02  4.429792252E+02  1.250000000E+02  0.00000E+00  9.000E+00
      25     1     1     2     0     0 -2.114479545E+02 -2.907943680E+02  8.366736751E+02  9.191949959E+02  1.250000000E+02  0.00000E+00  9.000E+00
      21     1     1     2   502   512  1.034645719E+01  7.042118068E+00  6.238268785E+00  1.398415534E+01  0.000000000E+00  0.00000E+00  9.000E+00
#rwgt            1           1   3.8484688675567300E-002           4      343957           0
</event>
<event>
      5   9999  3.79277E-02  2.15177E+02 -1.00000E+00  1.10504E-01
      21    -1     0     0   511   501  0.000000000E+00  0.000000000E+00  1.719793923E+02  1.719793923E+02  0.000000000E+00  0.00000E+00  9.000E+00
      21    -1     0     0   501   502  0.000000000E+00  0.000000000E+00 -6.314841414E+02  6.314841414E+02  0.000000000E+00  0.00000E+00  9.000E+00
      25     1     1     2     0     0  1.953896671E+02 -1.660351491E+02 -2.534395443E+02  3.815775090E+02  1.250000000E+02  0.00000E+00  9.000E+00
      25     1     1     2     0     0 -8.515601611E+01 -1.876149640E+01 -7.412634220E+01  1.694793658E+02  1.250000000E+02  0.00000E+00  9.000E+00
      21     1     1     2   511   502 -1.102336510E+02  1.847966455E+02 -1.319388627E+02  2.524066590E+02  1.907348633E-06  0.00000E+00  9.000E+00
#rwgt            1           1   3.9898888927729907E-002           4      344276           0
</event>
<event>
      5   9999 -3.79277E-02  5.92874E+01 -1.00000E+00  1.34981E-01
      21    -1     0     0   502   512  0.000000000E+00  0.000000000E+00  7.172922824E+02  7.172922824E+02  0.000000000E+00  0.00000E+00  9.000E+00
      21    -1     0     0   501   502  0.000000000E+00  0.000000000E+00 -2.025309545E+02  2.025309545E+02  0.000000000E+00  0.00000E+00  9.000E+00
      25     1     1     2     0     0  1.412943282E+02  2.286230249E+01 -5.457613777E-01  1.900317603E+02  1.250000000E+02  0.00000E+00  9.000E+00
      25     1     1     2     0     0 -1.956649782E+02 -4.650176695E+01  2.749137901E+01  2.383861866E+02  1.250000000E+02  0.00000E+00  9.000E+00
      21     1     1     2   501   512  5.437065003E+01  2.363946446E+01  4.878157103E+02  4.914052901E+02  5.394796609E-06  0.00000E+00  9.000E+00
#rwgt            1           1 -0.28333704062153581                4      344304           0
</event>
<event>
      5   9999  3.79277E-02  6.21319E+01 -1.00000E+00  1.33898E-01
      21    -1     0     0   511   501  0.000000000E+00  0.000000000E+00  5.286890484E+01  5.286890484E+01  0.000000000E+00  0.00000E+00  9.000E+00
      21    -1     0     0   501   502  0.000000000E+00  0.000000000E+00 -1.139731835E+03  1.139731835E+03  0.000000000E+00  0.00000E+00  9.000E+00
      25     1     1     2     0     0 -9.760593692E+00  3.942519824E+01 -9.096005033E+02  9.190471648E+02  1.250000000E+02  0.00000E+00  9.000E+00
      25     1     1     2     0     0 -5.010430478E+01 -2.279504456E+01 -8.044120204E+01  1.585113321E+02  1.250000000E+02  0.00000E+00  9.000E+00
      21     1     1     2   511   502  5.986489847E+01 -1.663015369E+01 -9.682122430E+01  1.150422425E+02  1.348699152E-06  0.00000E+00  9.000E+00
#rwgt            1           1   4.0656730001920764E-002           4      344388           0
</event>
<event>
      5   9999  3.79277E-02  3.95230E+02 -1.00000E+00  1.01842E-01
      -3    -1     0     0     0   501  0.000000000E+00  0.000000000E+00  2.137188691E+03  2.137188691E+03  0.000000000E+00  0.00000E+00  9.000E+00
      21    -1     0     0   501   502  0.000000000E+00  0.000000000E+00 -2.305684144E+02  2.305684144E+02  0.000000000E+00  0.00000E+00  9.000E+00
      25     1     1     2     0     0 -2.084443689E+02  1.958874126E+02  2.409933238E+02  3.943649521E+02  1.250000000E+02  0.00000E+00  9.000E+00
      25     1     1     2     0     0  3.171874426E+02  1.840880237E+02  1.641915118E+02  4.208088957E+02  1.250000000E+02  0.00000E+00  9.000E+00
      -3     1     1     2     0   502 -1.087430737E+02 -3.799754363E+02  1.501435441E+03  1.552583258E+03  3.051757812E-05  0.00000E+00  9.000E+00
#rwgt            2           3   9.7067517407774219E-006           4      344563           0
</event>
<event>
      5   9999  3.79277E-02  5.85226E+01 -1.00000E+00  1.35285E-01
       1    -1     0     0   502     0  0.000000000E+00  0.000000000E+00  2.231117473E+03  2.231117473E+03  0.000000000E+00  0.00000E+00  9.000E+00
      21    -1     0     0   501   502  0.000000000E+00  0.000000000E+00 -1.734504742E+02  1.734504742E+02  0.000000000E+00  0.00000E+00  9.000E+00
      25     1     1     2     0     0 -8.402854053E+01 -1.020479809E+02  1.637548740E+02  2.447759073E+02  1.250000000E+02  0.00000E+00  9.000E+00
      25     1     1     2     0     0  1.092360067E+02  1.548634862E+02 -3.524778939E+01  2.297446652E+02  1.250000000E+02  0.00000E+00  9.000E+00
       1     1     1     2   501     0 -2.520746620E+01 -5.281550523E+01  1.929159915E+03  1.930047375E+03  2.157918644E-05  0.00000E+00  9.000E+00
#rwgt            2          17   8.6694601740005932E-004           4      344672           0
</event>
<event>
      5   9999  3.79277E-02  2.20432E+01 -1.00000E+00  1.62957E-01
      21    -1     0     0   511   501  0.000000000E+00  0.000000000E+00  2.069109180E+03  2.069109180E+03  0.000000000E+00  0.00000E+00  9.000E+00
      21    -1     0     0   501   502  0.000000000E+00  0.000000000E+00 -2.805116688E+01  2.805116688E+01  0.000000000E+00  0.00000E+00  9.000E+00
      25     1     1     2     0     0  3.646824523E+01  4.763558486E+01  1.168165129E+03  1.176364676E+03  1.250000000E+02  0.00000E+00  9.000E+00
      25     1     1     2     0     0 -3.123314432E+01 -2.622307017E+01  1.579578789E+02  2.055209240E+02  1.250000000E+02  0.00000E+00  9.000E+00
      21     1     1     2   511   502 -5.235100908E+00 -2.141251469E+01  7.149350048E+02  7.152747466E+02  7.629394531E-06  0.00000E+00  9.000E+00
#rwgt            1           1   6.9927753340204429E-002           4      344976           0
</event>
<event>
      5   9999  3.79277E-02  7.99281E+01 -1.00000E+00  1.28368E-01
      21    -1     0     0   512   501  0.000000000E+00  0.000000000E+00  1.316071235E+03  1.316071235E+03  0.000000000E+00  0.00000E+00  9.000E+00
      21    -1     0     0   501   502  0.000000000E+00  0.000000000E+00 -7.123154951E+02  7.123154951E+02  0.000000000E+00  0.00000E+00  9.000E+00
      25     1     1     2     0     0  9.573105725E+01  2.909504125E+02 -2.252500135E+02  4.002238704E+02  1.250000000E+02  0.00000E+00  9.000E+00
      25     1     1     2     0     0 -1.274473380E+02 -2.175843803E+02 -3.484961818E+02  4.479513090E+02  1.250000000E+02  0.00000E+00  9.000E+00
      21     1     1     2   512   502  3.171628074E+01 -7.336603226E+01  1.177501935E+03  1.180211550E+03  1.525878906E-05  0.00000E+00  9.000E+00
#rwgt            1           1   4.6399168951402794E-002           4      345161           0
</event>
<event>
      5   9999  3.79277E-02  3.68454E+01 -1.00000E+00  1.47088E-01
      21    -1     0     0   502   501  0.000000000E+00  0.000000000E+00  1.720510247E+02  1.720510247E+02  0.000000000E+00  0.00000E+00  9.000E+00
      21    -1     0     0   511   502  0.000000000E+00  0.000000000E+00 -3.681896259E+02  3.681896259E+02  0.000000000E+00  0.00000E+00  9.000E+00
      25     1     1     2     0     0  9.680050433E+01 -9.502043350E+01 -1.592422674E+02  2.436848788E+02  1.250000000E+02  0.00000E+00  9.000E+00
      25     1     1     2     0     0 -1.315302820E+02  8.271502323E+01  4.703903198E+01  2.048893864E+02  1.250000000E+02  0.00000E+00  9.000E+00
      21     1     1     2   511   501  3.472977765E+01  1.230541027E+01 -8.393536583E+01  9.166638541E+01  1.348699152E-06  0.00000E+00  9.000E+00
#rwgt            1           1   3.1799487791427140E-002           4      345275           0
</event>
<event>
      5   9999 -3.79277E-02  3.79073E+01 -1.00000E+00  1.46303E-01
      21    -1     0     0   502   512  0.000000000E+00  0.000000000E+00  2.547845327E+02  2.547845327E+02  0.000000000E+00  0.00000E+00  9.000E+00
      21    -1     0     0   501   502  0.000000000E+00  0.000000000E+00 -2.570381776E+02  2.570381776E+02  0.000000000E+00  0.00000E+00  9.000E+00
      25     1     1     2     0     0 -5.602303727E+01  1.260928411E+02  5.312309725E+01  1.936105595E+02  1.250000000E+02  0.00000E+00  9.000E+00
      25     1     1     2     0     0  7.479159154E+01 -1.590276475E+02 -1.173843414E+02  2.455354525E+02  1.250000000E+02  0.00000E+00  9.000E+00
      21     1     1     2   501   512 -1.876855427E+01  3.293480641E+01  6.200759926E+01  7.267669825E+01  1.168007728E-06  0.00000E+00  9.000E+00
#rwgt            1           1  -7.9815180598945379E-002           4      345597           0
</event>
<event>
      5   9999  3.79277E-02  3.89911E+01 -1.00000E+00  1.45532E-01
      21    -1     0     0   502   501  0.000000000E+00  0.000000000E+00  3.101302254E+02  3.101302254E+02  0.000000000E+00  0.00000E+00  9.000E+00
      21    -1     0     0   501   511  0.000000000E+00  0.000000000E+00 -1.762712726E+02  1.762712726E+02  0.000000000E+00  0.00000E+00  9.000E+00
      25     1     1     2     0     0  1.184502170E+02  7.456136824E+01 -8.932579913E-01  1.876583317E+02  1.250000000E+02  0.00000E+00  9.000E+00
      25     1     1     2     0     0 -1.271706967E+02 -3.655792567E+01  1.678462663E+02  2.476009635E+02  1.250000000E+02  0.00000E+00  9.000E+00
      21     1     1     2   502   511  8.720479710E+00 -3.800344257E+01 -3.309405547E+01  5.114220294E+01  4.768371582E-07  0.00000E+00  9.000E+00
#rwgt            1           1   3.5197512330926731E-002           4      346007           0
</event>
<event>
      5   9999  3.79277E-02  2.82574E+01 -1.00000E+00  1.54867E-01
      21    -1     0     0   502   512  0.000000000E+00  0.000000000E+00  2.005779341E+02  2.005779341E+02  0.000000000E+00  0.00000E+00  9.000E+00
      21    -1     0     0   501   502  0.000000000E+00  0.000000000E+00 -6.237321159E+02  6.237321159E+02  0.000000000E+00  0.00000E+00  9.000E+00
      25     1     1     2     0     0  9.533609998E+01 -2.154233936E+02 -6.582072496E+00  2.667668160E+02  1.250000000E+02  0.00000E+00  9.000E+00
      25     1     1     2     0     0 -1.188332073E+02  1.997273016E+02 -4.450634271E+02  5.174154813E+02  1.250000000E+02  0.00000E+00  9.000E+00
      21     1     1     2   501   512  2.349710727E+01  1.569609191E+01  2.849131775E+01  4.012775272E+01  8.920806376E-07  0.00000E+00  9.000E+00
#rwgt            1           1   4.2463207743834636E-002           4      346149           0
</event>
<event>
      5   9999  3.79277E-02  9.51039E+01 -1.00000E+00  1.24817E-01
      21    -1     0     0   502   501  0.000000000E+00  0.000000000E+00  2.804617571E+02  2.804617571E+02  0.000000000E+00  0.00000E+00  9.000E+00
      21    -1     0     0   501   511  0.000000000E+00  0.000000000E+00 -3.033556608E+02  3.033556608E+02  0.000000000E+00  0.00000E+00  9.000E+00
      25     1     1     2     0     0 -6.878636657E+01  1.460430861E+02 -4.257971028E-02  2.041694126E+02  1.250000000E+02  0.00000E+00  9.000E+00
      25     1     1     2     0     0  1.380062462E+02 -2.112608375E+02  9.644239765E-01  2.816075204E+02  1.250000000E+02  0.00000E+00  9.000E+00
      21     1     1     2   502   511 -6.921987964E+01  6.521775142E+01 -2.381574791E+01  9.804048493E+01  2.050954167E-06  0.00000E+00  9.000E+00
#rwgt            1           1   3.4348224351709269E-002           4      346410           0
</event>
<event>
      5   9999  3.79277E-02  5.06863E+00 -1.00000E+00  2.37487E-01
      21    -1     0     0   502   501  0.000000000E+00  0.000000000E+00  9.603996448E+02  9.603996448E+02  0.000000000E+00  0.00000E+00  9.000E+00
      -2    -1     0     0     0   502  0.000000000E+00  0.000000000E+00 -5.893671370E+02  5.893671370E+02  0.000000000E+00  0.00000E+00  9.000E+00
      25     1     1     2     0     0  1.019738607E+02  1.506252953E+02  3.051887445E+02  3.766322047E+02  1.250000000E+02  0.00000E+00  9.000E+00
      25     1     1     2     0     0 -9.750846401E+01 -1.482271299E+02  6.004675041E+02  6.384868096E+02  1.250000000E+02  0.00000E+00  9.000E+00
      -2     1     1     2     0   501 -4.465396683E+00 -2.398165326E+00 -5.346237409E+02  5.346477675E+02  7.629394531E-06  0.00000E+00  9.000E+00
#rwgt            1           1   2.9360619792529855E-002           4      346517           0
</event>
<event>
      5   9999  3.79277E-02  2.42609E+02 -1.00000E+00  1.08677E-01
       1    -1     0     0   502     0  0.000000000E+00  0.000000000E+00  3.036288899E+02  3.036288899E+02  0.000000000E+00  0.00000E+00  9.000E+00
      21    -1     0     0   501   502  0.000000000E+00  0.000000000E+00 -6.669775141E+02  6.669775141E+02  0.000000000E+00  0.00000E+00  9.000E+00
      25     1     1     2     0     0 -8.686003524E+01  9.986135675E+01  7.905279853E+01  1.984724194E+02  1.250000000E+02  0.00000E+00  9.000E+00
      25     1     1     2     0     0  1.126527588E+02 -3.410955877E+02 -3.349012092E+02  5.067747665E+02  1.250000000E+02  0.00000E+00  9.000E+00
       1     1     1     2   501     0 -2.579272353E+01  2.412342309E+02 -1.075002134E+02  2.653592181E+02  5.046370146E-06  0.00000E+00  9.000E+00
#rwgt            2          17   1.6240924095119738E-005           4      346950           0
</event>
<event>
      5   9999  3.79277E-02  2.42147E+01 -1.00000E+00  1.59796E-01
      21    -1     0     0   511   501  0.000000000E+00  0.000000000E+00  3.583739153E+02  3.583739153E+02  0.000000000E+00  0.00000E+00  9.000E+00
      21    -1     0     0   501   502  0.000000000E+00  0.000000000E+00 -2.276364149E+02  2.276364149E+02  0.000000000E+00  0.00000E+00  9.000E+00
      25     1     1     2     0     0 -9.017710049E+01  2.080143360E+02  1.205290271E+02  2.855768194E+02  1.250000000E+02  0.00000E+00  9.000E+00
      25     1     1     2     0     0  8.005934529E+01 -2.300139104E+02 -9.890836664E-01  2.737551389E+02  1.250000000E+02  0.00000E+00  9.000E+00
      21     1     1     2   511   502  1.011775519E+01  2.199957445E+01  1.119755696E+01  2.667837192E+01  1.192092896E-07  0.00000E+00  9.000E+00
#rwgt            1           1   2.0132076765951856E-002           4      347014           0
</event>
<event>
      5   9999  3.79277E-02  7.10916E+01 -1.00000E+00  1.30881E-01
      21    -1     0     0   502   512  0.000000000E+00  0.000000000E+00  3.330578347E+02  3.330578347E+02  0.000000000E+00  0.00000E+00  9.000E+00
      21    -1     0     0   501   502  0.000000000E+00  0.000000000E+00 -2.080087057E+02  2.080087057E+02  0.000000000E+00  0.00000E+00  9.000E+00
      25     1     1     2     0     0  1.466849335E+02 -3.363618268E+01  5.672879251E+01  2.036934422E+02  1.250000000E+02  0.00000E+00  9.000E+00
      25     1     1     2     0     0 -9.414677519E+01  8.152932751E+01 -6.356030849E+01  1.875514845E+02  1.250000000E+02  0.00000E+00  9.000E+00
      21     1     1     2   501   512 -5.253815834E+01 -4.789314483E+01  1.318806450E+02  1.498216137E+02  2.697398305E-06  0.00000E+00  9.000E+00
#rwgt            1           1   4.0624644239453632E-002           4      347218           0
</event>
<event>
      5   9999  3.79277E-02  4.96909E+01 -1.00000E+00  1.39229E-01
      21    -1     0     0   502   501  0.000000000E+00  0.000000000E+00  2.337482168E+02  2.337482168E+02  0.000000000E+00  0.00000E+00  9.000E+00
      21    -1     0     0   501   511  0.000000000E+00  0.000000000E+00 -5.049600701E+02  5.049600701E+02  0.000000000E+00  0.00000E+00  9.000E+00
      25     1     1     2     0     0 -1.894501047E+02 -7.536407533E+01  6.630344267E+01  2.481778244E+02  1.250000000E+02  0.00000E+00  9.000E+00
      25     1     1     2     0     0  1.928431019E+02  2.578920033E+01 -1.071590469E+02  2.548756680E+02  1.250000000E+02  0.00000E+00  9.000E+00
      21     1     1     2   502   511 -3.392997196E+00  4.957487499E+01 -2.303562491E+02  2.356547945E+02  0.000000000E+00  0.00000E+00  9.000E+00
#rwgt            1           1   4.3856835449592818E-002           4      347340           0
</event>
<event>
      5   9999  3.79277E-02  5.73497E+01 -1.00000E+00  1.35760E-01
      21    -1     0     0   502   501  0.000000000E+00  0.000000000E+00  7.815426295E+02  7.815426295E+02  0.000000000E+00  0.00000E+00  9.000E+00
      -2    -1     0     0     0   502  0.000000000E+00  0.000000000E+00 -9.728923781E+01  9.728923781E+01  0.000000000E+00  0.00000E+00  9.000E+00
      25     1     1     2     0     0  2.748461143E+01  9.158606342E+01  5.522218572E+02  5.742102319E+02  1.250000000E+02  0.00000E+00  9.000E+00
      25     1     1     2     0     0 -7.777952629E+01 -1.191435116E+02  1.530888092E+02  2.435282624E+02  1.250000000E+02  0.00000E+00  9.000E+00
      -2     1     1     2     0   501  5.029491486E+01  2.755744823E+01 -2.105727466E+01  6.109337305E+01  1.011524364E-06  0.00000E+00  9.000E+00
#rwgt            1           1   4.4613877675633642E-002           4      347460           0
</event>
<event>
      5   9999  3.79277E-02  2.62837E+01 -1.00000E+00  1.57139E-01
      21    -1     0     0   502   511  0.000000000E+00  0.000000000E+00  5.848533902E+02  5.848533902E+02  0.000000000E+00  0.00000E+00  9.000E+00
      21    -1     0     0   501   502  0.000000000E+00  0.000000000E+00 -1.199105989E+02  1.199105989E+02  0.000000000E+00  0.00000E+00  9.000E+00
      25     1     1     2     0     0  5.396907671E+01  1.261778892E+02  3.751090002E+02  4.185275176E+02  1.250000000E+02  0.00000E+00  9.000E+00
      25     1     1     2     0     0 -3.232477318E+01 -1.410895682E+02 -1.439251114E+00  1.912543559E+02  1.250000000E+02  0.00000E+00  9.000E+00
      21     1     1     2   501   511 -2.164430353E+01  1.491167897E+01  9.127304222E+01  9.498211558E+01  0.000000000E+00  0.00000E+00  9.000E+00
#rwgt            1           1   4.8955871845742932E-002           4      347622           0
</event>
<event>
      5   9999  3.79277E-02  3.78993E+01 -1.00000E+00  1.46308E-01
      21    -1     0     0   502   501  0.000000000E+00  0.000000000E+00  2.412869331E+02  2.412869331E+02  0.000000000E+00  0.00000E+00  9.000E+00
      21    -1     0     0   512   502  0.000000000E+00  0.000000000E+00 -3.100800846E+02  3.100800846E+02  0.000000000E+00  0.00000E+00  9.000E+00
      25     1     1     2     0     0  9.554690435E+01  9.178662139E+01  1.600177546E+02  2.424555147E+02  1.250000000E+02  0.00000E+00  9.000E+00
      25     1     1     2     0     0 -5.938012611E+01 -8.045884682E+01 -1.411927802E+02  2.134479482E+02  1.250000000E+02  0.00000E+00  9.000E+00
      21     1     1     2   512   501 -3.616677824E+01 -1.132777457E+01 -8.761812594E+01  9.546355492E+01  1.348699152E-06  0.00000E+00  9.000E+00
#rwgt            1           1   4.7162883020011523E-002           4      347779           0
</event>
<event>
      5   9999  3.79277E-02  6.44721E+01 -1.00000E+00  1.33056E-01
      21    -1     0     0   511   501  0.000000000E+00  0.000000000E+00  9.368664870E+01  9.368664870E+01  0.000000000E+00  0.00000E+00  9.000E+00
      21    -1     0     0   501   502  0.000000000E+00  0.000000000E+00 -1.721769509E+03  1.721769509E+03  0.000000000E+00  0.00000E+00  9.000E+00
      25     1     1     2     0     0  1.762658109E+02 -2.943912148E+02 -6.784165600E+02  7.704608052E+02  1.250000000E+02  0.00000E+00  9.000E+00
      25     1     1     2     0     0 -1.884401664E+02  2.310789853E+02 -9.177914099E+02  9.730741318E+02  1.250000000E+02  0.00000E+00  9.000E+00
      21     1     1     2   511   502  1.217435555E+01  6.331222942E+01 -3.187488993E+01  7.192122034E+01  5.840038640E-07  0.00000E+00  9.000E+00
#rwgt            1           1   9.5268892424175741E-003           4      347908           0
</event>
<event>
      5   9999  3.79277E-02  1.66199E+01 -1.00000E+00  1.73288E-01
      21    -1     0     0   502   512  0.000000000E+00  0.000000000E+00  1.865961169E+02  1.865961169E+02  0.000000000E+00  0.00000E+00  9.000E+00
      21    -1     0     0   501   502  0.000000000E+00  0.000000000E+00 -2.438061887E+02  2.438061887E+02  0.000000000E+00  0.00000E+00  9.000E+00
      25     1     1     2     0     0  1.483038413E+01  3.592163773E+01  1.265154332E+02  1.820479585E+02  1.250000000E+02  0.00000E+00  9.000E+00
      25     1     1     2     0     0  4.539079070E-01 -4.244928519E+01 -1.893348432E+02  2.308134110E+02  1.250000000E+02  0.00000E+00  9.000E+00
      21     1     1     2   501   512 -1.528429203E+01  6.527647461E+00  5.609338125E+00  1.754093608E+01  2.230201594E-07  0.00000E+00  9.000E+00
#rwgt            1           1   4.2682030299901391E-002           4      348059           0
</event>
<event>
      5   9999 -3.79277E-02  7.91792E+01 -1.00000E+00  1.28567E-01
      21    -1     0     0   502   501  0.000000000E+00  0.000000000E+00  4.304524934E+02  4.304524934E+02  0.000000000E+00  0.00000E+00  9.000E+00
      -2    -1     0     0     0   502  0.000000000E+00  0.000000000E+00 -3.307040282E+02  3.307040282E+02  0.000000000E+00  0.00000E+00  9.000E+00
      25     1     1     2     0     0  6.815257409E+01  1.169697515E+02  7.938871896E+01  2.006346551E+02  1.250000000E+02  0.00000E+00  9.000E+00
      25     1     1     2     0     0 -8.543137939E+01 -3.969884357E+01  2.625779530E+02  3.056905301E+02  1.250000000E+02  0.00000E+00  9.000E+00
      -2     1     1     2     0   501  1.727880530E+01 -7.727090793E+01 -2.422182068E+02  2.548313364E+02  0.000000000E+00  0.00000E+00  9.000E+00
#rwgt            1           1  -4.2500110308921070E-002           4      348349           0
</event>
<event>
      5   9999  3.79277E-02  1.32151E+01 -1.00000E+00  1.82729E-01
      21    -1     0     0   502   501  0.000000000E+00  0.000000000E+00  2.049381954E+02  2.049381954E+02  0.000000000E+00  0.00000E+00  9.000E+00
      21    -1     0     0   501   511  0.000000000E+00  0.000000000E+00 -5.384584860E+02  5.384584860E+02  0.000000000E+00  0.00000E+00  9.000E+00
      25     1     1     2     0     0 -8.383983060E+01  9.159479270E+01 -3.658696713E+02  4.060841534E+02  1.250000000E+02  0.00000E+00  9.000E+00
      25     1     1     2     0     0  9.448407214E+01 -8.376292312E+01  1.416416725E+02  2.272241857E+02  1.250000000E+02  0.00000E+00  9.000E+00
      21     1     1     2   502   511 -1.064424154E+01 -7.831869583E+00 -1.092922918E+02  1.100883423E+02  1.348699152E-06  0.00000E+00  9.000E+00
#rwgt            1           1   4.0941882397873171E-002           4      348421           0
</event>
<event>
      5   9999  3.79277E-02  1.64480E+01 -1.00000E+00  1.73694E-01
       2    -1     0     0   502     0  0.000000000E+00  0.000000000E+00  2.370018325E+03  2.370018325E+03  0.000000000E+00  0.00000E+00  9.000E+00
      21    -1     0     0   501   502  0.000000000E+00  0.000000000E+00 -2.769340058E+02  2.769340058E+02  0.000000000E+00  0.00000E+00  9.000E+00
      25     1     1     2     0     0  1.047515811E+02  1.027915548E+02 -2.903829037E+01  1.949544044E+02  1.250000000E+02  0.00000E+00  9.000E+00
      25     1     1     2     0     0 -1.047062448E+02 -1.192394970E+02 -1.030445318E+02  2.267699955E+02  1.250000000E+02  0.00000E+00  9.000E+00
       2     1     1     2   501     0 -4.533634366E-02  1.644794214E+01  2.225167141E+03  2.225227931E+03  4.315837288E-05  0.00000E+00  9.000E+00
#rwgt            1           1   4.0750876268095683E-002           4      348795           0
</event>
<event>
      5   9999  3.79277E-02  9.69809E+01 -1.00000E+00  1.24430E-01
      21    -1     0     0   502   501  0.000000000E+00  0.000000000E+00  1.033222014E+02  1.033222014E+02  0.000000000E+00  0.00000E+00  9.000E+00
      21    -1     0     0   501   511  0.000000000E+00  0.000000000E+00 -1.831061749E+03  1.831061749E+03  0.000000000E+00  0.00000E+00  9.000E+00
      25     1     1     2     0     0  7.735970189E+01 -1.172926991E+02  1.231500864E+00  1.880654603E+02  1.250000000E+02  0.00000E+00  9.000E+00
      25     1     1     2     0     0  6.214732537E+00  6.809299601E+01 -1.210397873E+03  1.218754811E+03  1.250000000E+02  0.00000E+00  9.000E+00
      21     1     1     2   502   511 -8.357443443E+01  4.919970313E+01 -5.185731757E+02  5.275636791E+02  0.000000000E+00  0.00000E+00  9.000E+00
#rwgt            1           1   5.3917268164319833E-002           4      348909           0
</event>
<event>
      5   9999  3.79277E-02  7.09489E+01 -1.00000E+00  1.30925E-01
      21    -1     0     0   502   501  0.000000000E+00  0.000000000E+00  4.213429512E+01  4.213429512E+01  0.000000000E+00  0.00000E+00  9.000E+00
       2    -1     0     0   501     0  0.000000000E+00  0.000000000E+00 -4.154719943E+03  4.154719943E+03  0.000000000E+00  0.00000E+00  9.000E+00
      25     1     1     2     0     0 -1.505236924E+02 -1.061481328E+02 -5.128018094E+02  5.590308612E+02  1.250000000E+02  0.00000E+00  9.000E+00
      25     1     1     2     0     0  1.374049659E+02  3.642267418E+01 -4.625070190E+02  4.997444131E+02  1.250000000E+02  0.00000E+00  9.000E+00
       2     1     1     2   502     0  1.311872650E+01  6.972545863E+01 -3.137276820E+03  3.138078964E+03  4.315837288E-05  0.00000E+00  9.000E+00
#rwgt            1           1   3.9546633161216815E-002           4      349025           0
</event>
<event>
      5   9999  3.79277E-02  4.92791E+01 -1.00000E+00  1.39436E-01
      21    -1     0     0   511   501  0.000000000E+00  0.000000000E+00  3.336527697E+02  3.336527697E+02  0.000000000E+00  0.00000E+00  9.000E+00
      21    -1     0     0   501   502  0.000000000E+00  0.000000000E+00 -1.342219709E+02  1.342219709E+02  0.000000000E+00  0.00000E+00  9.000E+00
      25     1     1     2     0     0 -1.016616584E+02  5.566002658E+01  1.146454218E+02  2.054305335E+02  1.250000000E+02  0.00000E+00  9.000E+00
      25     1     1     2     0     0  9.688678756E+01 -1.047072211E+02  3.591765602E+01  1.930433365E+02  1.250000000E+02  0.00000E+00  9.000E+00
      21     1     1     2   511   502  4.774870886E+00  4.904719453E+01  4.886772101E+01  6.940087060E+01  6.743495762E-07  0.00000E+00  9.000E+00
#rwgt            2          11   2.1828384511528836E-003           4      349099           0
</event>
<event>
      5   9999  3.79277E-02  3.57321E+01 -1.00000E+00  1.47946E-01
      -2    -1     0     0     0   501  0.000000000E+00  0.000000000E+00  9.217291942E+02  9.217291942E+02  0.000000000E+00  0.00000E+00  9.000E+00
      21    -1     0     0   501   502  0.000000000E+00  0.000000000E+00 -7.771849811E+01  7.771849811E+01  0.000000000E+00  0.00000E+00  9.000E+00
      25     1     1     2     0     0  7.287385515E+01  1.139089242E+00  6.776914461E+01  1.597797022E+02  1.250000000E+02  0.00000E+00  9.000E+00
      25     1     1     2     0     0 -6.334565569E+01  3.329916054E+01  1.349376013E+02  1.973693553E+02  1.250000000E+02  0.00000E+00  9.000E+00
      -2     1     1     2     0   502 -9.528199465E+00 -3.443824978E+01  6.413039502E+02  6.422986348E+02  7.629394531E-06  0.00000E+00  9.000E+00
#rwgt            1           1   4.9728062534664226E-002           4      349164           0
</event>
<event>
      5   9999  3.79277E-02  1.53294E+02 -1.00000E+00  1.16021E-01
      21    -1     0     0   502   501  0.000000000E+00  0.000000000E+00  2.905753445E+02  2.905753445E+02  0.000000000E+00  0.00000E+00  9.000E+00
      21    -1     0     0   501   511  0.000000000E+00  0.000000000E+00 -4.636109375E+02  4.636109375E+02  0.000000000E+00  0.00000E+00  9.000E+00
      25     1     1     2     0     0  8.396291641E+01 -7.052306034E+01 -2.788602545E+02  3.246710873E+02  1.250000000E+02  0.00000E+00  9.000E+00
      25     1     1     2     0     0 -7.988537012E+01 -8.271649972E+01  1.898211555E+02  2.547170249E+02  1.250000000E+02  0.00000E+00  9.000E+00
      21     1     1     2   502   511 -4.077546293E+00  1.532395601E+02 -8.399649403E+01  1.747981698E+02  3.568322551E-06  0.00000E+00  9.000E+00
#rwgt            1           1   4.4935260690266481E-002           4      349293           0
</event>
<event>
      5   9999 -6.58630E-02  3.97676E+01 -1.00000E+00  1.44997E-01
      21    -1     0     0   502   501  0.000000000E+00  0.000000000E+00  5.102977116E+02  5.102977116E+02  0.000000000E+00  0.00000E+00  9.000E+00
      21    -1     0     0   501   512  0.000000000E+00  0.000000000E+00 -4.395145389E+02  4.395145389E+02  0.000000000E+00  0.00000E+00  9.000E+00
      25     1     1     2     0     0 -3.470797387E+02 -2.561658401E+02 -1.469828699E+00  4.491240843E+02  1.250000000E+02  0.00000E+00  9.000E+00
      25     1     1     2     0     0  3.219503377E+02  2.869875537E+02  8.858653558E+01  4.576968978E+02  1.250000000E+02  0.00000E+00  9.000E+00
      21     1     1     2   502   512  2.512940101E+01 -3.082171358E+01 -1.633353413E+01  4.299126842E+01  9.830249847E-07  0.00000E+00  9.000E+00
#rwgt            1           1  -1.4524235595473134                4      349377           0
</event>
<event>
      5   9999  3.79277E-02  6.80399E+01 -1.00000E+00  1.31848E-01
      21    -1     0     0   502   511  0.000000000E+00  0.000000000E+00  2.806458497E+02  2.806458497E+02  0.000000000E+00  0.00000E+00  9.000E+00
      21    -1     0     0   501   502  0.000000000E+00  0.000000000E+00 -2.386872128E+02  2.386872128E+02  0.000000000E+00  0.00000E+00  9.000E+00
      25     1     1     2     0     0 -6.089678272E+01 -7.931013136E+01 -4.562624446E+01  1.664489990E+02  1.250000000E+02  0.00000E+00  9.000E+00
      25     1     1     2     0     0 -6.919695131E+00  7.380129435E+01 -8.431148281E+01  1.680117239E+02  1.250000000E+02  0.00000E+00  9.000E+00
      21     1     1     2   501   511  6.781647785E+01  5.508837006E+00  1.718963642E+02  1.848723397E+02  0.000000000E+00  0.00000E+00  9.000E+00
#rwgt            1           1  0.13191564533782277                4      349608           0
</event>
<event>
      5   9999  3.79277E-02  2.14781E+01 -1.00000E+00  1.63854E-01
      21    -1     0     0   502   501  0.000000000E+00  0.000000000E+00  2.233726126E+02  2.233726126E+02  0.000000000E+00  0.00000E+00  9.000E+00
      21    -1     0     0   501   512  0.000000000E+00  0.000000000E+00 -2.232292820E+02  2.232292820E+02  0.000000000E+00  0.00000E+00  9.000E+00
      25     1     1     2     0     0  1.002742348E+02  1.373285091E+02 -4.960064290E+01  2.167931395E+02  1.250000000E+02  0.00000E+00  9.000E+00
      25     1     1     2     0     0 -8.979170488E+01 -1.185821698E+02  6.337950907E+01  2.043679120E+02  1.250000000E+02  0.00000E+00  9.000E+00
      21     1     1     2   502   512 -1.048252995E+01 -1.874633921E+01 -1.363553551E+01  2.544084308E+01  3.371747881E-07  0.00000E+00  9.000E+00
#rwgt            1           1   3.7114685644250273E-002           4      349748           0
</event>
<event>
      5   9999  3.79277E-02  8.77564E+01 -1.00000E+00  1.26434E-01
      21    -1     0     0   502   501  0.000000000E+00  0.000000000E+00  3.319354037E+01  3.319354037E+01  0.000000000E+00  0.00000E+00  9.000E+00
      21    -1     0     0   511   502  0.000000000E+00  0.000000000E+00 -2.650901544E+03  2.650901544E+03  0.000000000E+00  0.00000E+00  9.000E+00
      25     1     1     2     0     0 -1.305819032E+02  1.341978619E+02 -5.232947041E+02  5.696692434E+02  1.250000000E+02  0.00000E+00  9.000E+00
      25     1     1     2     0     0  4.411568081E+01 -1.491905553E+02 -1.309194610E+03  1.324318519E+03  1.250000000E+02  0.00000E+00  9.000E+00
      21     1     1     2   511   501  8.646622240E+01  1.499269336E+01 -7.852186896E+02  7.901073212E+02  1.078959322E-05  0.00000E+00  9.000E+00
#rwgt            1           1   2.9970569085879438E-002           4      349876           0
</event>
<event>
      5   9999  3.79277E-02  3.43681E+02 -1.00000E+00  1.03709E-01
       2    -1     0     0   502     0  0.000000000E+00  0.000000000E+00  1.244571141E+03  1.244571141E+03  0.000000000E+00  0.00000E+00  9.000E+00
      21    -1     0     0   501   502  0.000000000E+00  0.000000000E+00 -3.902762319E+02  3.902762319E+02  0.000000000E+00  0.00000E+00  9.000E+00
      25     1     1     2     0     0  9.209213973E+01 -1.112382872E+02  4.298024764E+02  4.703297646E+02  1.250000000E+02  0.00000E+00  9.000E+00
      25     1     1     2     0     0 -4.103929649E+01 -2.286292642E+02 -2.775270454E+02  3.828861779E+02  1.250000000E+02  0.00000E+00  9.000E+00
       2     1     1     2   501     0 -5.105284324E+01  3.398675514E+02  7.020194779E+02  7.816314301E+02  0.000000000E+00  0.00000E+00  9.000E+00
#rwgt            2          18   3.7224125952609787E-004           4      349962           0
</event>
<event>
      5   9999  3.79277E-02  1.16560E+02 -1.00000E+00  1.20907E-01
      21    -1     0     0   502   501  0.000000000E+00  0.000000000E+00  3.608277086E+02  3.608277086E+02  0.000000000E+00  0.00000E+00  9.000E+00
      21    -1     0     0   501   511  0.000000000E+00  0.000000000E+00 -5.553024147E+02  5.553024147E+02  0.000000000E+00  0.00000E+00  9.000E+00
      25     1     1     2     0     0  4.805056088E+01  2.423508045E+02  7.540039356E+01  2.869721035E+02  1.250000000E+02  0.00000E+00  9.000E+00
      25     1     1     2     0     0 -1.301980940E+01 -3.535227179E+02 -4.763897362E+01  3.782093327E+02  1.250000000E+02  0.00000E+00  9.000E+00
      21     1     1     2   502   511 -3.503075147E+01  1.111719134E+02 -2.222361260E+02  2.509486871E+02  2.697398305E-06  0.00000E+00  9.000E+00
#rwgt            1           1   3.5774691303091286E-002           4      350026           0
</event>
<event>
      5   9999  3.79277E-02  1.00920E+02 -1.00000E+00  1.23649E-01
      21    -1     0     0   502   501  0.000000000E+00  0.000000000E+00  6.573873266E+02  6.573873266E+02  0.000000000E+00  0.00000E+00  9.000E+00
      21    -1     0     0   512   502  0.000000000E+00  0.000000000E+00 -2.043532529E+02  2.043532529E+02  0.000000000E+00  0.00000E+00  9.000E+00
      25     1     1     2     0     0  2.658988507E+01 -7.675297634E+01  4.695478843E+02  4.926441485E+02  1.250000000E+02  0.00000E+00  9.000E+00
      25     1     1     2     0     0  7.905512530E-01  1.738880626E+02  8.080861273E+01  2.288945503E+02  1.250000000E+02  0.00000E+00  9.000E+00
      21     1     1     2   512   501 -2.738043632E+01 -9.713508624E+01 -9.732242335E+01  1.402018807E+02  1.907348633E-06  0.00000E+00  9.000E+00
#rwgt            1           1   4.3347595249329393E-002           4      350132           0
</event>
<event>
      5   9999  3.79277E-02  3.46818E+01 -1.00000E+00  1.48790E-01
      21    -1     0     0   511   501  0.000000000E+00  0.000000000E+00  3.856514176E+02  3.856514176E+02  0.000000000E+00  0.00000E+00  9.000E+00
      21    -1     0     0   501   502  0.000000000E+00  0.000000000E+00 -1.403534633E+02  1.403534633E+02  0.000000000E+00  0.00000E+00  9.000E+00
      25     1     1     2     0     0  1.072785466E+02  1.065182578E+01 -3.916740850E+01  1.696503282E+02  1.250000000E+02  0.00000E+00  9.000E+00
      25     1     1     2     0     0 -1.275052283E+02  1.752097971E+01  2.472156184E+02  3.054588842E+02  1.250000000E+02  0.00000E+00  9.000E+00
      21     1     1     2   511   502  2.022668166E+01 -2.817280549E+01  3.724974435E+01  5.089566852E+01  4.768371582E-07  0.00000E+00  9.000E+00
#rwgt            1           1   4.8138179949843950E-002           4      350301           0
</event>
<event>
      5   9999  3.79277E-02  7.39462E+01 -1.00000E+00  1.30026E-01
      21    -1     0     0   512   501  0.000000000E+00  0.000000000E+00  2.160825140E+02  2.160825140E+02  0.000000000E+00  0.00000E+00  9.000E+00
      21    -1     0     0   501   502  0.000000000E+00  0.000000000E+00 -8.098880899E+02  8.098880899E+02  0.000000000E+00  0.00000E+00  9.000E+00
      25     1     1     2     0     0  9.254357052E+01 -2.094989191E+01  8.862152029E+01  1.802275902E+02  1.250000000E+02  0.00000E+00  9.000E+00
      25     1     1     2     0     0 -1.168090404E+02  9.080135621E+01 -7.316890636E+02  7.568904306E+02  1.250000000E+02  0.00000E+00  9.000E+00
      21     1     1     2   512   502  2.426546990E+01 -6.985146430E+01  4.926196740E+01  8.885258312E+01  6.743495762E-07  0.00000E+00  9.000E+00
#rwgt            1           1   4.4438951974036460E-002           4      350415           0
</event>
<event>
      5   9999  3.79277E-02  2.38062E+01 -1.00000E+00  1.60359E-01
      21    -1     0     0   502   501  0.000000000E+00  0.000000000E+00  1.266290769E+02  1.266290769E+02  0.000000000E+00  0.00000E+00  9.000E+00
      21    -1     0     0   501   511  0.000000000E+00  0.000000000E+00 -6.219571243E+02  6.219571243E+02  0.000000000E+00  0.00000E+00  9.000E+00
      25     1     1     2     0     0  6.104363323E+01 -9.994815531E+01 -5.593705387E+01  1.801940979E+02  1.250000000E+02  0.00000E+00  9.000E+00
      25     1     1     2     0     0 -6.115418763E+01  1.237540645E+02 -7.110652031E+01  1.993390087E+02  1.250000000E+02  0.00000E+00  9.000E+00
      21     1     1     2   502   511  1.105544013E-01 -2.380590921E+01 -3.682844732E+02  3.690530948E+02  5.394796609E-06  0.00000E+00  9.000E+00
#rwgt            1           1   4.7634323669309975E-002           4      350518           0
</event>
<event>
      5   9999  3.79277E-02  1.46875E+01 -1.00000E+00  1.78249E-01
      21    -1     0     0   502   501  0.000000000E+00  0.000000000E+00  1.181567337E+02  1.181567337E+02  0.000000000E+00  0.00000E+00  9.000E+00
      21    -1     0     0   501   512  0.000000000E+00  0.000000000E+00 -5.339819322E+02  5.339819322E+02  0.000000000E+00  0.00000E+00  9.000E+00
      25     1     1     2     0     0 -1.899761755E+01  1.004226222E+01  6.701920126E+01  1.434514895E+02  1.250000000E+02  0.00000E+00  9.000E+00
      25     1     1     2     0     0  3.242310951E+01 -4.085859616E+00 -3.187921809E+02  3.439787884E+02  1.250000000E+02  0.00000E+00  9.000E+00
      21     1     1     2   502   512 -1.342549196E+01 -5.956402605E+00 -1.640522188E+02  1.647083880E+02  1.907348633E-06  0.00000E+00  9.000E+00
#rwgt            1           1   2.6779116034236237E-002           4      350652           0
</event>
<event>
      5   9999  3.79277E-02  2.38023E+01 -1.00000E+00  1.60365E-01
      21    -1     0     0   511   501  0.000000000E+00  0.000000000E+00  3.178961649E+02  3.178961649E+02  0.000000000E+00  0.00000E+00  9.000E+00
      21    -1     0     0   501   502  0.000000000E+00  0.000000000E+00 -7.134627181E+01  7.134627181E+01  0.000000000E+00  0.00000E+00  9.000E+00
      25     1     1     2     0     0 -4.564351751E+01 -5.490878544E+00  9.379378874E+01  1.628979903E+02  1.250000000E+02  0.00000E+00  9.000E+00
      25     1     1     2     0     0  6.887528246E+01  1.067091481E+01  1.280952664E+02  1.920704825E+02  1.250000000E+02  0.00000E+00  9.000E+00
      21     1     1     2   511   502 -2.323176494E+01 -5.180036264E+00  2.466083798E+01  3.427396400E+01  4.768371582E-07  0.00000E+00  9.000E+00
#rwgt            1           1   3.3489255894627000E-002           4      350974           0
</event>
<event>
      5   9999  3.79277E-02  1.20222E+01 -1.00000E+00  1.86944E-01
      21    -1     0     0   502   501  0.000000000E+00  0.000000000E+00  3.156174376E+02  3.156174376E+02  0.000000000E+00  0.00000E+00  9.000E+00
      21    -1     0     0   501   512  0.000000000E+00  0.000000000E+00 -1.861740607E+02  1.861740607E+02  0.000000000E+00  0.00000E+00  9.000E+00
      25     1     1     2     0     0  1.439539445E+02 -5.201768509E+01 -5.372605680E+01  2.047927413E+02  1.250000000E+02  0.00000E+00  9.000E+00
      25     1     1     2     0     0 -1.342940356E+02  4.486094638E+01  2.007942286E+02  2.756641340E+02  1.250000000E+02  0.00000E+00  9.000E+00
      21     1     1     2   502   512 -9.659908895E+00  7.156738712E+00 -1.762479484E+01  2.133462308E+01  2.384185791E-07  0.00000E+00  9.000E+00
#rwgt            1           1   4.3197232156942447E-002           4      351054           0
</event>
<event>
      5   9999  3.79277E-02  4.82493E+01 -1.00000E+00  1.39964E-01
      21    -1     0     0   502   501  0.000000000E+00  0.000000000E+00  1.333219112E+03  1.333219112E+03  0.000000000E+00  0.00000E+00  9.000E+00
      21    -1     0     0   501   511  0.000000000E+00  0.000000000E+00 -6.145837540E+01  6.145837540E+01  0.000000000E+00  0.00000E+00  9.000E+00
      25     1     1     2     0     0  1.358518584E+02  4.805080434E+01  1.966625085E+02  2.739812940E+02  1.250000000E+02  0.00000E+00  9.000E+00
      25     1     1     2     0     0 -1.815512770E+02 -3.257303126E+01  1.032704122E+03  1.056468018E+03  1.250000000E+02  0.00000E+00  9.000E+00
      21     1     1     2   502   511  4.569941856E+01 -1.547777308E+01  4.239410560E+01  6.422817533E+01  8.259061849E-07  0.00000E+00  9.000E+00
#rwgt            1           1   4.8503902758778902E-002           4      351269           0
</event>
<event>
      5   9999  3.79277E-02  2.12950E+01 -1.00000E+00  1.64152E-01
      21    -1     0     0   512   501  0.000000000E+00  0.000000000E+00  1.012828860E+02  1.012828860E+02  0.000000000E+00  0.00000E+00  9.000E+00
      21    -1     0     0   501   502  0.000000000E+00  0.000000000E+00 -5.799739201E+02  5.799739201E+02  0.000000000E+00  0.00000E+00  9.000E+00
      25     1     1     2     0     0  1.184996328E+02  1.446442260E+02 -1.755412447E+02  2.853135884E+02  1.250000000E+02  0.00000E+00  9.000E+00
      25     1     1     2     0     0 -1.098948682E+02 -1.251650852E+02 -3.101046231E+02  3.735412399E+02  1.250000000E+02  0.00000E+00  9.000E+00
      21     1     1     2   512   502 -8.604764603E+00 -1.947914083E+01  6.954833726E+00  2.240197789E+01  6.307962682E-07  0.00000E+00  9.000E+00
#rwgt            1           1   3.8454290472395417E-002           4      351430           0
</event>
<event>
      5   9999  3.79277E-02  8.34367E+01 -1.00000E+00  1.27472E-01
      21    -1     0     0   502   501  0.000000000E+00  0.000000000E+00  1.190772156E+02  1.190772156E+02  0.000000000E+00  0.00000E+00  9.000E+00
      21    -1     0     0   511   502  0.000000000E+00  0.000000000E+00 -4.630003776E+02  4.630003776E+02  0.000000000E+00  0.00000E+00  9.000E+00
      25     1     1     2     0     0 -1.548681546E+02 -8.186866655E+01 -1.208694994E+02  2.468219192E+02  1.250000000E+02  0.00000E+00  9.000E+00
      25     1     1     2     0     0  7.143447371E+01  8.257276065E+01 -1.614310343E+02  2.315299628E+02  1.250000000E+02  0.00000E+00  9.000E+00
      21     1     1     2   511   501  8.343368092E+01 -7.040941002E-01 -6.162262828E+01  1.037257113E+02  1.348699152E-06  0.00000E+00  9.000E+00
#rwgt            1           1   3.5086543619722285E-002           4      351631           0
</event>
<event>
      5   9999  3.79277E-02  7.56143E+00 -1.00000E+00  2.10924E-01
      21    -1     0     0   502   501  0.000000000E+00  0.000000000E+00  1.280134499E+02  1.280134499E+02  0.000000000E+00  0.00000E+00  9.000E+00
      21    -1     0     0   501   512  0.000000000E+00  0.000000000E+00 -3.773223332E+02  3.773223332E+02  0.000000000E+00  0.00000E+00  9.000E+00
      25     1     1     2     0     0  5.343909826E+01  9.366112168E+00  4.265670559E+01  1.427867494E+02  1.250000000E+02  0.00000E+00  9.000E+00
      25     1     1     2     0     0 -5.278279507E+01 -1.689901020E+01 -9.750130829E+01  1.679378013E+02  1.250000000E+02  0.00000E+00  9.000E+00
      21     1     1     2   502   512 -6.563031890E-01  7.532898029E+00 -1.944642806E+02  1.946112323E+02  3.814697266E-06  0.00000E+00  9.000E+00
#rwgt            1           1   3.5805209226156216E-002           4      351703           0
</event>
<event>
      5   9999 -3.79277E-02  3.04264E+01 -1.00000E+00  1.52615E-01
      21    -1     0     0   502   501  0.000000000E+00  0.000000000E+00  9.823317916E+01  9.823317916E+01  0.000000000E+00  0.00000E+00  9.000E+00
      21    -1     0     0   501   511  0.000000000E+00  0.000000000E+00 -1.069867528E+03  1.069867528E+03  0.000000000E+00  0.00000E+00  9.000E+00
      25     1     1     2     0     0 -1.117169094E+02  1.818851344E+02 -7.028516425E+02  7.451095901E+02  1.250000000E+02  0.00000E+00  9.000E+00
      25     1     1     2     0     0  8.907280986E+01 -1.615625278E+02 -8.788436543E+01  2.395518264E+02  1.250000000E+02  0.00000E+00  9.000E+00
      21     1     1     2   502   511  2.264409958E+01 -2.032260662E+01 -1.808983414E+02  1.834392910E+02  1.907348633E-06  0.00000E+00  9.000E+00
#rwgt            1           1 -0.20426405542052622                4      351945           0
</event>
<event>
      5   9999  3.79277E-02  2.04464E+01 -1.00000E+00  1.65582E-01
      21    -1     0     0   502   512  0.000000000E+00  0.000000000E+00  2.357461124E+02  2.357461124E+02  0.000000000E+00  0.00000E+00  9.000E+00
      21    -1     0     0   501   502  0.000000000E+00  0.000000000E+00 -2.556281541E+02  2.556281541E+02  0.000000000E+00  0.00000E+00  9.000E+00
      25     1     1     2     0     0  8.592039949E+00  2.451212331E+01 -2.094504252E+02  2.452940031E+02  1.250000000E+02  0.00000E+00  9.000E+00
      25     1     1     2     0     0 -2.401699212E+01 -3.793315843E+01  1.794823221E+02  2.232815361E+02  1.250000000E+02  0.00000E+00  9.000E+00
      21     1     1     2   501   512  1.542495217E+01  1.342103513E+01  1.008606136E+01  2.279872731E+01  4.616955931E-07  0.00000E+00  9.000E+00
#rwgt            1           1   3.0891455079831681E-002           4      352041           0
</event>
<event>
      5   9999  3.79277E-02  7.76671E+01 -1.00000E+00  1.28975E-01
      21    -1     0     0   502   501  0.000000000E+00  0.000000000E+00  1.813192104E+02  1.813192104E+02  0.000000000E+00  0.00000E+00  9.000E+00
      21    -1     0     0   501   511  0.000000000E+00  0.000000000E+00 -4.977726786E+02  4.977726786E+02  0.000000000E+00  0.00000E+00  9.000E+00
      25     1     1     2     0     0  6.177963578E+01 -5.263519171E+01  3.562778462E+01  1.532368293E+02  1.250000000E+02  0.00000E+00  9.000E+00
      25     1     1     2     0     0 -5.005056863E+01  1.294115242E+02 -2.350969738E+01  1.882288710E+02  1.250000000E+02  0.00000E+00  9.000E+00
      21     1     1     2   502   511 -1.172906716E+01 -7.677633250E+01 -3.285715555E+02  3.376261887E+02  3.814697266E-06  0.00000E+00  9.000E+00
#rwgt            1           1   4.0250363012548356E-002           4      352156           0
</event>
<event>
      5   9999  3.79277E-02  5.23268E+01 -1.00000E+00  1.37958E-01
      21    -1     0     0   502   501  0.000000000E+00  0.000000000E+00  2.376304437E+02  2.376304437E+02  0.000000000E+00  0.00000E+00  9.000E+00
      21    -1     0     0   512   502  0.000000000E+00  0.000000000E+00 -1.231265353E+03  1.231265353E+03  0.000000000E+00  0.00000E+00  9.000E+00
      25     1     1     2     0     0  1.254850874E+02  4.164056869E+00  1.772851799E+02  2.506369517E+02  1.250000000E+02  0.00000E+00  9.000E+00
      25     1     1     2     0     0 -1.238589131E+02 -5.646559471E+01 -3.510861920E+02  3.967567365E+02  1.250000000E+02  0.00000E+00  9.000E+00
      21     1     1     2   512   501 -1.626174315E+00  5.230153784E+01 -8.198338973E+02  8.215021086E+02  0.000000000E+00  0.00000E+00  9.000E+00
#rwgt            1           1   3.9042532626662005E-002           4      352215           0
</event>
<event>
      5   9999  3.79277E-02  1.11810E+02 -1.00000E+00  1.21686E-01
       2    -1     0     0   502     0  0.000000000E+00  0.000000000E+00  1.847717724E+03  1.847717724E+03  0.000000000E+00  0.00000E+00  9.000E+00
      21    -1     0     0   501   502  0.000000000E+00  0.000000000E+00 -4.445807788E+01  4.445807788E+01  0.000000000E+00  0.00000E+00  9.000E+00
      25     1     1     2     0     0  2.430299656E+01 -1.073592640E+02  1.129650483E+03  1.141863328E+03  1.250000000E+02  0.00000E+00  9.000E+00
      25     1     1     2     0     0  8.424388444E+01  1.341745107E+02  5.376957105E+02  5.743182989E+02  1.250000000E+02  0.00000E+00  9.000E+00
       2     1     1     2   501     0 -1.085468810E+02 -2.681524670E+01  1.359134524E+02  1.759941743E+02  2.697398305E-06  0.00000E+00  9.000E+00
#rwgt            1           1   2.6259155405630293E-002           4      352333           0
</event>
<event>
      5   9999  3.79277E-02  2.25117E+02 -1.00000E+00  1.09809E-01
      21    -1     0     0   502   501  0.000000000E+00  0.000000000E+00  3.220588103E+02  3.220588103E+02  0.000000000E+00  0.00000E+00  9.000E+00
      21    -1     0     0   511   502  0.000000000E+00  0.000000000E+00 -8.539729214E+02  8.539729214E+02  0.000000000E+00  0.00000E+00  9.000E+00
      25     1     1     2     0     0  1.135241808E+02  3.878443200E+02 -3.861732231E+02  5.727702109E+02  1.250000000E+02  0.00000E+00  9.000E+00
      25     1     1     2     0     0 -2.258327640E+02 -1.927432240E+02  2.144259332E+01  3.228547235E+02  1.250000000E+02  0.00000E+00  9.000E+00
      21     1     1     2   511   501  1.123085832E+02 -1.951010961E+02 -1.671834813E+02  2.804067973E+02  5.046370146E-06  0.00000E+00  9.000E+00
#rwgt            1           1   5.4426909964977586E-002           4      352382           0
</event>
<event>
      5   9999  3.79277E-02  1.73528E+02 -1.00000E+00  1.13940E-01
      21    -1     0     0   502   501  0.000000000E+00  0.000000000E+00  1.444408551E+02  1.444408551E+02  0.000000000E+00  0.00000E+00  9.000E+00
       4    -1     0     0   501     0  0.000000000E+00  0.000000000E+00 -7.939852696E+02  7.939852696E+02  0.000000000E+00  0.00000E+00  9.000E+00
      25     1     1     2     0     0  6.981121600E+01  1.352441203E+02 -3.499211376E+02  4.015400111E+02  1.250000000E+02  0.00000E+00  9.000E+00
      25     1     1     2     0     0  9.292704590E+01 -7.501036211E+01  1.915637751E+01  1.739366468E+02  1.250000000E+02  0.00000E+00  9.000E+00
       4     1     1     2   502     0 -1.627382619E+02 -6.023375815E+01 -3.187796544E+02  3.629494670E+02  3.814697266E-06  0.00000E+00  9.000E+00
#rwgt            2          15   1.0212815627094963E-005           4      352435           0
</event>
<event>
      5   9999  3.79277E-02  2.45752E+01 -1.00000E+00  1.59310E-01
      21    -1     0     0   502   501  0.000000000E+00  0.000000000E+00  8.307308695E+02  8.307308695E+02  0.000000000E+00  0.00000E+00  9.000E+00
      21    -1     0     0   511   502  0.000000000E+00  0.000000000E+00 -8.168188225E+01  8.168188225E+01  0.000000000E+00  0.00000E+00  9.000E+00
      25     1     1     2     0     0 -1.588040352E+02  4.395590420E+01  2.511849986E+02  3.253763154E+02  1.250000000E+02  0.00000E+00  9.000E+00
      25     1     1     2     0     0  1.616491432E+02 -6.836581537E+01  5.142033087E+02  5.575252217E+02  1.250000000E+02  0.00000E+00  9.000E+00
      21     1     1     2   511   501 -2.845108055E+00  2.440991116E+01 -1.633932010E+01  2.951121455E+01  9.830249847E-07  0.00000E+00  9.000E+00
#rwgt            1           1   3.4708523165722732E-002           4      352454           0
</event>
<event>
      5   9999  3.79277E-02  4.38614E+01 -1.00000E+00  1.42401E-01
      21    -1     0     0   502   501  0.000000000E+00  0.000000000E+00  8.501565059E+02  8.501565059E+02  0.000000000E+00  0.00000E+00  9.000E+00
      21    -1     0     0   512   502  0.000000000E+00  0.000000000E+00 -1.708453966E+02  1.708453966E+02  0.000000000E+00  0.00000E+00  9.000E+00
      25     1     1     2     0     0  1.907970007E+02 -8.971004197E+01  5.957954950E+02  6.442427019E+02  1.250000000E+02  0.00000E+00  9.000E+00
      25     1     1     2     0     0 -1.880078008E+02  4.593741952E+01  1.655700686E+02  2.837175132E+02  1.250000000E+02  0.00000E+00  9.000E+00
      21     1     1     2   512   501 -2.789199862E+00  4.377262245E+01 -8.205445430E+01  9.304168734E+01  2.132480600E-06  0.00000E+00  9.000E+00
#rwgt            1           1   3.8603417891978825E-002           4      352663           0
</event>
<event>
      5   9999  3.79277E-02  9.87083E+01 -1.00000E+00  1.24082E-01
      21    -1     0     0   502   501  0.000000000E+00  0.000000000E+00  6.265338165E+01  6.265338165E+01  0.000000000E+00  0.00000E+00  9.000E+00
      21    -1     0     0   501   511  0.000000000E+00  0.000000000E+00 -9.408020938E+02  9.408020938E+02  0.000000000E+00  0.00000E+00  9.000E+00
      25     1     1     2     0     0  5.160624839E+01  1.111604422E+02 -1.556105761E+02  2.342210498E+02  1.250000000E+02  0.00000E+00  9.000E+00
      25     1     1     2     0     0 -1.043423152E+02 -2.772039756E+01 -4.598279297E+02  4.885923292E+02  1.250000000E+02  0.00000E+00  9.000E+00
      21     1     1     2   502   511  5.273606681E+01 -8.344004464E+01 -2.627102063E+02  2.806420964E+02  3.814697266E-06  0.00000E+00  9.000E+00
#rwgt            2          11   2.1794602102743733E-003           4      352786           0
</event>
<event>
      5   9999  3.79277E-02  8.83054E+01 -1.00000E+00  1.26307E-01
      21    -1     0     0   502   512  0.000000000E+00  0.000000000E+00  1.333603238E+02  1.333603238E+02  0.000000000E+00  0.00000E+00  9.000E+00
      21    -1     0     0   501   502  0.000000000E+00  0.000000000E+00 -4.977283760E+02  4.977283760E+02  0.000000000E+00  0.00000E+00  9.000E+00
      25     1     1     2     0     0 -1.590686069E+02  7.019859498E+01 -1.150235638E+02  2.430762939E+02  1.250000000E+02  0.00000E+00  9.000E+00
      25     1     1     2     0     0  1.285742276E+02  1.267443446E+01 -2.390605025E+02  2.991101756E+02  1.250000000E+02  0.00000E+00  9.000E+00
      21     1     1     2   501   512  3.049437923E+01 -8.287302944E+01 -1.028398584E+01  8.890223022E+01  1.788139343E-06  0.00000E+00  9.000E+00
#rwgt            1           1   4.4103007225377355E-002           4      352821           0
</event>
<event>
      5   9999  3.79277E-02  8.02318E+01 -1.00000E+00  1.28289E-01
      21    -1     0     0   502   501  0.000000000E+00  0.000000000E+00  2.106330765E+02  2.106330765E+02  0.000000000E+00  0.00000E+00  9.000E+00
       2    -1     0     0   501     0  0.000000000E+00  0.000000000E+00 -2.038330098E+03  2.038330098E+03  0.000000000E+00  0.00000E+00  9.000E+00
      25     1     1     2     0     0 -1.449153799E+02 -1.208344500E+01  2.226948145E+01  1.930476800E+02  1.250000000E+02  0.00000E+00  9.000E+00
      25     1     1     2     0     0  9.071802506E+01 -4.707551959E+01  3.830017538E+01  1.659450754E+02  1.250000000E+02  0.00000E+00  9.000E+00
       2     1     1     2   502     0  5.419735480E+01  5.915896459E+01 -1.888266679E+03  1.889970419E+03  3.051757812E-05  0.00000E+00  9.000E+00
#rwgt            1           1   1.9241370369869761E-002           4      352897           0
</event>
<event>
      5   9999  3.79277E-02  3.25218E+01 -1.00000E+00  1.50644E-01
      21    -1     0     0   502   501  0.000000000E+00  0.000000000E+00  1.323395712E+02  1.323395712E+02  0.000000000E+00  0.00000E+00  9.000E+00
      21    -1     0     0   501   511  0.000000000E+00  0.000000000E+00 -4.609435339E+02  4.609435339E+02  0.000000000E+00  0.00000E+00  9.000E+00
      25     1     1     2     0     0 -4.834218477E+00  6.281163933E+01 -3.737666584E+01  1.448816305E+02  1.250000000E+02  0.00000E+00  9.000E+00
      25     1     1     2     0     0 -2.750807783E+01 -5.939896708E+01  1.368047693E+01  1.417641954E+02  1.250000000E+02  0.00000E+00  9.000E+00
      21     1     1     2   502   511  3.234229631E+01 -3.412672247E+00 -3.049077738E+02  3.066372792E+02  7.629394531E-06  0.00000E+00  9.000E+00
#rwgt            1           1   4.3206870468935094E-002           4      353017           0
</event>
<event>
      5   9999  3.79277E-02  2.59717E+02 -1.00000E+00  1.07667E-01
      21    -1     0     0   512   501  0.000000000E+00  0.000000000E+00  8.274116963E+02  8.274116963E+02  0.000000000E+00  0.00000E+00  9.000E+00
      21    -1     0     0   501   502  0.000000000E+00  0.000000000E+00 -3.231438202E+02  3.231438202E+02  0.000000000E+00  0.00000E+00  9.000E+00
      25     1     1     2     0     0  3.419081289E+02 -2.803026201E+01  1.472528255E+02  3.936943723E+02  1.250000000E+02  0.00000E+00  9.000E+00
      25     1     1     2     0     0 -8.242678713E+01  3.908225321E+01 -1.318428259E+02  2.032956677E+02  1.250000000E+02  0.00000E+00  9.000E+00
      21     1     1     2   512   502 -2.594813417E+02 -1.105199120E+01  4.888578766E+02  5.535654765E+02  7.629394531E-06  0.00000E+00  9.000E+00
#rwgt            1           1   3.9474906809433150E-002           4      353229           0
</event>
<event>
      5   9999  3.79277E-02  3.04498E+02 -1.00000E+00  1.05382E-01
      21    -1     0     0   502   511  0.000000000E+00  0.000000000E+00  4.354971551E+02  4.354971551E+02  0.000000000E+00  0.00000E+00  9.000E+00
      21    -1     0     0   501   502  0.000000000E+00  0.000000000E+00 -1.882335277E+03  1.882335277E+03  0.000000000E+00  0.00000E+00  9.000E+00
      25     1     1     2     0     0 -9.324249264E+01  2.398523710E+01 -1.093412976E+03  1.104738155E+03  1.250000000E+02  0.00000E+00  9.000E+00
      25     1     1     2     0     0  3.177905555E+02  1.816773487E+02 -6.701286757E+02  7.737537969E+02  1.250000000E+02  0.00000E+00  9.000E+00
      21     1     1     2   501   511 -2.245480629E+02 -2.056625858E+02  3.167035301E+02  4.393404803E+02  0.000000000E+00  0.00000E+00  9.000E+00
#rwgt            2          11   3.7793083921058013E-003           4      353317           0
</event>
<event>
      5   9999  3.79277E-02  1.18393E+01 -1.00000E+00  1.87646E-01
      21    -1     0     0   512   501  0.000000000E+00  0.000000000E+00  6.075936424E+01  6.075936424E+01  0.000000000E+00  0.00000E+00  9.000E+00
      21    -1     0     0   501   502  0.000000000E+00  0.000000000E+00 -4.813966385E+02  4.813966385E+02  0.000000000E+00  0.00000E+00  9.000E+00
      25     1     1     2     0     0  1.078627655E+00 -1.671259554E+01 -3.711647271E+02  3.920060318E+02  1.250000000E+02  0.00000E+00  9.000E+00
      25     1     1     2     0     0 -7.554616789E+00  2.662370187E+01 -3.772005773E+01  1.334679605E+02  1.250000000E+02  0.00000E+00  9.000E+00
      21     1     1     2   512   502  6.475989134E+00 -9.911106329E+00 -1.175248939E+01  1.668201040E+01  2.384185791E-07  0.00000E+00  9.000E+00
#rwgt            1           1   3.8255372375660540E-002           4      353367           0
</event>
<event>
      5   9999 -3.79277E-02  8.77500E+01 -1.00000E+00  1.26435E-01
      21    -1     0     0   511   501  0.000000000E+00  0.000000000E+00  8.849665367E+01  8.849665367E+01  0.000000000E+00  0.00000E+00  9.000E+00
      21    -1     0     0   501   502  0.000000000E+00  0.000000000E+00 -1.131129477E+03  1.131129477E+03  0.000000000E+00  0.00000E+00  9.000E+00
      25     1     1     2     0     0 -3.678560332E+01  2.454356503E+02 -4.682095854E+02  5.444603337E+02  1.250000000E+02  0.00000E+00  9.000E+00
      25     1     1     2     0     0  1.110110124E+02 -1.986312468E+02 -4.835656974E+02  5.488520756E+02  1.250000000E+02  0.00000E+00  9.000E+00
      21     1     1     2   511   502 -7.422540908E+01 -4.680440348E+01 -9.085754008E+01  1.263137211E+02  1.348699152E-06  0.00000E+00  9.000E+00
#rwgt            1           1 -0.30019929203110540                4      353581           0
</event>
<event>
      5   9999  3.79277E-02  1.84775E+02 -1.00000E+00  1.12914E-01
      21    -1     0     0   502   501  0.000000000E+00  0.000000000E+00  5.293292164E+02  5.293292164E+02  0.000000000E+00  0.00000E+00  9.000E+00
      21    -1     0     0   512   502  0.000000000E+00  0.000000000E+00 -3.392429209E+02  3.392429209E+02  0.000000000E+00  0.00000E+00  9.000E+00
      25     1     1     2     0     0  3.419889062E+01 -1.400383670E+02 -3.116151166E+01  1.933296360E+02  1.250000000E+02  0.00000E+00  9.000E+00
      25     1     1     2     0     0 -7.068100560E+01 -4.109903165E+01  3.945732353E+02  4.218980599E+02  1.250000000E+02  0.00000E+00  9.000E+00
      21     1     1     2   512   501  3.648211497E+01  1.811373987E+02 -1.733254281E+02  2.533444413E+02  3.303624740E-06  0.00000E+00  9.000E+00
#rwgt            1           1   2.8867241611942290E-002           4      353711           0
</event>
<event>
      5   9999  3.79277E-02  4.75890E+01 -1.00000E+00  1.40311E-01
      21    -1     0     0   502   501  0.000000000E+00  0.000000000E+00  2.905293287E+02  2.905293287E+02  0.000000000E+00  0.00000E+00  9.000E+00
      21    -1     0     0   501   511  0.000000000E+00  0.000000000E+00 -2.057912637E+02  2.057912637E+02  0.000000000E+00  0.00000E+00  9.000E+00
      25     1     1     2     0     0  1.211206694E+02  1.438210291E+02  3.023346622E+01  2.278020357E+02  1.250000000E+02  0.00000E+00  9.000E+00
      25     1     1     2     0     0 -7.392356835E+01 -1.499160893E+02  6.718737600E+01  2.192684913E+02  1.250000000E+02  0.00000E+00  9.000E+00
      21     1     1     2   502   511 -4.719710106E+01  6.095060212E+00 -1.268277716E+01  4.925006542E+01  3.371747881E-07  0.00000E+00  9.000E+00
#rwgt            1           1   3.2644231583100897E-002           4      353918           0
</event>
<event>
      5   9999  3.79277E-02  3.08289E+01 -1.00000E+00  1.52222E-01
      21    -1     0     0   502   512  0.000000000E+00  0.000000000E+00  3.257257938E+02  3.257257938E+02  0.000000000E+00  0.00000E+00  9.000E+00
      21    -1     0     0   501   502  0.000000000E+00  0.000000000E+00 -2.063863967E+02  2.063863967E+02  0.000000000E+00  0.00000E+00  9.000E+00
      25     1     1     2     0     0  2.614864064E+01 -1.731298566E+01  1.817841680E+02  2.228317182E+02  1.250000000E+02  0.00000E+00  9.000E+00
      25     1     1     2     0     0  3.057884942E+00  7.443699944E+00 -1.621624942E+02  2.049059147E+02  1.250000000E+02  0.00000E+00  9.000E+00
      21     1     1     2   501   512 -2.920652558E+01  9.869285720E+00  9.971772336E+01  1.043745577E+02  1.348699152E-06  0.00000E+00  9.000E+00
#rwgt            1           1   2.5980064063154663E-002           4      353994           0
</event>
<event>
      5   9999  3.79277E-02  9.55347E+01 -1.00000E+00  1.24727E-01
      21    -1     0     0   502   501  0.000000000E+00  0.000000000E+00  5.798339461E+02  5.798339461E+02  0.000000000E+00  0.00000E+00  9.000E+00
      21    -1     0     0   511   502  0.000000000E+00  0.000000000E+00 -2.031110422E+02  2.031110422E+02  0.000000000E+00  0.00000E+00  9.000E+00
      25     1     1     2     0     0 -2.901817604E+02 -3.400605335E+01  3.015824215E+02  4.381082317E+02  1.250000000E+02  0.00000E+00  9.000E+00
      25     1     1     2     0     0  2.000492629E+02  2.335565921E+00  8.021368240E+01  2.491674082E+02  1.250000000E+02  0.00000E+00  9.000E+00
      21     1     1     2   511   501  9.013249747E+01  3.167048743E+01 -5.073199953E+00  9.566934845E+01  1.822577101E-06  0.00000E+00  9.000E+00
#rwgt            1           1   3.5508535800874236E-002           4      354139           0
</event>
<event>
      5   9999  3.79277E-02  3.65234E+01 -1.00000E+00  1.47332E-01
      21    -1     0     0   502   512  0.000000000E+00  0.000000000E+00  1.990237621E+02  1.990237621E+02  0.000000000E+00  0.00000E+00  9.000E+00
      21    -1     0     0   501   502  0.000000000E+00  0.000000000E+00 -3.032825793E+02  3.032825793E+02  0.000000000E+00  0.00000E+00  9.000E+00
      25     1     1     2     0     0 -1.640230593E+02  1.060088843E+02 -6.168988671E+01  2.399418464E+02  1.250000000E+02  0.00000E+00  9.000E+00
      25     1     1     2     0     0  1.277003676E+02 -1.098327069E+02 -6.489126580E+01  2.195597499E+02  1.250000000E+02  0.00000E+00  9.000E+00
      21     1     1     2   501   512  3.632269167E+01  3.823822587E+00  2.232233537E+01  4.280474513E+01  6.307962682E-07  0.00000E+00  9.000E+00
#rwgt            1           1   1.2003535462421460E-002           4      354472           0
</event>
<event>
      5   9999  3.79277E-02  2.91326E+01 -1.00000E+00  1.53930E-01
      21    -1     0     0   502   511  0.000000000E+00  0.000000000E+00  1.596340260E+02  1.596340260E+02  0.000000000E+00  0.00000E+00  9.000E+00
      21    -1     0     0   501   502  0.000000000E+00  0.000000000E+00 -3.229247012E+02  3.229247012E+02  0.000000000E+00  0.00000E+00  9.000E+00
      25     1     1     2     0     0 -2.775636416E+01 -1.056572938E+02  5.460601017E+01  1.747589650E+02  1.250000000E+02  0.00000E+00  9.000E+00
      25     1     1     2     0     0  6.749942246E+00  8.547219862E+01 -2.306491078E+02  2.759983141E+02  1.250000000E+02  0.00000E+00  9.000E+00
      21     1     1     2   501   511  2.100642191E+01  2.018509522E+01  1.275242243E+01  3.180144821E+01  2.920019320E-07  0.00000E+00  9.000E+00
#rwgt            1           1   4.4338815142097289E-002           4      354582           0
</event>
<event>
      5   9999  3.79277E-02  7.73464E+01 -1.00000E+00  1.29063E-01
      21    -1     0     0   512   501  0.000000000E+00  0.000000000E+00  1.529753558E+03  1.529753558E+03  0.000000000E+00  0.00000E+00  9.000E+00
      21    -1     0     0   501   502  0.000000000E+00  0.000000000E+00 -5.619983320E+01  5.619983320E+01  0.000000000E+00  0.00000E+00  9.000E+00
      25     1     1     2     0     0 -1.466361799E+02  5.797945789E+01  7.459692948E+02  7.726312028E+02  1.250000000E+02  0.00000E+00  9.000E+00
      25     1     1     2     0     0  2.032492209E+02 -5.278065623E+00  3.241337389E+02  4.025242657E+02  1.250000000E+02  0.00000E+00  9.000E+00
      21     1     1     2   512   502 -5.661304092E+01 -5.270139227E+01  4.034506910E+02  4.107979226E+02  0.000000000E+00  0.00000E+00  9.000E+00
#rwgt            1           1   3.3460539860728077E-002           4      354724           0
</event>
<event>
      5   9999  3.79277E-02  5.20537E+01 -1.00000E+00  1.38085E-01
      21    -1     0     0   511   501  0.000000000E+00  0.000000000E+00  6.568525303E+02  6.568525303E+02  0.000000000E+00  0.00000E+00  9.000E+00
      21    -1     0     0   501   502  0.000000000E+00  0.000000000E+00 -1.117430433E+02  1.117430433E+02  0.000000000E+00  0.00000E+00  9.000E+00
      25     1     1     2     0     0  7.105397261E+01 -9.568097889E+01  4.240954904E+02  4.579142952E+02  1.250000000E+02  0.00000E+00  9.000E+00
      25     1     1     2     0     0 -3.026274367E+01  1.280176579E+02  2.768742781E+00  1.814855926E+02  1.250000000E+02  0.00000E+00  9.000E+00
      21     1     1     2   511   502 -4.079122893E+01 -3.233667901E+01  1.182452538E+02  1.291956858E+02  2.697398305E-06  0.00000E+00  9.000E+00
#rwgt            1           1   3.5358328038205204E-002           4      354887           0
</event>
<event>
      5   9999  3.79277E-02  8.97306E+01 -1.00000E+00  1.25982E-01
      21    -1     0     0   512   501  0.000000000E+00  0.000000000E+00  1.040651634E+03  1.040651634E+03  0.000000000E+00  0.00000E+00  9.000E+00
      21    -1     0     0   501   502  0.000000000E+00  0.000000000E+00 -1.981636663E+02  1.981636663E+02  0.000000000E+00  0.00000E+00  9.000E+00
      25     1     1     2     0     0 -1.320525113E+02 -8.866615179E+01  6.250572076E+01  2.117345445E+02  1.250000000E+02  0.00000E+00  9.000E+00
      25     1     1     2     0     0  2.167594422E+02  5.906336893E+01  1.572723795E+01  2.575761700E+02  1.250000000E+02  0.00000E+00  9.000E+00
      21     1     1     2   512   502 -8.470693096E+01  2.960278286E+01  7.642550090E+02  7.695045859E+02  0.000000000E+00  0.00000E+00  9.000E+00
#rwgt            1           1   4.8447099722914506E-002           4      355035           0
</event>
<event>
      5   9999  3.79277E-02  1.68989E+01 -1.00000E+00  1.72642E-01
      21    -1     0     0   511   501  0.000000000E+00  0.000000000E+00  8.149365574E+02  8.149365574E+02  0.000000000E+00  0.00000E+00  9.000E+00
      21    -1     0     0   501   502  0.000000000E+00  0.000000000E+00 -5.479271061E+01  5.479271061E+01  0.000000000E+00  0.00000E+00  9.000E+00
      25     1     1     2     0     0 -8.421551124E+01  5.659813574E+01  1.284538840E+02  2.059635929E+02  1.250000000E+02  0.00000E+00  9.000E+00
      25     1     1     2     0     0  9.939977188E+01 -6.401513293E+01  4.579350630E+02  4.891909380E+02  1.250000000E+02  0.00000E+00  9.000E+00
      21     1     1     2   511   502 -1.518426064E+01  7.416997193E+00  1.737548998E+02  1.745747371E+02  2.697398305E-06  0.00000E+00  9.000E+00
#rwgt            2          11   5.7539377052902708E-004           4      355151           0
</event>
<event>
      5   9999  3.79277E-02  6.48316E+01 -1.00000E+00  1.32930E-01
      21    -1     0     0   502   501  0.000000000E+00  0.000000000E+00  1.975213573E+02  1.975213573E+02  0.000000000E+00  0.00000E+00  9.000E+00
      21    -1     0     0   501   512  0.000000000E+00  0.000000000E+00 -3.217219728E+02  3.217219728E+02  0.000000000E+00  0.00000E+00  9.000E+00
      25     1     1     2     0     0 -1.241248939E+02 -4.932712387E+01 -9.982742035E+01  2.084002598E+02  1.250000000E+02  0.00000E+00  9.000E+00
      25     1     1     2     0     0  1.399017323E+02 -1.355548216E+01  6.624335826E+01  1.994227377E+02  1.250000000E+02  0.00000E+00  9.000E+00
      21     1     1     2   502   512 -1.577683844E+01  6.288260603E+01 -9.061655336E+01  1.114203326E+02  1.348699152E-06  0.00000E+00  9.000E+00
#rwgt            1           1   4.2911406894099231E-002           4      355216           0
</event>
<event>
      5   9999  3.79277E-02  6.46779E+01 -1.00000E+00  1.32984E-01
      21    -1     0     0   502   501  0.000000000E+00  0.000000000E+00  4.814907891E+02  4.814907891E+02  0.000000000E+00  0.00000E+00  9.000E+00
      21    -1     0     0   501   511  0.000000000E+00  0.000000000E+00 -4.341615876E+02  4.341615876E+02  0.000000000E+00  0.00000E+00  9.000E+00
      25     1     1     2     0     0  2.945769856E+02  1.969421423E+02 -7.571968164E+01  3.833018107E+02  1.250000000E+02  0.00000E+00  9.000E+00
      25     1     1     2     0     0 -3.589356648E+02 -2.033597348E+02  1.576653696E+02  4.589916797E+02  1.250000000E+02  0.00000E+00  9.000E+00
      21     1     1     2   502   511  6.435867920E+01  6.417592542E+00 -3.461648647E+01  7.335888643E+01  1.066240300E-06  0.00000E+00  9.000E+00
#rwgt            1           1   4.1702157602945114E-002           4      355352           0
</event>
<event>
      5   9999  3.79277E-02  5.28288E+01 -1.00000E+00  1.37725E-01
      21    -1     0     0   502   501  0.000000000E+00  0.000000000E+00  1.415803138E+03  1.415803138E+03  0.000000000E+00  0.00000E+00  9.000E+00
      21    -1     0     0   512   502  0.000000000E+00  0.000000000E+00 -2.259542254E+02  2.259542254E+02  0.000000000E+00  0.00000E+00  9.000E+00
      25     1     1     2     0     0 -3.176793958E+00  6.412076304E+01  2.653612793E+02  3.002718315E+02  1.250000000E+02  0.00000E+00  9.000E+00
      25     1     1     2     0     0 -4.759211222E+01 -7.872914774E+01  1.124220986E+03  1.134883744E+03  1.250000000E+02  0.00000E+00  9.000E+00
      21     1     1     2   512   501  5.076890618E+01  1.460838469E+01 -1.997333523E+02  2.066017879E+02  3.814697266E-06  0.00000E+00  9.000E+00
#rwgt            1           1   4.9372770520457548E-002           4      355638           0
</event>
<event>
      5   9999  3.79277E-02  8.65978E+00 -1.00000E+00  2.03270E-01
      21    -1     0     0   502   501  0.000000000E+00  0.000000000E+00  3.689046585E+02  3.689046585E+02  0.000000000E+00  0.00000E+00  9.000E+00
      21    -1     0     0   511   502  0.000000000E+00  0.000000000E+00 -1.507216779E+02  1.507216779E+02  0.000000000E+00  0.00000E+00  9.000E+00
      25     1     1     2     0     0  1.404928908E+02 -5.525832207E+01  1.598211001E+02  2.529021917E+02  1.250000000E+02  0.00000E+00  9.000E+00
      25     1     1     2     0     0 -1.318416431E+02  5.564255899E+01  1.064954381E+02  2.178177944E+02  1.250000000E+02  0.00000E+00  9.000E+00
      21     1     1     2   511   501 -8.651247728E+00 -3.842369179E-01 -4.813355767E+01  4.890635029E+01  1.348699152E-06  0.00000E+00  9.000E+00
#rwgt            1           1   5.4644176002078819E-002           4      355962           0
</event>
<event>
      5   9999  3.79277E-02  3.67001E+01 -1.00000E+00  1.47198E-01
      21    -1     0     0   502   501  0.000000000E+00  0.000000000E+00  8.893621074E+02  8.893621074E+02  0.000000000E+00  0.00000E+00  9.000E+00
       1    -1     0     0   501     0  0.000000000E+00  0.000000000E+00 -2.459684955E+02  2.459684955E+02  0.000000000E+00  0.00000E+00  9.000E+00
      25     1     1     2     0     0 -2.466850622E+02 -2.598578762E+02  3.951834348E+02  5.478819060E+02  1.250000000E+02  0.00000E+00  9.000E+00
      25     1     1     2     0     0  2.413006177E+02  2.235549196E+02  3.395565306E+02  4.890055498E+02  1.250000000E+02  0.00000E+00  9.000E+00
       1     1     1     2   502     0  5.384444492E+00  3.630295661E+01 -9.134635363E+01  9.844314716E+01  0.000000000E+00  0.00000E+00  9.000E+00
#rwgt            1           1   4.5876701715689160E-002           4      356231           0
</event>
<event>
      5   9999  3.79277E-02  3.39744E+01 -1.00000E+00  1.49379E-01
      21    -1     0     0   502   501  0.000000000E+00  0.000000000E+00  6.543028228E+02  6.543028228E+02  0.000000000E+00  0.00000E+00  9.000E+00
      21    -1     0     0   501   511  0.000000000E+00  0.000000000E+00 -9.042276141E+01  9.042276141E+01  0.000000000E+00  0.00000E+00  9.000E+00
      25     1     1     2     0     0  1.528368276E+02  6.881422048E+01  2.353272754E+02  3.147990142E+02  1.250000000E+02  0.00000E+00  9.000E+00
      25     1     1     2     0     0 -1.840128695E+02 -8.231653677E+01  3.125724091E+02  3.923815226E+02  1.250000000E+02  0.00000E+00  9.000E+00
      21     1     1     2   502   511  3.117604192E+01  1.350231629E+01  1.598037687E+01  3.754504734E+01  3.371747881E-07  0.00000E+00  9.000E+00
#rwgt            1           1   3.9430425139255709E-002           4      356340           0
</event>
<event>
      5   9999  3.79277E-02  2.60126E+01 -1.00000E+00  1.57470E-01
       2    -1     0     0   502     0  0.000000000E+00  0.000000000E+00  6.740203228E+02  6.740203228E+02  0.000000000E+00  0.00000E+00  9.000E+00
      21    -1     0     0   501   502  0.000000000E+00  0.000000000E+00 -7.266535340E+02  7.266535340E+02  0.000000000E+00  0.00000E+00  9.000E+00
      25     1     1     2     0     0 -8.683955935E+01 -2.359235916E+02 -1.636747609E+02  3.249853497E+02  1.250000000E+02  0.00000E+00  9.000E+00
      25     1     1     2     0     0  1.120580539E+02  2.295452807E+02 -4.400715542E+02  5.239618461E+02  1.250000000E+02  0.00000E+00  9.000E+00
       2     1     1     2   501     0 -2.521849452E+01  6.378310938E+00  5.511131039E+02  5.517266611E+02  7.629394531E-06  0.00000E+00  9.000E+00
#rwgt            1           1   3.9612254987831684E-002           4      356526           0
</event>
<event>
      5   9999  3.79277E-02  4.81761E+01 -1.00000E+00  1.40003E-01
      21    -1     0     0   511   501  0.000000000E+00  0.000000000E+00  2.331081420E+02  2.331081420E+02  0.000000000E+00  0.00000E+00  9.000E+00
      21    -1     0     0   501   502  0.000000000E+00  0.000000000E+00 -3.940536392E+02  3.940536392E+02  0.000000000E+00  0.00000E+00  9.000E+00
      25     1     1     2     0     0  8.905618246E+01  2.891538537E+01 -1.346501040E+02  2.062104596E+02  1.250000000E+02  0.00000E+00  9.000E+00
      25     1     1     2     0     0 -1.372260890E+02 -2.968786061E+01 -1.797627093E+02  2.600999812E+02  1.250000000E+02  0.00000E+00  9.000E+00
      21     1     1     2   511   502  4.816990651E+01  7.724752409E-01  1.534673161E+02  1.608513404E+02  1.907348633E-06  0.00000E+00  9.000E+00
#rwgt            1           1   3.6421481165754048E-002           4      356681           0
</event>
<event>
      5   9999  3.79277E-02  3.90687E+01 -1.00000E+00  1.45478E-01
      21    -1     0     0   512   501  0.000000000E+00  0.000000000E+00  9.899416851E+02  9.899416851E+02  0.000000000E+00  0.00000E+00  9.000E+00
      21    -1     0     0   501   502  0.000000000E+00  0.000000000E+00 -2.403669902E+02  2.403669902E+02  0.000000000E+00  0.00000E+00  9.000E+00
      25     1     1     2     0     0 -2.125310136E+02 -2.118595054E+01 -1.322181481E+02  2.805796054E+02  1.250000000E+02  0.00000E+00  9.000E+00
      25     1     1     2     0     0  2.279114673E+02  5.709976654E+01  5.042743318E+02  5.701943721E+02  1.250000000E+02  0.00000E+00  9.000E+00
      21     1     1     2   512   502 -1.538045372E+01 -3.591381600E+01  3.775185112E+02  3.795346978E+02  0.000000000E+00  0.00000E+00  9.000E+00
#rwgt            1           1   3.2301405260624812E-002           4      356825           0
</event>
<event>
      5   9999 -3.79277E-02  1.05749E+01 -1.00000E+00  1.92992E-01
      21    -1     0     0   511   501  0.000000000E+00  0.000000000E+00  3.153652319E+02  3.153652319E+02  0.000000000E+00  0.00000E+00  9.000E+00
      21    -1     0     0   501   502  0.000000000E+00  0.000000000E+00 -5.692055037E+02  5.692055037E+02  0.000000000E+00  0.00000E+00  9.000E+00
      25     1     1     2     0     0 -2.930931203E+02 -7.191236690E+01 -3.850333934E+02  5.049264102E+02  1.250000000E+02  0.00000E+00  9.000E+00
      25     1     1     2     0     0  2.994311164E+02  6.344724616E+01  9.804643420E+01  3.448516345E+02  1.250000000E+02  0.00000E+00  9.000E+00
      21     1     1     2   511   502 -6.337996170E+00  8.465120742E+00  3.314668732E+01  3.479269097E+01  8.259061849E-07  0.00000E+00  9.000E+00
#rwgt            1           1 -0.12193619123268847                4      357009           0
</event>
<event>
      5   9999  3.79277E-02  2.44150E+01 -1.00000E+00  1.59525E-01
      21    -1     0     0   502   501  0.000000000E+00  0.000000000E+00  8.530506474E+01  8.530506474E+01  0.000000000E+00  0.00000E+00  9.000E+00
      21    -1     0     0   501   512  0.000000000E+00  0.000000000E+00 -8.117479340E+02  8.117479340E+02  0.000000000E+00  0.00000E+00  9.000E+00
      25     1     1     2     0     0  3.881744593E+00  9.367294775E+01 -8.453127131E+00  1.564804922E+02  1.250000000E+02  0.00000E+00  9.000E+00
      25     1     1     2     0     0  1.794302277E+01 -8.272893411E+01 -6.691712099E+02  6.859891666E+02  1.250000000E+02  0.00000E+00  9.000E+00
      21     1     1     2   502   512 -2.182476737E+01 -1.094401363E+01 -4.881853231E+01  5.458333997E+01  6.743495762E-07  0.00000E+00  9.000E+00
#rwgt            1           1   4.8306402711293384E-002           4      357360           0
</event>
<event>
      5   9999  3.79277E-02  1.11964E+02 -1.00000E+00  1.21660E-01
      21    -1     0     0   502   501  0.000000000E+00  0.000000000E+00  4.628433537E+02  4.628433537E+02  0.000000000E+00  0.00000E+00  9.000E+00
      21    -1     0     0   501   511  0.000000000E+00  0.000000000E+00 -2.366962421E+02  2.366962421E+02  0.000000000E+00  0.00000E+00  9.000E+00
      25     1     1     2     0     0  2.114676069E+02  1.006849371E+01  1.079144018E+02  2.684966321E+02  1.250000000E+02  0.00000E+00  9.000E+00
      25     1     1     2     0     0 -1.468447199E+02  8.136385008E+01  2.022541223E+02  2.910587189E+02  1.250000000E+02  0.00000E+00  9.000E+00
      21     1     1     2   502   511 -6.462288703E+01 -9.143234378E+01 -8.402141249E+01  1.399842447E+02  2.132480600E-06  0.00000E+00  9.000E+00
#rwgt            1           1   2.7106147332974024E-002           4      357507           0
</event>
<event>
      5   9999  3.79277E-02  2.98208E+01 -1.00000E+00  1.53221E-01
      21    -1     0     0   502   501  0.000000000E+00  0.000000000E+00  5.990469283E+02  5.990469283E+02  0.000000000E+00  0.00000E+00  9.000E+00
      21    -1     0     0   501   512  0.000000000E+00  0.000000000E+00 -1.138228127E+03  1.138228127E+03  0.000000000E+00  0.00000E+00  9.000E+00
      25     1     1     2     0     0 -9.855621269E+01  8.607380747E+01  2.196661963E+02  2.846054553E+02  1.250000000E+02  0.00000E+00  9.000E+00
      25     1     1     2     0     0  8.336316651E+01 -1.117341660E+02  3.214252711E+02  3.719854114E+02  1.250000000E+02  0.00000E+00  9.000E+00
      21     1     1     2   502   512  1.519304618E+01  2.566035850E+01 -1.080272666E+03  1.080684189E+03  1.525878906E-05  0.00000E+00  9.000E+00
#rwgt            1           1   3.5578821804362962E-002           4      357560           0
</event>
<event>
      5   9999  3.79277E-02  6.51090E+01 -1.00000E+00  1.32834E-01
      21    -1     0     0   511   501  0.000000000E+00  0.000000000E+00  1.040401706E+03  1.040401706E+03  0.000000000E+00  0.00000E+00  9.000E+00
      21    -1     0     0   501   502  0.000000000E+00  0.000000000E+00 -1.661467166E+02  1.661467166E+02  0.000000000E+00  0.00000E+00  9.000E+00
      25     1     1     2     0     0 -1.945361812E+02 -3.522957645E+01  1.789406288E+01  2.345861171E+02  1.250000000E+02  0.00000E+00  9.000E+00
      25     1     1     2     0     0  1.509950933E+02  8.363776965E+01  1.453255174E+02  2.579521288E+02  1.250000000E+02  0.00000E+00  9.000E+00
      21     1     1     2   511   502  4.354108790E+01 -4.840819320E+01  7.110354093E+02  7.140101769E+02  7.629394531E-06  0.00000E+00  9.000E+00
#rwgt            1           1   3.4086914478887259E-002           4      357688           0
</event>
<event>
      5   9999  3.79277E-02  3.24848E+01 -1.00000E+00  1.50678E-01
       1    -1     0     0   502     0  0.000000000E+00  0.000000000E+00  9.729712730E+02  9.729712730E+02  0.000000000E+00  0.00000E+00  9.000E+00
      21    -1     0     0   501   502  0.000000000E+00  0.000000000E+00 -6.137347176E+01  6.137347176E+01  0.000000000E+00  0.00000E+00  9.000E+00
      25     1     1     2     0     0  2.283585471E+00  6.561964988E+01  1.075089795E+02  1.774664303E+02  1.250000000E+02  0.00000E+00  9.000E+00
      25     1     1     2     0     0  7.238520169E+00 -3.456180015E+01  1.362302102E+02  1.882301367E+02  1.250000000E+02  0.00000E+00  9.000E+00
       1     1     1     2   501     0 -9.522105640E+00 -3.105784973E+01  6.678586116E+02  6.686481777E+02  1.078959322E-05  0.00000E+00  9.000E+00
#rwgt            1           1   1.8203636038917750E-002           4      357891           0
</event>
<event>
      5   9999  3.79277E-02  1.25638E+02 -1.00000E+00  1.19528E-01
       2    -1     0     0   502     0  0.000000000E+00  0.000000000E+00  8.563226686E+01  8.563226686E+01  0.000000000E+00  0.00000E+00  9.000E+00
      21    -1     0     0   501   502  0.000000000E+00  0.000000000E+00 -1.518400727E+03  1.518400727E+03  0.000000000E+00  0.00000E+00  9.000E+00
      25     1     1     2     0     0 -7.476970654E+01 -9.974364676E+01 -5.278251807E+02  5.565642151E+02  1.250000000E+02  0.00000E+00  9.000E+00
      25     1     1     2     0     0 -5.086745346E+01  9.922362126E+01 -9.064747741E+02  9.218212087E+02  1.250000000E+02  0.00000E+00  9.000E+00
       2     1     1     2   501     0  1.256371600E+02  5.200255011E-01  1.531494611E+00  1.256475701E+02  1.788387679E-06  0.00000E+00  9.000E+00
#rwgt            1           1   3.8940830739201342E-002           4      358029           0
</event>
<event>
      5   9999  3.79277E-02  3.35777E+01 -1.00000E+00  1.49717E-01
      21    -1     0     0   502   501  0.000000000E+00  0.000000000E+00  2.741859382E+02  2.741859382E+02  0.000000000E+00  0.00000E+00  9.000E+00
      21    -1     0     0   501   511  0.000000000E+00  0.000000000E+00 -1.614519175E+02  1.614519175E+02  0.000000000E+00  0.00000E+00  9.000E+00
      25     1     1     2     0     0  6.942758238E+00 -5.525076424E+01  1.962577424E+02  2.392549901E+02  1.250000000E+02  0.00000E+00  9.000E+00
      25     1     1     2     0     0 -4.044227914E+01  5.754135533E+01 -7.445629997E+01  1.616023704E+02  1.250000000E+02  0.00000E+00  9.000E+00
      21     1     1     2   502   511  3.349952090E+01 -2.290591091E+00 -9.067421810E+00  3.478049520E+01  5.462855929E-07  0.00000E+00  9.000E+00
#rwgt            1           1   4.3734044451333151E-002           4      358064           0
</event>
<event>
      5   9999  3.79277E-02  2.02264E+01 -1.00000E+00  1.65967E-01
      21    -1     0     0   512   501  0.000000000E+00  0.000000000E+00  6.122850321E+02  6.122850321E+02  0.000000000E+00  0.00000E+00  9.000E+00
      21    -1     0     0   501   502  0.000000000E+00  0.000000000E+00 -9.920120346E+01  9.920120346E+01  0.000000000E+00  0.00000E+00  9.000E+00
      25     1     1     2     0     0 -1.518850453E+01  1.961239761E+02  2.352560240E+02  3.311581216E+02  1.250000000E+02  0.00000E+00  9.000E+00
      25     1     1     2     0     0  3.540830519E+01 -1.956088671E+02  2.313635122E+02  3.296523195E+02  1.250000000E+02  0.00000E+00  9.000E+00
      21     1     1     2   512   502 -2.021980066E+01 -5.151090689E-01  4.646429245E+01  5.067579451E+01  1.168007728E-06  0.00000E+00  9.000E+00
#rwgt            1           1   2.7902351669439239E-002           4      358200           0
</event>
<event>
      5   9999  3.79277E-02  1.56733E+02 -1.00000E+00  1.15643E-01
       2    -1     0     0   502     0  0.000000000E+00  0.000000000E+00  1.981669000E+02  1.981669000E+02  0.000000000E+00  0.00000E+00  9.000E+00
      21    -1     0     0   501   502  0.000000000E+00  0.000000000E+00 -5.158379893E+02  5.158379893E+02  0.000000000E+00  0.00000E+00  9.000E+00
      25     1     1     2     0     0  4.352440570E+01  1.229629559E+02 -8.889841313E+01  2.013509133E+02  1.250000000E+02  0.00000E+00  9.000E+00
      25     1     1     2     0     0 -1.850528972E+02 -5.562162905E+01 -2.658207195E+02  3.516020411E+02  1.250000000E+02  0.00000E+00  9.000E+00
       2     1     1     2   501     0  1.415284915E+02 -6.734132686E+01  3.704804343E+01  1.610519349E+02  1.581489940E-06  0.00000E+00  9.000E+00
#rwgt            1           1   4.3417445908390383E-002           4      358368           0
</event>
<event>
      5   9999  3.79277E-02  1.05385E+01 -1.00000E+00  1.93160E-01
      21    -1     0     0   502   501  0.000000000E+00  0.000000000E+00  5.787168146E+02  5.787168146E+02  0.000000000E+00  0.00000E+00  9.000E+00
      21    -1     0     0   501   511  0.000000000E+00  0.000000000E+00 -1.066564945E+02  1.066564945E+02  0.000000000E+00  0.00000E+00  9.000E+00
      25     1     1     2     0     0 -1.809427442E+02  7.309034576E+01  1.965312450E+02  3.038618199E+02  1.250000000E+02  0.00000E+00  9.000E+00
      25     1     1     2     0     0  1.894747781E+02 -7.927608204E+01  2.808448203E+02  3.697082658E+02  1.250000000E+02  0.00000E+00  9.000E+00
      21     1     1     2   502   511 -8.532033868E+00  6.185736285E+00 -5.315745192E+00  1.180322338E+01  1.576990671E-07  0.00000E+00  9.000E+00
#rwgt            1           1   8.1494159268010614E-003           4      358442           0
</event>
<event>
      5   9999  3.79277E-02  9.88199E+01 -1.00000E+00  1.24060E-01
      21    -1     0     0   502   512  0.000000000E+00  0.000000000E+00  1.355978782E+02  1.355978782E+02  0.000000000E+00  0.00000E+00  9.000E+00
      21    -1     0     0   501   502  0.000000000E+00  0.000000000E+00 -5.200017133E+02  5.200017133E+02  0.000000000E+00  0.00000E+00  9.000E+00
      25     1     1     2     0     0  1.112751486E+02  2.855444684E-01 -5.423076678E+01  1.759210513E+02  1.250000000E+02  0.00000E+00  9.000E+00
      25     1     1     2     0     0 -1.899719538E+02  5.948222328E+01 -2.892580525E+02  3.727233545E+02  1.250000000E+02  0.00000E+00  9.000E+00
      21     1     1     2   501   512  7.869680516E+01 -5.976776775E+01 -4.091501587E+01  1.069551856E+02  2.336015456E-06  0.00000E+00  9.000E+00
#rwgt            1           1   4.1635936941047509E-002           4      358630           0
</event>
<event>
      5   9999  3.79277E-02  2.73033E+01 -1.00000E+00  1.55936E-01
      21    -1     0     0   502   501  0.000000000E+00  0.000000000E+00  2.618587756E+02  2.618587756E+02  0.000000000E+00  0.00000E+00  9.000E+00
      21    -1     0     0   511   502  0.000000000E+00  0.000000000E+00 -3.738806450E+02  3.738806450E+02  0.000000000E+00  0.00000E+00  9.000E+00
      25     1     1     2     0     0 -7.372869723E+01 -1.545369638E+02  1.847045010E+01  2.127997921E+02  1.250000000E+02  0.00000E+00  9.000E+00
      25     1     1     2     0     0  5.388930697E+01  1.732950934E+02  6.168328428E+01  2.288341635E+02  1.250000000E+02  0.00000E+00  9.000E+00
      21     1     1     2   511   501  1.983939026E+01 -1.875812961E+01 -1.921756038E+02  1.941054650E+02  0.000000000E+00  0.00000E+00  9.000E+00
#rwgt            1           1   3.7380946435705942E-002           4      358719           0
</event>
<event>
      5   9999  3.79277E-02  1.11755E+02 -1.00000E+00  1.21695E-01
      21    -1     0     0   512   501  0.000000000E+00  0.000000000E+00  1.679874401E+02  1.679874401E+02  0.000000000E+00  0.00000E+00  9.000E+00
      21    -1     0     0   501   502  0.000000000E+00  0.000000000E+00 -5.320121791E+02  5.320121791E+02  0.000000000E+00  0.00000E+00  9.000E+00
      25     1     1     2     0     0  1.316023697E+02  1.379700962E+02 -2.343594542E+02  3.269622072E+02  1.250000000E+02  0.00000E+00  9.000E+00
      25     1     1     2     0     0 -1.694977815E+02 -3.283646698E+01 -1.484020924E+02  2.597227608E+02  1.250000000E+02  0.00000E+00  9.000E+00
      21     1     1     2   512   502  3.789541180E+01 -1.051336292E+02  1.873680753E+01  1.133146512E+02  1.390207266E-06  0.00000E+00  9.000E+00
#rwgt            1           1   3.7799305571950013E-002           4      358845           0
</event>
<event>
      5   9999  3.79277E-02  1.05033E+02 -1.00000E+00  1.22876E-01
      21    -1     0     0   511   501  0.000000000E+00  0.000000000E+00  9.571491699E+01  9.571491699E+01  0.000000000E+00  0.00000E+00  9.000E+00
      21    -1     0     0   501   502  0.000000000E+00  0.000000000E+00 -1.077070997E+03  1.077070997E+03  0.000000000E+00  0.00000E+00  9.000E+00
      25     1     1     2     0     0  1.359609357E+02  5.499965282E+01 -3.929563515E+02  4.376642915E+02  1.250000000E+02  0.00000E+00  9.000E+00
      25     1     1     2     0     0 -1.907998741E+02 -1.445794082E+02 -5.668592112E+02  6.279029882E+02  1.250000000E+02  0.00000E+00  9.000E+00
      21     1     1     2   511   502  5.483893839E+01  8.957975536E+01 -2.154051776E+01  1.072186348E+02  1.907348633E-06  0.00000E+00  9.000E+00
#rwgt            1           1   4.3620707363612538E-002           4      358883           0
</event>
<event>
      5   9999  3.79277E-02  8.67195E+01 -1.00000E+00  1.26677E-01
      21    -1     0     0   512   501  0.000000000E+00  0.000000000E+00  7.500566810E+01  7.500566810E+01  0.000000000E+00  0.00000E+00  9.000E+00
      21    -1     0     0   501   502  0.000000000E+00  0.000000000E+00 -1.258089645E+03  1.258089645E+03  0.000000000E+00  0.00000E+00  9.000E+00
      25     1     1     2     0     0 -1.423385479E+02 -9.842244136E+01 -5.838713038E+02  6.216734984E+02  1.250000000E+02  0.00000E+00  9.000E+00
      25     1     1     2     0     0  7.907283513E+01  1.577328076E+02 -5.848207375E+02  6.235161962E+02  1.250000000E+02  0.00000E+00  9.000E+00
      21     1     1     2   512   502  6.326571275E+01 -5.931036623E+01 -1.439193548E+01  8.790561848E+01  8.259061849E-07  0.00000E+00  9.000E+00
#rwgt            1           1   4.6204595295047356E-002           4      358943           0
</event>
<event>
      5   9999  3.79277E-02  3.11224E+01 -1.00000E+00  1.51940E-01
      21    -1     0     0   502   511  0.000000000E+00  0.000000000E+00  6.683636775E+01  6.683636775E+01  0.000000000E+00  0.00000E+00  9.000E+00
      21    -1     0     0   501   502  0.000000000E+00  0.000000000E+00 -7.682038761E+02  7.682038761E+02  0.000000000E+00  0.00000E+00  9.000E+00
      25     1     1     2     0     0  7.667980070E+00 -1.689775427E+02 -2.302067525E+02  3.118210332E+02  1.250000000E+02  0.00000E+00  9.000E+00
      25     1     1     2     0     0  1.218674085E+01  1.450110708E+02 -4.355449722E+02  4.759213697E+02  1.250000000E+02  0.00000E+00  9.000E+00
      21     1     1     2   501   511 -1.985472092E+01  2.396647185E+01 -3.561578363E+01  4.729784096E+01  4.768371582E-07  0.00000E+00  9.000E+00
#rwgt            1           1   4.5493772750322521E-002           4      359048           0
</event>
<event>
      5   9999  3.79277E-02  3.59865E+01 -1.00000E+00  1.47747E-01
      21    -1     0     0   502   501  0.000000000E+00  0.000000000E+00  1.138908379E+02  1.138908379E+02  0.000000000E+00  0.00000E+00  9.000E+00
      21    -1     0     0   512   502  0.000000000E+00  0.000000000E+00 -7.366009860E+02  7.366009860E+02  0.000000000E+00  0.00000E+00  9.000E+00
      25     1     1     2     0     0 -2.189421886E+00 -1.626353002E+02 -4.212007906E+01  2.094137902E+02  1.250000000E+02  0.00000E+00  9.000E+00
      25     1     1     2     0     0  2.314716630E+01  1.333812750E+02 -2.611096113E+02  3.195771972E+02  1.250000000E+02  0.00000E+00  9.000E+00
      21     1     1     2   512   501 -2.095774441E+01  2.925402522E+01 -3.194804578E+02  3.215008366E+02  3.814697266E-06  0.00000E+00  9.000E+00
#rwgt            1           1   6.0258255232471754E-002           4      359193           0
</event>
<event>
      5   9999  3.79277E-02  4.10762E+01 -1.00000E+00  1.44129E-01
      21    -1     0     0   511   501  0.000000000E+00  0.000000000E+00  2.792688975E+02  2.792688975E+02  0.000000000E+00  0.00000E+00  9.000E+00
      21    -1     0     0   501   502  0.000000000E+00  0.000000000E+00 -2.722222768E+02  2.722222768E+02  0.000000000E+00  0.00000E+00  9.000E+00
      25     1     1     2     0     0 -3.684601553E+01  1.514323064E+02 -1.351145012E+02  2.411852000E+02  1.250000000E+02  0.00000E+00  9.000E+00
      25     1     1     2     0     0  5.987713432E+01 -1.854443642E+02  1.367168683E+02  2.688705739E+02  1.250000000E+02  0.00000E+00  9.000E+00
      21     1     1     2   511   502 -2.303111879E+01  3.401205785E+01  5.444253652E+00  4.143540044E+01  3.475518164E-07  0.00000E+00  9.000E+00
#rwgt            1           1   3.8662898533094646E-002           4      359361           0
</event>
<event>
      5   9999  3.79277E-02  2.88037E+01 -1.00000E+00  1.54278E-01
      21    -1     0     0   502   501  0.000000000E+00  0.000000000E+00  3.787630670E+02  3.787630670E+02  0.000000000E+00  0.00000E+00  9.000E+00
      21    -1     0     0   501   512  0.000000000E+00  0.000000000E+00 -1.871917073E+02  1.871917073E+02  0.000000000E+00  0.00000E+00  9.000E+00
      25     1     1     2     0     0 -8.874601030E+01 -1.352124470E+02  2.509938828E+02  3.236992267E+02  1.250000000E+02  0.00000E+00  9.000E+00
      25     1     1     2     0     0  7.836569518E+01  1.083441902E+02 -7.881822197E+00  1.832123600E+02  1.250000000E+02  0.00000E+00  9.000E+00
      21     1     1     2   502   512  1.038031512E+01  2.686825679E+01 -5.154070087E+01  5.904318768E+01  0.000000000E+00  0.00000E+00  9.000E+00
#rwgt            1           1   4.2923524892104652E-002           4      359459           0
</event>
<event>
      5   9999  3.79277E-02  5.77818E+01 -1.00000E+00  1.35584E-01
      21    -1     0     0   502   511  0.000000000E+00  0.000000000E+00  2.577654758E+03  2.577654758E+03  0.000000000E+00  0.00000E+00  9.000E+00
      21    -1     0     0   501   502  0.000000000E+00  0.000000000E+00 -1.370264322E+02  1.370264322E+02  0.000000000E+00  0.00000E+00  9.000E+00
      25     1     1     2     0     0  1.879619269E+01  1.194666982E+02  1.886207367E+02  2.565704020E+02  1.250000000E+02  0.00000E+00  9.000E+00
      25     1     1     2     0     0  3.712455589E+01 -1.049200278E+02 -3.449016798E+01  1.708830494E+02  1.250000000E+02  0.00000E+00  9.000E+00
      21     1     1     2   501   511 -5.592074858E+01 -1.454667041E+01  2.286497757E+03  2.287227739E+03  3.051757812E-05  0.00000E+00  9.000E+00
#rwgt            1           1   4.6976169996549896E-002           4      359671           0
</event>
<event>
      5   9999  3.79277E-02  8.25602E+01 -1.00000E+00  1.27691E-01
      21    -1     0     0   502   501  0.000000000E+00  0.000000000E+00  1.261666055E+02  1.261666055E+02  0.000000000E+00  0.00000E+00  9.000E+00
      21    -1     0     0   512   502  0.000000000E+00  0.000000000E+00 -5.545350461E+02  5.545350461E+02  0.000000000E+00  0.00000E+00  9.000E+00
      25     1     1     2     0     0 -3.386319697E+00  1.521647659E+02 -1.035417193E+01  1.972252317E+02  1.250000000E+02  0.00000E+00  9.000E+00
      25     1     1     2     0     0  2.434339565E+01 -7.230868843E+01 -1.830013341E+02  2.343835225E+02  1.250000000E+02  0.00000E+00  9.000E+00
      21     1     1     2   512   501 -2.095707595E+01 -7.985607742E+01 -2.350129346E+02  2.490928974E+02  2.697398305E-06  0.00000E+00  9.000E+00
#rwgt            1           1   3.1208716340230223E-002           4      359777           0
</event>
<event>
      5   9999  3.79277E-02  2.97366E+01 -1.00000E+00  1.53306E-01
      21    -1     0     0   502   511  0.000000000E+00  0.000000000E+00  7.383371168E+01  7.383371168E+01  0.000000000E+00  0.00000E+00  9.000E+00
      21    -1     0     0   501   502  0.000000000E+00  0.000000000E+00 -1.064125627E+03  1.064125627E+03  0.000000000E+00  0.00000E+00  9.000E+00
      25     1     1     2     0     0  8.017981879E+00  1.996247333E+01 -9.586315118E+02  9.669861239E+02  1.250000000E+02  0.00000E+00  9.000E+00
      25     1     1     2     0     0  6.803122393E+00  5.817336646E+00  2.934523704E+00  1.253544387E+02  1.250000000E+02  0.00000E+00  9.000E+00
      21     1     1     2   501   511 -1.482110427E+01 -2.577980997E+01 -3.459492696E+01  4.561877580E+01  4.768371582E-07  0.00000E+00  9.000E+00
#rwgt            1           1   3.7769863811746046E-002           4      359845           0
</event>
<event>
      5   9999 -3.79277E-02  6.69465E+01 -1.00000E+00  1.32209E-01
      21    -1     0     0   502   512  0.000000000E+00  0.000000000E+00  1.669900843E+02  1.669900843E+02  0.000000000E+00  0.00000E+00  9.000E+00
      21    -1     0     0   501   502  0.000000000E+00  0.000000000E+00 -7.605077070E+02  7.605077070E+02  0.000000000E+00  0.00000E+00  9.000E+00
      25     1     1     2     0     0 -2.322228142E+01 -1.143924374E+02 -1.854305701E+02  2.522585982E+02  1.250000000E+02  0.00000E+00  9.000E+00
      25     1     1     2     0     0  6.824806536E+01  1.639354387E+02 -5.094280697E+02  5.537820732E+02  1.250000000E+02  0.00000E+00  9.000E+00
      21     1     1     2   501   512 -4.502578394E+01 -4.954300137E+01  1.013410171E+02  1.214571198E+02  2.697398305E-06  0.00000E+00  9.000E+00
#rwgt            1           1 -0.10348091575270764                4      359972           0
</event>
<event>
      5   9999  3.79277E-02  1.37072E+01 -1.00000E+00  1.81152E-01
       1    -1     0     0   502     0  0.000000000E+00  0.000000000E+00  5.265252450E+02  5.265252450E+02  0.000000000E+00  0.00000E+00  9.000E+00
      21    -1     0     0   501   502  0.000000000E+00  0.000000000E+00 -1.236525660E+02  1.236525660E+02  0.000000000E+00  0.00000E+00  9.000E+00
      25     1     1     2     0     0 -5.597918891E+01  1.978860132E+02  1.864288184E+02  3.044228115E+02  1.250000000E+02  0.00000E+00  9.000E+00
      25     1     1     2     0     0  4.466974016E+01 -2.056308924E+02  1.717397556E+02  2.989966442E+02  1.250000000E+02  0.00000E+00  9.000E+00
       1     1     1     2   501     0  1.130944875E+01  7.744879192E+00  4.470410507E+01  4.675835535E+01  4.768371582E-07  0.00000E+00  9.000E+00
#rwgt            1           1   3.7671876365710594E-002           4      360074           0
</event>
<event>
      5   9999  3.79277E-02  1.51128E+01 -1.00000E+00  1.77077E-01
      21    -1     0     0   502   501  0.000000000E+00  0.000000000E+00  6.399103466E+01  6.399103466E+01  0.000000000E+00  0.00000E+00  9.000E+00
       2    -1     0     0   501     0  0.000000000E+00  0.000000000E+00 -1.204609675E+03  1.204609675E+03  0.000000000E+00  0.00000E+00  9.000E+00
      25     1     1     2     0     0  1.950536075E+01 -1.893714273E+02 -6.161305753E+02  6.568743277E+02  1.250000000E+02  0.00000E+00  9.000E+00
      25     1     1     2     0     0 -9.099367249E+00  2.003310531E+02 -2.783670728E+02  3.651418307E+02  1.250000000E+02  0.00000E+00  9.000E+00
       2     1     1     2   502     0 -1.040599350E+01 -1.095962579E+01 -2.461209928E+02  2.465845518E+02  0.000000000E+00  0.00000E+00  9.000E+00
#rwgt            1           1  0.14314038579205954                4      360338           0
</event>
<event>
      5   9999  3.79277E-02  3.84857E+01 -1.00000E+00  1.45887E-01
      21    -1     0     0   502   511  0.000000000E+00  0.000000000E+00  2.750982877E+02  2.750982877E+02  0.000000000E+00  0.00000E+00  9.000E+00
      21    -1     0     0   501   502  0.000000000E+00  0.000000000E+00 -1.683435791E+02  1.683435791E+02  0.000000000E+00  0.00000E+00  9.000E+00
      25     1     1     2     0     0 -1.157432207E+02 -6.271849529E+01  6.954105443E+01  1.943992311E+02  1.250000000E+02  0.00000E+00  9.000E+00
      25     1     1     2     0     0  1.541366205E+02  6.005439817E+01  2.604331772E+01  2.089686171E+02  1.250000000E+02  0.00000E+00  9.000E+00
      21     1     1     2   501   511 -3.839339980E+01  2.664097120E+00  1.117033643E+01  4.007401873E+01  9.000103993E-07  0.00000E+00  9.000E+00
#rwgt            1           1   3.9609454831819789E-002           4      360582           0
</event>
<event>
      5   9999  3.79277E-02  3.60946E+01 -1.00000E+00  1.47663E-01
      21    -1     0     0   512   501  0.000000000E+00  0.000000000E+00  4.695343859E+02  4.695343859E+02  0.000000000E+00  0.00000E+00  9.000E+00
      21    -1     0     0   501   502  0.000000000E+00  0.000000000E+00 -6.714626064E+01  6.714626064E+01  0.000000000E+00  0.00000E+00  9.000E+00
      25     1     1     2     0     0  3.129604327E+01 -9.127380764E+01  2.571205337E+02  3.017388260E+02  1.250000000E+02  0.00000E+00  9.000E+00
      25     1     1     2     0     0 -7.344914185E+00  6.427073299E+01  8.421552587E+01  1.640180773E+02  1.250000000E+02  0.00000E+00  9.000E+00
      21     1     1     2   512   502 -2.395112909E+01  2.700307465E+01  6.105206576E+01  7.092374326E+01  6.743495762E-07  0.00000E+00  9.000E+00
#rwgt            1           1   4.4031136248740076E-002           4      360693           0
</event>
<event>
      5   9999  3.79277E-02  5.05346E+01 -1.00000E+00  1.38813E-01
      21    -1     0     0   511   501  0.000000000E+00  0.000000000E+00  9.775917452E+02  9.775917452E+02  0.000000000E+00  0.00000E+00  9.000E+00
      21    -1     0     0   501   502  0.000000000E+00  0.000000000E+00 -2.252769125E+02  2.252769125E+02  0.000000000E+00  0.00000E+00  9.000E+00
      25     1     1     2     0     0  6.878808884E+01 -9.602138775E+01 -1.460756246E+02  2.256435157E+02  1.250000000E+02  0.00000E+00  9.000E+00
      25     1     1     2     0     0 -1.077918962E+02  6.388966989E+01  1.646122687E+02  2.417088782E+02  1.250000000E+02  0.00000E+00  9.000E+00
      21     1     1     2   511   502  3.900380736E+01  3.213171786E+01  7.337781886E+02  7.355162638E+02  1.078959322E-05  0.00000E+00  9.000E+00
#rwgt            1           1   4.5836400870052647E-002           4      360792           0
</event>
<event>
      5   9999  3.79277E-02  3.63096E+01 -1.00000E+00  1.47496E-01
      21    -1     0     0   512   501  0.000000000E+00  0.000000000E+00  8.737210928E+01  8.737210928E+01  0.000000000E+00  0.00000E+00  9.000E+00
      21    -1     0     0   501   502  0.000000000E+00  0.000000000E+00 -4.418007986E+02  4.418007986E+02  0.000000000E+00  0.00000E+00  9.000E+00
      25     1     1     2     0     0  5.633063435E+01  3.213738347E+01 -1.562915287E+02  2.103758392E+02  1.250000000E+02  0.00000E+00  9.000E+00
      25     1     1     2     0     0 -4.357070152E+01 -6.613111981E+01 -2.279826482E+02  2.717955462E+02  1.250000000E+02  0.00000E+00  9.000E+00
      21     1     1     2   512   502 -1.275993283E+01  3.399373634E+01  2.984548751E+01  4.700152254E+01  0.000000000E+00  0.00000E+00  9.000E+00
#rwgt            1           1   6.4166894491105950E-002           4      360880           0
</event>
<event>
      5   9999  3.79277E-02  6.63174E+01 -1.00000E+00  1.32420E-01
      21    -1     0     0   502   501  0.000000000E+00  0.000000000E+00  7.766082100E+02  7.766082100E+02  0.000000000E+00  0.00000E+00  9.000E+00
      21    -1     0     0   511   502  0.000000000E+00  0.000000000E+00 -8.527036453E+01  8.527036453E+01  0.000000000E+00  0.00000E+00  9.000E+00
      25     1     1     2     0     0  1.693635761E+02 -1.603713572E+01  5.393793414E+02  5.792204111E+02  1.250000000E+02  0.00000E+00  9.000E+00
      25     1     1     2     0     0 -1.043447546E+02  2.977682278E+00  7.008402050E+01  1.772948514E+02  1.250000000E+02  0.00000E+00  9.000E+00
      21     1     1     2   511   501 -6.501882149E+01  1.305945345E+01  8.187448351E+01  1.053633120E+02  1.651812370E-06  0.00000E+00  9.000E+00
#rwgt            1           1   3.9738083627532665E-002           4      361009           0
</event>
<event>
      5   9999  3.79277E-02  7.75378E+01 -1.00000E+00  1.29010E-01
      21    -1     0     0   512   501  0.000000000E+00  0.000000000E+00  6.808807616E+02  6.808807616E+02  0.000000000E+00  0.00000E+00  9.000E+00
      21    -1     0     0   501   502  0.000000000E+00  0.000000000E+00 -1.377298904E+02  1.377298904E+02  0.000000000E+00  0.00000E+00  9.000E+00
      25     1     1     2     0     0  2.347981234E+01  6.282383293E+01  4.624693320E+02  4.837365178E+02  1.250000000E+02  0.00000E+00  9.000E+00
      25     1     1     2     0     0 -3.813174572E+01 -1.389647104E+02 -3.663633672E+01  1.942484027E+02  1.250000000E+02  0.00000E+00  9.000E+00
      21     1     1     2   512   502  1.465193338E+01  7.614087748E+01  1.173178759E+02  1.406257316E+02  1.348699152E-06  0.00000E+00  9.000E+00
#rwgt            1           1   3.5920817437794364E-002           4      361110           0
</event>
<event>
      5   9999  3.79277E-02  1.57018E+01 -1.00000E+00  1.75533E-01
      21    -1     0     0   502   511  0.000000000E+00  0.000000000E+00  1.146507341E+02  1.146507341E+02  0.000000000E+00  0.00000E+00  9.000E+00
      21    -1     0     0   501   502  0.000000000E+00  0.000000000E+00 -2.759398085E+02  2.759398085E+02  0.000000000E+00  0.00000E+00  9.000E+00
      25     1     1     2     0     0  4.378791719E+01  1.469099053E+01  3.334465343E+01  1.373683836E+02  1.250000000E+02  0.00000E+00  9.000E+00
      25     1     1     2     0     0 -3.656407393E+01 -2.863234007E+01 -1.964318240E+02  2.374177834E+02  1.250000000E+02  0.00000E+00  9.000E+00
      21     1     1     2   501   511 -7.223843260E+00  1.394134955E+01  1.798096190E+00  1.580437561E+01  2.632069846E-07  0.00000E+00  9.000E+00
#rwgt            1           1   4.3293518847606079E-002           4      361202           0
</event>
<event>
      5   9999  3.79277E-02  1.82664E+01 -1.00000E+00  1.69685E-01
      21    -1     0     0   512   501  0.000000000E+00  0.000000000E+00  8.562140527E+02  8.562140527E+02  0.000000000E+00  0.00000E+00  9.000E+00
      21    -1     0     0   501   502  0.000000000E+00  0.000000000E+00 -5.544732623E+01  5.544732623E+01  0.000000000E+00  0.00000E+00  9.000E+00
      25     1     1     2     0     0  8.551410475E+01 -9.506056408E+01  1.662458131E+02  2.441553672E+02  1.250000000E+02  0.00000E+00  9.000E+00
      25     1     1     2     0     0 -1.037106299E+02  9.346381851E+01  5.979606436E+02  6.266365066E+02  1.250000000E+02  0.00000E+00  9.000E+00
      21     1     1     2   512   502  1.819652515E+01  1.596745567E+00  3.656026980E+01  4.086950516E+01  4.768371582E-07  0.00000E+00  9.000E+00
#rwgt            1           1   3.6845153544634045E-002           4      361378           0
</event>
<event>
      5   9999  3.79277E-02  5.02978E+01 -1.00000E+00  1.38929E-01
      21    -1     0     0   502   501  0.000000000E+00  0.000000000E+00  1.673633064E+03  1.673633064E+03  0.000000000E+00  0.00000E+00  9.000E+00
      21    -1     0     0   511   502  0.000000000E+00  0.000000000E+00 -4.950828855E+01  4.950828855E+01  0.000000000E+00  0.00000E+00  9.000E+00
      25     1     1     2     0     0  1.362518930E+02  1.366140338E+02  5.093975774E+02  5.588728518E+02  1.250000000E+02  0.00000E+00  9.000E+00
      25     1     1     2     0     0 -1.860519139E+02 -1.436731390E+02  1.044435252E+03  1.077834534E+03  1.250000000E+02  0.00000E+00  9.000E+00
      21     1     1     2   511   501  4.980002090E+01  7.059105212E+00  7.029194576E+01  8.643396721E+01  1.651812370E-06  0.00000E+00  9.000E+00
#rwgt            1           1   4.3353058749021171E-002           4      361554           0
</event>
<event>
      5   9999  3.79277E-02  3.96991E+01 -1.00000E+00  1.45044E-01
      21    -1     0     0   502   501  0.000000000E+00  0.000000000E+00  3.139629370E+01  3.139629370E+01  0.000000000E+00  0.00000E+00  9.000E+00
       2    -1     0     0   501     0  0.000000000E+00  0.000000000E+00 -2.994522604E+03  2.994522604E+03  0.000000000E+00  0.00000E+00  9.000E+00
      25     1     1     2     0     0  8.207708076E+01  1.005992932E+02 -8.124722995E+02  8.322217868E+02  1.250000000E+02  0.00000E+00  9.000E+00
      25     1     1     2     0     0 -4.273467605E+01 -1.059087032E+02 -3.150614253E+02  3.576752824E+02  1.250000000E+02  0.00000E+00  9.000E+00
       2     1     1     2   502     0 -3.934240472E+01  5.309409951E+00 -1.835592585E+03  1.836021828E+03  0.000000000E+00  0.00000E+00  9.000E+00
#rwgt            2          13   3.5858643394580489E-004           4      361899           0
</event>
<event>
      5   9999  3.79277E-02  6.24616E+01 -1.00000E+00  1.33777E-01
      21    -1     0     0   511   501  0.000000000E+00  0.000000000E+00  1.176983492E+03  1.176983492E+03  0.000000000E+00  0.00000E+00  9.000E+00
      21    -1     0     0   501   502  0.000000000E+00  0.000000000E+00 -7.577996851E+01  7.577996851E+01  0.000000000E+00  0.00000E+00  9.000E+00
      25     1     1     2     0     0  1.186729352E+02 -1.093261874E+02  3.957603091E+02  4.452939513E+02  1.250000000E+02  0.00000E+00  9.000E+00
      25     1     1     2     0     0 -6.996344100E+01  7.022581838E+01  7.918876684E+01  1.781078590E+02  1.250000000E+02  0.00000E+00  9.000E+00
      21     1     1     2   511   502 -4.870949416E+01  3.910036906E+01  6.262544472E+02  6.293616498E+02  7.629394531E-06  0.00000E+00  9.000E+00
#rwgt            1           1   4.1127603090122526E-002           4      361933           0
</event>
<event>
      5   9999  3.79277E-02  5.18290E+01 -1.00000E+00  1.38191E-01
      21    -1     0     0   502   501  0.000000000E+00  0.000000000E+00  5.423200580E+02  5.423200580E+02  0.000000000E+00  0.00000E+00  9.000E+00
      21    -1     0     0   512   502  0.000000000E+00  0.000000000E+00 -1.464368363E+02  1.464368363E+02  0.000000000E+00  0.00000E+00  9.000E+00
      25     1     1     2     0     0  1.304115574E+02 -1.488294500E+02  3.535398320E+02  4.239962173E+02  1.250000000E+02  0.00000E+00  9.000E+00
      25     1     1     2     0     0 -7.875002231E+01  1.446659816E+02  4.901941557E+01  2.125034479E+02  1.250000000E+02  0.00000E+00  9.000E+00
      21     1     1     2   512   501 -5.166153509E+01  4.163468370E+00 -6.676025839E+00  5.225722914E+01  6.583548198E-07  0.00000E+00  9.000E+00
#rwgt            1           1   9.9759165626210705E-002           4      362027           0
</event>
<event>
      5   9999  3.79277E-02  7.80547E+00 -1.00000E+00  2.09078E-01
      21    -1     0     0   511   501  0.000000000E+00  0.000000000E+00  8.716349362E+02  8.716349362E+02  0.000000000E+00  0.00000E+00  9.000E+00
      21    -1     0     0   501   502  0.000000000E+00  0.000000000E+00 -2.687008790E+02  2.687008790E+02  0.000000000E+00  0.00000E+00  9.000E+00
      25     1     1     2     0     0 -8.959333289E+01 -7.944812866E+01  6.359603662E+02  6.590975328E+02  1.250000000E+02  0.00000E+00  9.000E+00
      25     1     1     2     0     0  8.298078862E+01  7.530088193E+01 -2.296472539E+02  2.844624673E+02  1.250000000E+02  0.00000E+00  9.000E+00
      21     1     1     2   511   502  6.612544273E+00  4.147246735E+00  1.966209449E+02  1.967758150E+02  0.000000000E+00  0.00000E+00  9.000E+00
#rwgt            1           1   2.8639034967714951E-002           4      362105           0
</event>
<event>
      5   9999  3.79277E-02  1.92213E+02 -1.00000E+00  1.12280E-01
      21    -1     0     0   502   501  0.000000000E+00  0.000000000E+00  7.930500836E+02  7.930500836E+02  0.000000000E+00  0.00000E+00  9.000E+00
      21    -1     0     0   501   512  0.000000000E+00  0.000000000E+00 -1.742017610E+02  1.742017610E+02  0.000000000E+00  0.00000E+00  9.000E+00
      25     1     1     2     0     0 -2.138288506E+02 -3.793594899E+01  1.056160783E+02  2.719221756E+02  1.250000000E+02  0.00000E+00  9.000E+00
      25     1     1     2     0     0  9.643426303E+01 -1.142621691E+02  4.542179317E+02  4.942614084E+02  1.250000000E+02  0.00000E+00  9.000E+00
      21     1     1     2   502   512  1.173945875E+02  1.521981181E+02  5.901431265E+01  2.010682606E+02  3.234066955E-06  0.00000E+00  9.000E+00
#rwgt            1           1   4.5418041487296612E-002           4      362511           0
</event>
<event>
      5   9999  3.79277E-02  3.65676E+01 -1.00000E+00  1.47299E-01
       2    -1     0     0   502     0  0.000000000E+00  0.000000000E+00  3.078826579E+03  3.078826579E+03  0.000000000E+00  0.00000E+00  9.000E+00
      21    -1     0     0   501   502  0.000000000E+00  0.000000000E+00 -6.270487442E+01  6.270487442E+01  0.000000000E+00  0.00000E+00  9.000E+00
      25     1     1     2     0     0 -5.413950281E+01  3.109156687E+02  1.222269342E+03  1.268529457E+03  1.250000000E+02  0.00000E+00  9.000E+00
      25     1     1     2     0     0  3.890156492E+01 -3.441571563E+02  8.247936795E+02  9.032536154E+02  1.250000000E+02  0.00000E+00  9.000E+00
       2     1     1     2   501     0  1.523793788E+01  3.324148756E+01  9.690586834E+02  9.697483814E+02  1.078959322E-05  0.00000E+00  9.000E+00
#rwgt            1           1   3.0047359144976402E-002           4      362658           0
</event>
<event>
      5   9999  3.79277E-02  4.56793E+01 -1.00000E+00  1.41353E-01
      21    -1     0     0   502   511  0.000000000E+00  0.000000000E+00  7.339036524E+02  7.339036524E+02  0.000000000E+00  0.00000E+00  9.000E+00
      21    -1     0     0   501   502  0.000000000E+00  0.000000000E+00 -8.108358361E+01  8.108358361E+01  0.000000000E+00  0.00000E+00  9.000E+00
      25     1     1     2     0     0  1.785876268E+01  1.088138604E+02  5.881002501E+01  1.767569254E+02  1.250000000E+02  0.00000E+00  9.000E+00
      25     1     1     2     0     0  1.733853304E+01 -1.379299767E+02  4.971685729E+02  5.311561852E+02  1.250000000E+02  0.00000E+00  9.000E+00
      21     1     1     2   501   511 -3.519729572E+01  2.911611630E+01  9.684147086E+01  1.070741254E+02  0.000000000E+00  0.00000E+00  9.000E+00
#rwgt            1           1   3.4149957684559022E-002           4      362764           0
</event>
<event>
      5   9999  3.79277E-02  1.56233E+02 -1.00000E+00  1.15697E-01
      21    -1     0     0   502   512  0.000000000E+00  0.000000000E+00  7.461431343E+01  7.461431343E+01  0.000000000E+00  0.00000E+00  9.000E+00
      21    -1     0     0   501   502  0.000000000E+00  0.000000000E+00 -9.694515154E+02  9.694515154E+02  0.000000000E+00  0.00000E+00  9.000E+00
      25     1     1     2     0     0  1.039471560E+02 -8.753023854E+01 -1.890156338E+02  2.642318371E+02  1.250000000E+02  0.00000E+00  9.000E+00
      25     1     1     2     0     0  5.158354318E+01  7.272833816E+01 -4.893414538E+02  5.128648278E+02  1.250000000E+02  0.00000E+00  9.000E+00
      21     1     1     2   501   512 -1.555306992E+02  1.480190038E+01 -2.164801143E+02  2.669691640E+02  6.031565972E-06  0.00000E+00  9.000E+00
#rwgt            2          11   2.1719600820450219E-003           4      362918           0
</event>
<event>
      5   9999  3.79277E-02  6.26693E+01 -1.00000E+00  1.33701E-01
      21    -1     0     0   511   501  0.000000000E+00  0.000000000E+00  6.103422661E+02  6.103422661E+02  0.000000000E+00  0.00000E+00  9.000E+00
      21    -1     0     0   501   502  0.000000000E+00  0.000000000E+00 -1.350945783E+02  1.350945783E+02  0.000000000E+00  0.00000E+00  9.000E+00
      25     1     1     2     0     0 -3.489485328E+01 -1.594796539E+02  9.371916057E+00  2.058257603E+02  1.250000000E+02  0.00000E+00  9.000E+00
      25     1     1     2     0     0 -2.776282567E+01  1.582705807E+02  3.024742131E+02  3.646038958E+02  1.250000000E+02  0.00000E+00  9.000E+00
      21     1     1     2   511   502  6.265767896E+01  1.209073134E+00  1.634015586E+02  1.750071883E+02  1.907348633E-06  0.00000E+00  9.000E+00
#rwgt            1           1   4.7661026704883799E-002           4      362938           0
</event>
<event>
      5   9999  3.79277E-02  5.50713E+01 -1.00000E+00  1.36723E-01
      21    -1     0     0   512   501  0.000000000E+00  0.000000000E+00  2.112065856E+02  2.112065856E+02  0.000000000E+00  0.00000E+00  9.000E+00
      21    -1     0     0   501   502  0.000000000E+00  0.000000000E+00 -2.653719545E+02  2.653719545E+02  0.000000000E+00  0.00000E+00  9.000E+00
      25     1     1     2     0     0 -1.041988737E+02 -5.254589913E+01 -1.049666804E+02  2.006526371E+02  1.250000000E+02  0.00000E+00  9.000E+00
      25     1     1     2     0     0  1.580425605E+02  4.098274710E+01  7.316194644E+00  2.057560769E+02  1.250000000E+02  0.00000E+00  9.000E+00
      21     1     1     2   512   502 -5.384368686E+01  1.156315203E+01  4.348511687E+01  7.016982606E+01  1.168007728E-06  0.00000E+00  9.000E+00
#rwgt            2          11   2.0285931971720807E-003           4      363127           0
</event>
<event>
      5   9999  3.79277E-02  3.96472E+01 -1.00000E+00  1.45079E-01
      21    -1     0     0   502   501  0.000000000E+00  0.000000000E+00  1.443885244E+02  1.443885244E+02  0.000000000E+00  0.00000E+00  9.000E+00
      21    -1     0     0   511   502  0.000000000E+00  0.000000000E+00 -6.977972795E+02  6.977972795E+02  0.000000000E+00  0.00000E+00  9.000E+00
      25     1     1     2     0     0  8.402227738E+01  3.620519331E+01  1.224375373E+01  1.553881225E+02  1.250000000E+02  0.00000E+00  9.000E+00
      25     1     1     2     0     0 -8.353806893E+01  3.439007381E+00 -3.465959662E+01  1.543266774E+02  1.250000000E+02  0.00000E+00  9.000E+00
      21     1     1     2   511   501 -4.842084479E-01 -3.964420069E+01 -5.309929123E+02  5.324710039E+02  1.078959322E-05  0.00000E+00  9.000E+00
#rwgt            2          11   1.1527921469131894E-003           4      363192           0
</event>
<event>
      5   9999  3.79277E-02  4.80969E+01 -1.00000E+00  1.40044E-01
      21    -1     0     0   502   501  0.000000000E+00  0.000000000E+00  4.229763079E+02  4.229763079E+02  0.000000000E+00  0.00000E+00  9.000E+00
      21    -1     0     0   501   512  0.000000000E+00  0.000000000E+00 -1.724141587E+02  1.724141587E+02  0.000000000E+00  0.00000E+00  9.000E+00
      25     1     1     2     0     0 -7.127547020E+01 -1.933743062E+02  1.406638133E+02  2.790790629E+02  1.250000000E+02  0.00000E+00  9.000E+00
      25     1     1     2     0     0  4.087298905E+01  1.561050164E+02  1.503102745E+02  2.534907414E+02  1.250000000E+02  0.00000E+00  9.000E+00
      21     1     1     2   502   512  3.040248116E+01  3.726928988E+01 -4.041193862E+01  6.282066230E+01  9.536743164E-07  0.00000E+00  9.000E+00
#rwgt            1           1   3.8299986326371264E-002           4      363302           0
</event>
<event>
      5   9999  3.79277E-02  2.81905E+01 -1.00000E+00  1.54940E-01
      21    -1     0     0   502   501  0.000000000E+00  0.000000000E+00  7.005358687E+02  7.005358687E+02  0.000000000E+00  0.00000E+00  9.000E+00
      21    -1     0     0   511   502  0.000000000E+00  0.000000000E+00 -1.966210149E+02  1.966210149E+02  0.000000000E+00  0.00000E+00  9.000E+00
      25     1     1     2     0     0 -2.377436484E+01 -1.064981390E+02 -5.162807750E+01  1.737743722E+02  1.250000000E+02  0.00000E+00  9.000E+00
      25     1     1     2     0     0  1.291051807E+01  8.048503041E+01  6.280774812E+02  6.455624246E+02  1.250000000E+02  0.00000E+00  9.000E+00
      21     1     1     2   511   501  1.086384677E+01  2.601310864E+01 -7.253454991E+01  7.782008686E+01  1.907348633E-06  0.00000E+00  9.000E+00
#rwgt            1           1   4.1703604043404147E-002           4      363425           0
</event>
<event>
      5   9999 -3.79277E-02  2.56293E+01 -1.00000E+00  1.57946E-01
      21    -1     0     0   502   512  0.000000000E+00  0.000000000E+00  7.068320644E+02  7.068320644E+02  0.000000000E+00  0.00000E+00  9.000E+00
      21    -1     0     0   501   502  0.000000000E+00  0.000000000E+00 -8.124284562E+01  8.124284562E+01  0.000000000E+00  0.00000E+00  9.000E+00
      25     1     1     2     0     0  1.706426954E+02 -9.783951443E+01  2.894499356E+02  3.716150768E+02  1.250000000E+02  0.00000E+00  9.000E+00
      25     1     1     2     0     0 -1.635685630E+02  7.320583523E+01  2.836236493E+02  3.580239427E+02  1.250000000E+02  0.00000E+00  9.000E+00
      21     1     1     2   501   512 -7.074132444E+00  2.463367920E+01  5.251563391E+01  5.843589056E+01  9.536743164E-07  0.00000E+00  9.000E+00
#rwgt            1           1  -9.2844720010060583E-002           4      363661           0
</event>
<event>
      5   9999  3.79277E-02  2.42985E+01 -1.00000E+00  1.59682E-01
      21    -1     0     0   502   501  0.000000000E+00  0.000000000E+00  3.821271724E+02  3.821271724E+02  0.000000000E+00  0.00000E+00  9.000E+00
      21    -1     0     0   511   502  0.000000000E+00  0.000000000E+00 -2.308310967E+02  2.308310967E+02  0.000000000E+00  0.00000E+00  9.000E+00
      25     1     1     2     0     0  1.679338246E+02  9.982471436E+00  2.036361393E+01  2.105732555E+02  1.250000000E+02  0.00000E+00  9.000E+00
      25     1     1     2     0     0 -1.859802993E+02  6.288382881E+00  2.175764619E+02  3.123983551E+02  1.250000000E+02  0.00000E+00  9.000E+00
      21     1     1     2   511   501  1.804647469E+01 -1.627085432E+01 -8.664400014E+01  8.998665850E+01  9.536743164E-07  0.00000E+00  9.000E+00
#rwgt            1           1   4.1258997605432210E-002           4      363897           0
</event>
<event>
      5   9999  3.79277E-02  1.96560E+01 -1.00000E+00  1.66993E-01
      21    -1     0     0   502   501  0.000000000E+00  0.000000000E+00  1.691318900E+02  1.691318900E+02  0.000000000E+00  0.00000E+00  9.000E+00
      21    -1     0     0   512   502  0.000000000E+00  0.000000000E+00 -3.927916125E+02  3.927916125E+02  0.000000000E+00  0.00000E+00  9.000E+00
      25     1     1     2     0     0 -2.723704975E+01 -1.048809943E+02 -2.901317572E+02  3.339810120E+02  1.250000000E+02  0.00000E+00  9.000E+00
      25     1     1     2     0     0  2.830100706E+01  1.245082117E+02  8.767037634E+01  1.990335064E+02  1.250000000E+02  0.00000E+00  9.000E+00
      21     1     1     2   512   501 -1.063957316E+00 -1.962721740E+01 -2.119834167E+01  2.890898403E+01  2.384185791E-07  0.00000E+00  9.000E+00
#rwgt            1           1   4.1603138083921729E-002           4      364102           0
</event>
<event>
      5   9999  3.79277E-02  1.35563E+01 -1.00000E+00  1.81627E-01
      21    -1     0     0   502   501  0.000000000E+00  0.000000000E+00  7.014067991E+02  7.014067991E+02  0.000000000E+00  0.00000E+00  9.000E+00
       3    -1     0     0   501     0  0.000000000E+00  0.000000000E+00 -4.080331030E+02  4.080331030E+02  0.000000000E+00  0.00000E+00  9.000E+00
      25     1     1     2     0     0 -3.450154767E+01  1.245131214E+02  3.634791116E+02  4.055070144E+02  1.250000000E+02  0.00000E+00  9.000E+00
      25     1     1     2     0     0  4.648689587E+01 -1.308475970E+02  2.892380456E+02  3.443338092E+02  1.250000000E+02  0.00000E+00  9.000E+00
       3     1     1     2   502     0 -1.198534820E+01  6.334475587E+00 -3.593434611E+02  3.595990784E+02  5.394796609E-06  0.00000E+00  9.000E+00
#rwgt            1           1   3.5249195708547086E-002           4      364348           0
</event>
<event>
      5   9999  3.79277E-02  5.00294E+01 -1.00000E+00  1.39061E-01
      21    -1     0     0   511   501  0.000000000E+00  0.000000000E+00  3.578555339E+02  3.578555339E+02  0.000000000E+00  0.00000E+00  9.000E+00
      21    -1     0     0   501   502  0.000000000E+00  0.000000000E+00 -1.316302378E+03  1.316302378E+03  0.000000000E+00  0.00000E+00  9.000E+00
      25     1     1     2     0     0  1.877007948E+01 -1.018437200E+02 -1.177912741E+03  1.189044946E+03  1.250000000E+02  0.00000E+00  9.000E+00
      25     1     1     2     0     0 -5.002472759E+01  6.277848535E+01 -8.862754118E+01  1.729839665E+02  1.250000000E+02  0.00000E+00  9.000E+00
      21     1     1     2   511   502  3.125464811E+01  3.906523465E+01  3.080934380E+02  3.121289992E+02  5.394796609E-06  0.00000E+00  9.000E+00
#rwgt            1           1   2.4561918696355250E-002           4      364561           0
</event>
<event>
      5   9999  3.79277E-02  9.35183E+00 -1.00000E+00  1.99183E-01
      21    -1     0     0   502   501  0.000000000E+00  0.000000000E+00  2.017986922E+02  2.017986922E+02  0.000000000E+00  0.00000E+00  9.000E+00
      21    -1     0     0   501   512  0.000000000E+00  0.000000000E+00 -3.453571187E+02  3.453571187E+02  0.000000000E+00  0.00000E+00  9.000E+00
      25     1     1     2     0     0  4.474212392E+01 -1.198405870E+02 -1.174830228E+02  2.139880478E+02  1.250000000E+02  0.00000E+00  9.000E+00
      25     1     1     2     0     0 -5.385078417E+01  1.219593405E+02  9.893020433E+01  2.078128317E+02  1.250000000E+02  0.00000E+00  9.000E+00
      21     1     1     2   502   512  9.108660243E+00 -2.118753481E+00 -1.250056080E+02  1.253549314E+02  1.907348633E-06  0.00000E+00  9.000E+00
#rwgt            1           1   5.0292730959121235E-002           4      364716           0
</event>
<event>
      5   9999  3.79277E-02  1.44800E+02 -1.00000E+00  1.17004E-01
      21    -1     0     0   511   501  0.000000000E+00  0.000000000E+00  2.789017781E+02  2.789017781E+02  0.000000000E+00  0.00000E+00  9.000E+00
      21    -1     0     0   501   502  0.000000000E+00  0.000000000E+00 -4.870720607E+02  4.870720607E+02  0.000000000E+00  0.00000E+00  9.000E+00
      25     1     1     2     0     0  2.981879717E+02  3.407469128E+01  2.670581792E+01  3.262136597E+02  1.250000000E+02  0.00000E+00  9.000E+00
      25     1     1     2     0     0 -1.595422121E+02  7.689741535E+00 -2.115885899E+02  2.930999505E+02  1.250000000E+02  0.00000E+00  9.000E+00
      21     1     1     2   511   502 -1.386457596E+02 -4.176443281E+01 -2.328751059E+01  1.466602286E+02  1.719260824E-06  0.00000E+00  9.000E+00
#rwgt            2          11   3.2442173832547419E-003           4      364995           0
</event>
<event>
      5   9999  3.79277E-02  2.05267E+01 -1.00000E+00  1.65443E-01
      21    -1     0     0   512   501  0.000000000E+00  0.000000000E+00  7.507449169E+01  7.507449169E+01  0.000000000E+00  0.00000E+00  9.000E+00
      21    -1     0     0   501   502  0.000000000E+00  0.000000000E+00 -1.512479179E+03  1.512479179E+03  0.000000000E+00  0.00000E+00  9.000E+00
      25     1     1     2     0     0 -2.160231583E+02  2.721736086E+01 -5.913658070E+02  6.424525720E+02  1.250000000E+02  0.00000E+00  9.000E+00
      25     1     1     2     0     0  2.129765884E+02 -4.751675232E+01 -8.745391126E+02  9.099783120E+02  1.250000000E+02  0.00000E+00  9.000E+00
      21     1     1     2   512   502  3.046569881E+00  2.029939146E+01  2.850023240E+01  3.512278646E+01  2.311553887E-06  0.00000E+00  9.000E+00
#rwgt            1           1   2.2600498087974416E-002           4      365060           0
</event>
<event>
      5   9999  3.79277E-02  7.21016E+01 -1.00000E+00  1.30573E-01
      21    -1     0     0   502   501  0.000000000E+00  0.000000000E+00  1.935792607E+03  1.935792607E+03  0.000000000E+00  0.00000E+00  9.000E+00
      21    -1     0     0   511   502  0.000000000E+00  0.000000000E+00 -3.965814464E+01  3.965814464E+01  0.000000000E+00  0.00000E+00  9.000E+00
      25     1     1     2     0     0 -7.117697295E+01  1.440118013E+02  1.371389996E+03  1.386413027E+03  1.250000000E+02  0.00000E+00  9.000E+00
      25     1     1     2     0     0 -9.062300714E-01 -1.456389776E+02  3.354327840E+02  3.864604580E+02  1.250000000E+02  0.00000E+00  9.000E+00
      21     1     1     2   511   501  7.208320302E+01  1.627176244E+00  1.893116829E+02  2.025772670E+02  0.000000000E+00  0.00000E+00  9.000E+00
#rwgt            1           1   8.4050699284838160E-002           4      365261           0
</event>
<event>
      5   9999  3.79277E-02  1.11253E+02 -1.00000E+00  1.21780E-01
      21    -1     0     0   502   501  0.000000000E+00  0.000000000E+00  9.841932940E+01  9.841932940E+01  0.000000000E+00  0.00000E+00  9.000E+00
       2    -1     0     0   501     0  0.000000000E+00  0.000000000E+00 -1.168653453E+03  1.168653453E+03  0.000000000E+00  0.00000E+00  9.000E+00
      25     1     1     2     0     0 -1.423622841E+02  1.315818650E+02 -4.783106390E+02  5.310243634E+02  1.250000000E+02  0.00000E+00  9.000E+00
      25     1     1     2     0     0  5.283568507E+01 -6.553548574E+01 -1.838646588E+01  1.518208538E+02  1.250000000E+02  0.00000E+00  9.000E+00
       2     1     1     2   502     0  8.952659901E+01 -6.604637930E+01 -5.735370183E+02  5.842275648E+02  7.629394531E-06  0.00000E+00  9.000E+00
#rwgt            1           1   4.5694572103926759E-002           4      365342           0
</event>
<event>
      5   9999  3.79277E-02  3.36558E+01 -1.00000E+00  1.49650E-01
      21    -1     0     0   502   511  0.000000000E+00  0.000000000E+00  8.235358040E+01  8.235358040E+01  0.000000000E+00  0.00000E+00  9.000E+00
      21    -1     0     0   501   502  0.000000000E+00  0.000000000E+00 -4.617249563E+02  4.617249563E+02  0.000000000E+00  0.00000E+00  9.000E+00
      25     1     1     2     0     0 -1.082427131E+02  2.308845385E+00 -2.480173743E+02  2.980929950E+02  1.250000000E+02  0.00000E+00  9.000E+00
      25     1     1     2     0     0  1.114715166E+02  3.119169783E+01 -1.260246226E+02  2.119104210E+02  1.250000000E+02  0.00000E+00  9.000E+00
      21     1     1     2   501   511 -3.228803476E+00 -3.350054322E+01 -5.329378888E+00  3.407512065E+01  3.722308873E-07  0.00000E+00  9.000E+00
#rwgt            1           1   3.4793667621773036E-002           4      365472           0
</event>
<event>
      5   9999  3.79277E-02  2.79209E+01 -1.00000E+00  1.55238E-01
      21    -1     0     0   502   501  0.000000000E+00  0.000000000E+00  3.536505534E+02  3.536505534E+02  0.000000000E+00  0.00000E+00  9.000E+00
      21    -1     0     0   501   512  0.000000000E+00  0.000000000E+00 -9.036908057E+01  9.036908057E+01  0.000000000E+00  0.00000E+00  9.000E+00
      25     1     1     2     0     0 -1.816683380E+01 -8.947217542E+01  1.624573287E+02  2.243940455E+02  1.250000000E+02  0.00000E+00  9.000E+00
      25     1     1     2     0     0  4.354373664E+01  1.011165722E+02  9.229460329E+01  1.904308588E+02  1.250000000E+02  0.00000E+00  9.000E+00
      21     1     1     2   502   512 -2.537690284E+01 -1.164439680E+01  8.529540906E+00  2.919472971E+01  4.616955931E-07  0.00000E+00  9.000E+00
#rwgt            1           1   3.5600225291291539E-002           4      365578           0
</event>
<event>
      5   9999  3.79277E-02  3.65171E+01 -1.00000E+00  1.47337E-01
      21    -1     0     0   502   501  0.000000000E+00  0.000000000E+00  5.451265775E+01  5.451265775E+01  0.000000000E+00  0.00000E+00  9.000E+00
      21    -1     0     0   511   502  0.000000000E+00  0.000000000E+00 -1.342133060E+03  1.342133060E+03  0.000000000E+00  0.00000E+00  9.000E+00
      25     1     1     2     0     0  7.569674919E+01  2.154201513E+02 -6.227868407E+02  6.749994729E+02  1.250000000E+02  0.00000E+00  9.000E+00
      25     1     1     2     0     0 -4.142555691E+01 -2.028112455E+02 -5.419219095E+02  5.934246659E+02  1.250000000E+02  0.00000E+00  9.000E+00
      21     1     1     2   511   501 -3.427119227E+01 -1.260890580E+01 -1.229116523E+02  1.282215793E+02  1.907348633E-06  0.00000E+00  9.000E+00
#rwgt            1           1   3.5040644171893724E-002           4      365717           0
</event>
<event>
      5   9999  3.79277E-02  6.69082E+01 -1.00000E+00  1.32222E-01
      21    -1     0     0   502   512  0.000000000E+00  0.000000000E+00  6.083855367E+02  6.083855367E+02  0.000000000E+00  0.00000E+00  9.000E+00
      21    -1     0     0   501   502  0.000000000E+00  0.000000000E+00 -4.414577803E+02  4.414577803E+02  0.000000000E+00  0.00000E+00  9.000E+00
      25     1     1     2     0     0 -2.561068188E+02 -1.959195526E+02 -2.589053504E+02  4.320094376E+02  1.250000000E+02  0.00000E+00  9.000E+00
      25     1     1     2     0     0  3.106340196E+02  1.571445866E+02  4.033008330E+02  5.472334759E+02  1.250000000E+02  0.00000E+00  9.000E+00
      21     1     1     2   501   512 -5.452720078E+01  3.877496599E+01  2.253227371E+01  7.060040348E+01  1.011524364E-06  0.00000E+00  9.000E+00
#rwgt            1           1  0.13333005547610016                4      365938           0
</event>
<event>
      5   9999  3.79277E-02  5.11689E+01 -1.00000E+00  1.38505E-01
      21    -1     0     0   502   501  0.000000000E+00  0.000000000E+00  2.064533367E+02  2.064533367E+02  0.000000000E+00  0.00000E+00  9.000E+00
      21    -1     0     0   511   502  0.000000000E+00  0.000000000E+00 -2.436820712E+02  2.436820712E+02  0.000000000E+00  0.00000E+00  9.000E+00
      25     1     1     2     0     0  7.451660963E+01  9.559749398E+01 -9.038227931E+01  1.961773748E+02  1.250000000E+02  0.00000E+00  9.000E+00
      25     1     1     2     0     0 -2.379438397E+01 -8.885129490E+01  9.996725497E+01  1.846054641E+02  1.250000000E+02  0.00000E+00  9.000E+00
      21     1     1     2   511   501 -5.072222566E+01 -6.746199078E+00 -4.681371016E+01  6.935256907E+01  6.743495762E-07  0.00000E+00  9.000E+00
#rwgt            1           1   3.0477778150243398E-002           4      366175           0
</event>
<event>
      5   9999  3.79277E-02  1.52718E+01 -1.00000E+00  1.76652E-01
      21    -1     0     0   502   501  0.000000000E+00  0.000000000E+00  2.112937539E+02  2.112937539E+02  0.000000000E+00  0.00000E+00  9.000E+00
      21    -1     0     0   512   502  0.000000000E+00  0.000000000E+00 -1.684714345E+02  1.684714345E+02  0.000000000E+00  0.00000E+00  9.000E+00
      25     1     1     2     0     0  6.630500885E+01 -1.092514475E+01 -7.717743060E+01  1.615458721E+02  1.250000000E+02  0.00000E+00  9.000E+00
      25     1     1     2     0     0 -8.107104790E+01  7.027420073E+00  1.317030330E+02  1.989788641E+02  1.250000000E+02  0.00000E+00  9.000E+00
      21     1     1     2   512   501  1.476603905E+01  3.897724678E+00 -1.170328304E+01  1.924045220E+01  2.920019320E-07  0.00000E+00  9.000E+00
#rwgt            1           1   3.4935877108046777E-002           4      366253           0
</event>
<event>
      5   9999  3.79277E-02  1.11301E+01 -1.00000E+00  1.90531E-01
      21    -1     0     0   502   511  0.000000000E+00  0.000000000E+00  2.232431030E+02  2.232431030E+02  0.000000000E+00  0.00000E+00  9.000E+00
      21    -1     0     0   501   502  0.000000000E+00  0.000000000E+00 -1.834218177E+02  1.834218177E+02  0.000000000E+00  0.00000E+00  9.000E+00
      25     1     1     2     0     0  3.628562478E+01  7.373845574E+01 -1.079784766E+02  1.844948721E+02  1.250000000E+02  0.00000E+00  9.000E+00
      25     1     1     2     0     0 -4.695298272E+01 -7.691455939E+01  1.423255993E+02  2.097665566E+02  1.250000000E+02  0.00000E+00  9.000E+00
      21     1     1     2   501   511  1.066735795E+01  3.176103653E+00  5.474162531E+00  1.240349206E+01  1.332800375E-07  0.00000E+00  9.000E+00
#rwgt            1           1   3.8729360103190280E-002           4      366551           0
</event>
<event>
      5   9999  3.79277E-02  1.60717E+01 -1.00000E+00  1.74606E-01
      21    -1     0     0   502   512  0.000000000E+00  0.000000000E+00  3.804097357E+02  3.804097357E+02  0.000000000E+00  0.00000E+00  9.000E+00
      21    -1     0     0   501   502  0.000000000E+00  0.000000000E+00 -7.853228114E+02  7.853228114E+02  0.000000000E+00  0.00000E+00  9.000E+00
      25     1     1     2     0     0 -1.008276507E+02 -1.685304351E+02 -5.408928261E+02  5.888622692E+02  1.250000000E+02  0.00000E+00  9.000E+00
      25     1     1     2     0     0  9.731293819E+01  1.528477747E+02 -1.652237344E+02  2.752383196E+02  1.250000000E+02  0.00000E+00  9.000E+00
      21     1     1     2   501   512  3.514712498E+00  1.568266043E+01  3.012034848E+02  3.016319584E+02  0.000000000E+00  0.00000E+00  9.000E+00
#rwgt            2          11   1.3479124808199272E-003           4      366806           0
</event>
<event>
      5   9999  3.79277E-02  2.62248E+01 -1.00000E+00  1.57211E-01
      21    -1     0     0   502   511  0.000000000E+00  0.000000000E+00  2.897232074E+02  2.897232074E+02  0.000000000E+00  0.00000E+00  9.000E+00
      21    -1     0     0   501   502  0.000000000E+00  0.000000000E+00 -1.729953186E+02  1.729953186E+02  0.000000000E+00  0.00000E+00  9.000E+00
      25     1     1     2     0     0  1.009018564E+02 -1.451436548E+02  9.651906677E+01  2.370417588E+02  1.250000000E+02  0.00000E+00  9.000E+00
      25     1     1     2     0     0 -7.941453442E+01  1.301091255E+02  9.526040631E+00  1.973595659E+02  1.250000000E+02  0.00000E+00  9.000E+00
      21     1     1     2   501   511 -2.148732195E+01  1.503452931E+01  1.068278140E+01  2.831720139E+01  4.129530925E-07  0.00000E+00  9.000E+00
#rwgt            1           1   4.1654469763231214E-002           4      366946           0
</event>
<event>
      5   9999  3.79277E-02  1.64273E+01 -1.00000E+00  1.73744E-01
      21    -1     0     0   502   501  0.000000000E+00  0.000000000E+00  2.670170787E+02  2.670170787E+02  0.000000000E+00  0.00000E+00  9.000E+00
      21    -1     0     0   501   512  0.000000000E+00  0.000000000E+00 -1.694199750E+02  1.694199750E+02  0.000000000E+00  0.00000E+00  9.000E+00
      25     1     1     2     0     0 -1.538340938E+02 -4.405450393E+01  2.990981333E+01  2.052445484E+02  1.250000000E+02  0.00000E+00  9.000E+00
      25     1     1     2     0     0  1.487774144E+02  5.968415095E+01  6.910759865E+01  2.147039289E+02  1.250000000E+02  0.00000E+00  9.000E+00
      21     1     1     2   502   512  5.056679427E+00 -1.562964702E+01 -1.420308345E+00  1.648857631E+01  1.074538015E-07  0.00000E+00  9.000E+00
#rwgt            1           1   1.8059916993430944E-002           4      367111           0
</event>
<event>
      5   9999  3.79277E-02  5.01707E+01 -1.00000E+00  1.38991E-01
      21    -1     0     0   502   501  0.000000000E+00  0.000000000E+00  6.758934922E+02  6.758934922E+02  0.000000000E+00  0.00000E+00  9.000E+00
      21    -1     0     0   511   502  0.000000000E+00  0.000000000E+00 -9.556458607E+01  9.556458607E+01  0.000000000E+00  0.00000E+00  9.000E+00
      25     1     1     2     0     0 -2.014192620E+02  1.663406559E+01  3.126778711E+02  3.927325582E+02  1.250000000E+02  0.00000E+00  9.000E+00
      25     1     1     2     0     0  1.535442352E+02 -1.631441170E+00  2.617602690E+02  3.282101951E+02  1.250000000E+02  0.00000E+00  9.000E+00
      21     1     1     2   511   501  4.787502672E+01 -1.500262442E+01  5.890766024E+00  5.051532488E+01  6.136673773E-07  0.00000E+00  9.000E+00
#rwgt            1           1   4.3408795017812196E-002           4      367409           0
</event>
<event>
      5   9999  3.79277E-02  1.84575E+02 -1.00000E+00  1.12932E-01
      21    -1     0     0   502   501  0.000000000E+00  0.000000000E+00  6.226085925E+02  6.226085925E+02  0.000000000E+00  0.00000E+00  9.000E+00
      21    -1     0     0   501   512  0.000000000E+00  0.000000000E+00 -1.487432054E+02  1.487432054E+02  0.000000000E+00  0.00000E+00  9.000E+00
      25     1     1     2     0     0 -1.246198047E+02 -1.376061575E+02  3.678475438E+02  4.305837500E+02  1.250000000E+02  0.00000E+00  9.000E+00
      25     1     1     2     0     0 -5.795886403E+00  6.993051526E+00 -4.907108059E+00  1.254255747E+02  1.250000000E+02  0.00000E+00  9.000E+00
      21     1     1     2   502   512  1.304156911E+02  1.306131060E+02  1.109249513E+02  2.153424732E+02  1.907348633E-06  0.00000E+00  9.000E+00
#rwgt            1           1   3.6657124518844168E-002           4      367473           0
</event>
<event>
      5   9999  3.79277E-02  1.21191E+02 -1.00000E+00  1.20186E-01
      21    -1     0     0   502   501  0.000000000E+00  0.000000000E+00  1.082809706E+03  1.082809706E+03  0.000000000E+00  0.00000E+00  9.000E+00
      21    -1     0     0   511   502  0.000000000E+00  0.000000000E+00 -1.219880536E+03  1.219880536E+03  0.000000000E+00  0.00000E+00  9.000E+00
      25     1     1     2     0     0 -7.544669590E+01  5.919424970E+00  7.775648051E+02  7.911758779E+02  1.250000000E+02  0.00000E+00  9.000E+00
      25     1     1     2     0     0  1.736086175E+02  6.515474315E+01  2.529650837E+02  3.376409723E+02  1.250000000E+02  0.00000E+00  9.000E+00
      21     1     1     2   511   501 -9.816192163E+01 -7.107416812E+01 -1.167600720E+03  1.173873392E+03  0.000000000E+00  0.00000E+00  9.000E+00
#rwgt            1           1   5.5543265065267175E-002           4      367582           0
</event>
<event>
      5   9999  3.79277E-02  1.37314E+01 -1.00000E+00  1.81077E-01
       2    -1     0     0   502     0  0.000000000E+00  0.000000000E+00  1.104410975E+03  1.104410975E+03  0.000000000E+00  0.00000E+00  9.000E+00
      21    -1     0     0   501   502  0.000000000E+00  0.000000000E+00 -7.326375425E+01  7.326375425E+01  0.000000000E+00  0.00000E+00  9.000E+00
      25     1     1     2     0     0 -9.099483373E+01  1.882798903E+01  9.612441467E+01  1.830285662E+02  1.250000000E+02  0.00000E+00  9.000E+00
      25     1     1     2     0     0  1.032632143E+02 -2.499540726E+01  1.964285637E+02  2.559242905E+02  1.250000000E+02  0.00000E+00  9.000E+00
       2     1     1     2   501     0 -1.226838059E+01  6.167418231E+00  7.385942426E+02  7.387218728E+02  0.000000000E+00  0.00000E+00  9.000E+00
#rwgt            1           1   4.4263400988968450E-002           4      367718           0
</event>
<event>
      5   9999  3.79277E-02  4.35149E+01 -1.00000E+00  1.42608E-01
      21    -1     0     0   502   501  0.000000000E+00  0.000000000E+00  4.027251680E+02  4.027251680E+02  0.000000000E+00  0.00000E+00  9.000E+00
      21    -1     0     0   501   511  0.000000000E+00  0.000000000E+00 -4.033145810E+02  4.033145810E+02  0.000000000E+00  0.00000E+00  9.000E+00
      25     1     1     2     0     0  4.385526483E+01 -6.551250881E+00 -3.485199950E+02  3.729039958E+02  1.250000000E+02  0.00000E+00  9.000E+00
      25     1     1     2     0     0 -7.261326896E+01 -2.610639029E+01  3.592918612E+02  3.881621722E+02  1.250000000E+02  0.00000E+00  9.000E+00
      21     1     1     2   502   511  2.875800413E+01  3.265764117E+01 -1.136127915E+01  4.497358105E+01  6.951036328E-07  0.00000E+00  9.000E+00
#rwgt            1           1   5.4040342784395547E-002           4      367910           0
</event>
<event>
      5   9999  3.79277E-02  1.99176E+01 -1.00000E+00  1.66517E-01
      21    -1     0     0   502   512  0.000000000E+00  0.000000000E+00  1.829043210E+03  1.829043210E+03  0.000000000E+00  0.00000E+00  9.000E+00
      21    -1     0     0   501   502  0.000000000E+00  0.000000000E+00 -1.033662973E+02  1.033662973E+02  0.000000000E+00  0.00000E+00  9.000E+00
      25     1     1     2     0     0 -2.697960337E+02 -1.301895692E+02  9.513871151E+02  1.005237120E+03  1.250000000E+02  0.00000E+00  9.000E+00
      25     1     1     2     0     0  2.863899940E+02  1.412055789E+02  3.094017608E+02  4.618578718E+02  1.250000000E+02  0.00000E+00  9.000E+00
      21     1     1     2   501   512 -1.659396030E+01 -1.101600974E+01  4.648880365E+02  4.653145157E+02  7.629394531E-06  0.00000E+00  9.000E+00
#rwgt            1           1   9.0060207112078891E-002           4      368018           0
</event>
<event>
      5   9999  3.79277E-02  4.56396E+01 -1.00000E+00  1.41375E-01
      21    -1     0     0   502   511  0.000000000E+00  0.000000000E+00  3.589806570E+02  3.589806570E+02  0.000000000E+00  0.00000E+00  9.000E+00
      21    -1     0     0   501   502  0.000000000E+00  0.000000000E+00 -2.122450094E+02  2.122450094E+02  0.000000000E+00  0.00000E+00  9.000E+00
      25     1     1     2     0     0 -3.431107616E+01  1.890515950E+02  2.055737332E+02  3.079014701E+02  1.250000000E+02  0.00000E+00  9.000E+00
      25     1     1     2     0     0  3.162858933E+01 -1.434909440E+02 -8.489991456E+01  2.107676782E+02  1.250000000E+02  0.00000E+00  9.000E+00
      21     1     1     2   501   511  2.682486821E+00 -4.556065105E+01  2.606182902E+01  5.255651807E+01  4.768371582E-07  0.00000E+00  9.000E+00
#rwgt            1           1   3.9108649791442435E-002           4      368263           0
</event>
<event>
      5   9999  3.79277E-02  4.73093E+01 -1.00000E+00  1.40460E-01
      21    -1     0     0   502   512  0.000000000E+00  0.000000000E+00  5.356997414E+02  5.356997414E+02  0.000000000E+00  0.00000E+00  9.000E+00
      21    -1     0     0   501   502  0.000000000E+00  0.000000000E+00 -1.106318419E+02  1.106318419E+02  0.000000000E+00  0.00000E+00  9.000E+00
      25     1     1     2     0     0 -2.153980469E+01  1.402783709E+02  3.601961130E+02  4.068270202E+02  1.250000000E+02  0.00000E+00  9.000E+00
      25     1     1     2     0     0  5.476928989E+01 -1.066039427E+02  2.004307580E+01  1.743295747E+02  1.250000000E+02  0.00000E+00  9.000E+00
      21     1     1     2   501   512 -3.322948520E+01 -3.367442821E+01  4.482871069E+01  6.517498833E+01  8.259061849E-07  0.00000E+00  9.000E+00
#rwgt            1           1   3.9015695814502871E-002           4      368408           0
</event>
<event>
      5   9999  3.79277E-02  1.24613E+02 -1.00000E+00  1.19677E-01
      21    -1     0     0   502   501  0.000000000E+00  0.000000000E+00  1.639647044E+02  1.639647044E+02  0.000000000E+00  0.00000E+00  9.000E+00
      21    -1     0     0   511   502  0.000000000E+00  0.000000000E+00 -6.274551280E+02  6.274551280E+02  0.000000000E+00  0.00000E+00  9.000E+00
      25     1     1     2     0     0 -1.507442953E+02  5.565776379E+01 -5.197547987E+01  2.101144444E+02  1.250000000E+02  0.00000E+00  9.000E+00
      25     1     1     2     0     0  4.492306240E+01 -1.214629809E+02 -3.323973353E+01  1.830333771E+02  1.250000000E+02  0.00000E+00  9.000E+00
      21     1     1     2   511   501  1.058212329E+02  6.580521711E+01 -3.782752102E+02  3.982720108E+02  5.394796609E-06  0.00000E+00  9.000E+00
#rwgt            1           1   1.4501001664667595E-002           4      368519           0
</event>
<event>
      5   9999  3.79277E-02  1.01915E+02 -1.00000E+00  1.23459E-01
      21    -1     0     0   502   501  0.000000000E+00  0.000000000E+00  8.002500250E+02  8.002500250E+02  0.000000000E+00  0.00000E+00  9.000E+00
      21    -1     0     0   501   512  0.000000000E+00  0.000000000E+00 -8.073903287E+01  8.073903287E+01  0.000000000E+00  0.00000E+00  9.000E+00
      25     1     1     2     0     0  1.933699042E+02 -4.258678689E+01  3.320133746E+02  4.062799960E+02  1.250000000E+02  0.00000E+00  9.000E+00
      25     1     1     2     0     0 -9.146013329E+01  4.159693349E+01  3.009031855E+02  3.409735883E+02  1.250000000E+02  0.00000E+00  9.000E+00
      21     1     1     2   502   512 -1.019097709E+02  9.898533982E-01  8.659443204E+01  1.337354735E+02  1.907348633E-06  0.00000E+00  9.000E+00
#rwgt            1           1   2.8462885539055741E-002           4      368575           0
</event>
<event>
      5   9999  3.79277E-02  1.17019E+02 -1.00000E+00  1.20834E-01
      21    -1     0     0   502   501  0.000000000E+00  0.000000000E+00  1.929045628E+02  1.929045628E+02  0.000000000E+00  0.00000E+00  9.000E+00
       2    -1     0     0   501     0  0.000000000E+00  0.000000000E+00 -5.107079286E+02  5.107079286E+02  0.000000000E+00  0.00000E+00  9.000E+00
      25     1     1     2     0     0 -4.765301846E+01  1.315703080E+02 -1.253142052E+02  2.256329013E+02  1.250000000E+02  0.00000E+00  9.000E+00
      25     1     1     2     0     0  1.046863294E+02 -2.939104628E+01  7.810827520E+01  1.831637623E+02  1.250000000E+02  0.00000E+00  9.000E+00
       2     1     1     2   502     0 -5.703331097E+01 -1.021792617E+02 -2.705974358E+02  2.948158278E+02  3.814697266E-06  0.00000E+00  9.000E+00
#rwgt            1           1   4.9426190569445493E-002           4      368694           0
</event>
<event>
      5   9999  3.88442E-02  3.05371E+01 -1.00000E+00  1.52507E-01
      21    -1     0     0   511   501  0.000000000E+00  0.000000000E+00  3.687141613E+02  3.687141613E+02  0.000000000E+00  0.00000E+00  9.000E+00
      21    -1     0     0   501   502  0.000000000E+00  0.000000000E+00 -1.915172364E+02  1.915172364E+02  0.000000000E+00  0.00000E+00  9.000E+00
      25     1     1     2     0     0  1.727700487E+02 -8.191382704E+01  3.259996339E+01  2.307533800E+02  1.250000000E+02  0.00000E+00  9.000E+00
      25     1     1     2     0     0 -1.899770561E+02  1.071414315E+02  9.017004084E+01  2.670696622E+02  1.250000000E+02  0.00000E+00  9.000E+00
      21     1     1     2   511   502  1.720700741E+01 -2.522760450E+01  5.442692069E+01  6.240835544E+01  6.743495762E-07  0.00000E+00  9.000E+00
#rwgt            1           1  0.27374363889569464                4      368754           0
</event>
<event>
      5   9999  3.79277E-02  1.11963E+01 -1.00000E+00  1.90250E-01
       1    -1     0     0   502     0  0.000000000E+00  0.000000000E+00  6.127272559E+02  6.127272559E+02  0.000000000E+00  0.00000E+00  9.000E+00
      21    -1     0     0   501   502  0.000000000E+00  0.000000000E+00 -1.204645818E+02  1.204645818E+02  0.000000000E+00  0.00000E+00  9.000E+00
      25     1     1     2     0     0 -2.995537554E+01  1.609730483E+02  6.372116072E+01  2.156270695E+02  1.250000000E+02  0.00000E+00  9.000E+00
      25     1     1     2     0     0  3.194240287E+01 -1.499544669E+02  1.760099455E+02  2.647851207E+02  1.250000000E+02  0.00000E+00  9.000E+00
       1     1     1     2   501     0 -1.987027328E+00 -1.101858134E+01  2.525315678E+02  2.527796475E+02  0.000000000E+00  0.00000E+00  9.000E+00
#rwgt            1           1   3.5540465839394762E-002           4      369023           0
</event>
<event>
      5   9999  3.79277E-02  3.37775E+02 -1.00000E+00  1.03945E-01
       2    -1     0     0   502     0  0.000000000E+00  0.000000000E+00  3.760532195E+02  3.760532195E+02  0.000000000E+00  0.00000E+00  9.000E+00
      21    -1     0     0   501   502  0.000000000E+00  0.000000000E+00 -9.635602508E+02  9.635602508E+02  0.000000000E+00  0.00000E+00  9.000E+00
      25     1     1     2     0     0  9.950102352E+01 -5.043552343E+02 -5.031454418E+02  7.301061509E+02  1.250000000E+02  0.00000E+00  9.000E+00
      25     1     1     2     0     0 -1.593771008E+02  1.719293026E+02 -2.963792059E+01  2.673277982E+02  1.250000000E+02  0.00000E+00  9.000E+00
       2     1     1     2   501     0  5.987607733E+01  3.324259318E+02 -5.472366886E+01  3.421795211E+02  4.422005890E-06  0.00000E+00  9.000E+00
#rwgt            2          18   4.5710187657888972E-005           4      369513           0
</event>
<event>
      5   9999  3.79277E-02  4.38982E+01 -1.00000E+00  1.42379E-01
      21    -1     0     0   511   501  0.000000000E+00  0.000000000E+00  1.626355599E+02  1.626355599E+02  0.000000000E+00  0.00000E+00  9.000E+00
      21    -1     0     0   501   502  0.000000000E+00  0.000000000E+00 -8.168727001E+02  8.168727001E+02  0.000000000E+00  0.00000E+00  9.000E+00
      25     1     1     2     0     0 -2.509115437E+02  2.400566058E+00 -2.229601906E+02  3.581879564E+02  1.250000000E+02  0.00000E+00  9.000E+00
      25     1     1     2     0     0  2.786615787E+02  3.161397120E+01 -4.709164700E+02  5.621734967E+02  1.250000000E+02  0.00000E+00  9.000E+00
      21     1     1     2   511   502 -2.775003496E+01 -3.401453726E+01  3.963952052E+01  5.914680695E+01  6.743495762E-07  0.00000E+00  9.000E+00
#rwgt            1           1   4.0851850173734577E-002           4      369682           0
</event>
<event>
      5   9999  3.79277E-02  4.56226E+01 -1.00000E+00  1.41384E-01
      21    -1     0     0   502   501  0.000000000E+00  0.000000000E+00  1.212775185E+02  1.212775185E+02  0.000000000E+00  0.00000E+00  9.000E+00
      21    -1     0     0   512   502  0.000000000E+00  0.000000000E+00 -5.742015956E+02  5.742015956E+02  0.000000000E+00  0.00000E+00  9.000E+00
      25     1     1     2     0     0 -1.591388344E+02 -1.020865602E+02 -9.293067491E+01  2.449651908E+02  1.250000000E+02  0.00000E+00  9.000E+00
      25     1     1     2     0     0  1.770239359E+02  6.011582649E+01 -2.903915162E+02  3.672922803E+02  1.250000000E+02  0.00000E+00  9.000E+00
      21     1     1     2   512   501 -1.788510145E+01  4.197073366E+01 -6.960188596E+01  8.322164302E+01  0.000000000E+00  0.00000E+00  9.000E+00
#rwgt            1           1   1.8706585388589766E-002           4      369792           0
</event>
<event>
      5   9999  3.79277E-02  2.40318E+01 -1.00000E+00  1.60047E-01
      21    -1     0     0   502   511  0.000000000E+00  0.000000000E+00  1.874882158E+02  1.874882158E+02  0.000000000E+00  0.00000E+00  9.000E+00
      21    -1     0     0   501   502  0.000000000E+00  0.000000000E+00 -8.522333372E+02  8.522333372E+02  0.000000000E+00  0.00000E+00  9.000E+00
      25     1     1     2     0     0 -3.125593525E+01  2.862711656E+02 -4.243511823E+02  5.278513424E+02  1.250000000E+02  0.00000E+00  9.000E+00
      25     1     1     2     0     0  2.587177325E+01 -3.096920748E+02 -2.987009742E+02  4.488048594E+02  1.250000000E+02  0.00000E+00  9.000E+00
      21     1     1     2   501   511  5.384162002E+00  2.342090923E+01  5.830703503E+01  6.306535122E+01  1.784161275E-06  0.00000E+00  9.000E+00
#rwgt            1           1   3.2443798009224083E-002           4      369874           0
</event>
<event>
      5   9999  3.79277E-02  8.23064E+01 -1.00000E+00  1.27755E-01
      21    -1     0     0   512   501  0.000000000E+00  0.000000000E+00  2.492095268E+02  2.492095268E+02  0.000000000E+00  0.00000E+00  9.000E+00
      21    -1     0     0   501   502  0.000000000E+00  0.000000000E+00 -2.111921107E+02  2.111921107E+02  0.000000000E+00  0.00000E+00  9.000E+00
      25     1     1     2     0     0 -4.441970174E+01 -1.390275570E+02  4.538625522E+01  1.974504588E+02  1.250000000E+02  0.00000E+00  9.000E+00
      25     1     1     2     0     0  3.039102483E+01  5.792551189E+01 -7.191579315E+01  1.583535937E+02  1.250000000E+02  0.00000E+00  9.000E+00
      21     1     1     2   512   502  1.402867691E+01  8.110204515E+01  6.454695405E+01  1.045975850E+02  1.348699152E-06  0.00000E+00  9.000E+00
#rwgt            1           1   4.2944726552157558E-002           4      370103           0
</event>
<event>
      5   9999  3.79277E-02  9.17205E+01 -1.00000E+00  1.25540E-01
      21    -1     0     0   502   511  0.000000000E+00  0.000000000E+00  1.306038829E+02  1.306038829E+02  0.000000000E+00  0.00000E+00  9.000E+00
      21    -1     0     0   501   502  0.000000000E+00  0.000000000E+00 -4.608144336E+02  4.608144336E+02  0.000000000E+00  0.00000E+00  9.000E+00
      25     1     1     2     0     0  3.534763327E+01 -5.788119228E+01 -1.071986303E+02  1.780905217E+02  1.250000000E+02  0.00000E+00  9.000E+00
      25     1     1     2     0     0 -1.103094551E+02  5.028721926E+00 -2.644718137E+02  3.126720393E+02  1.250000000E+02  0.00000E+00  9.000E+00
      21     1     1     2   501   511  7.496182188E+01  5.285247035E+01  4.145989331E+01  1.006557555E+02  8.259061849E-07  0.00000E+00  9.000E+00
#rwgt            1           1   3.1992446308100837E-002           4      370169           0
</event>
<event>
      5   9999  3.79277E-02  1.34660E+01 -1.00000E+00  1.81914E-01
      21    -1     0     0   502   501  0.000000000E+00  0.000000000E+00  5.906637912E+01  5.906637912E+01  0.000000000E+00  0.00000E+00  9.000E+00
      21    -1     0     0   512   502  0.000000000E+00  0.000000000E+00 -9.498421029E+02  9.498421029E+02  0.000000000E+00  0.00000E+00  9.000E+00
      25     1     1     2     0     0  3.313394500E+01 -1.040703523E+02 -1.066072172E+02  1.972779645E+02  1.250000000E+02  0.00000E+00  9.000E+00
      25     1     1     2     0     0 -4.611846968E+01  1.076391197E+02 -5.275605651E+02  5.546694901E+02  1.250000000E+02  0.00000E+00  9.000E+00
      21     1     1     2   512   501  1.298452468E+01 -3.568767437E+00 -2.566079414E+02  2.569610274E+02  0.000000000E+00  0.00000E+00  9.000E+00
#rwgt            1           1   2.6797449566136056E-002           4      370237           0
</event>
<event>
      5   9999  3.79277E-02  3.90092E+01 -1.00000E+00  1.45519E-01
       2    -1     0     0   502     0  0.000000000E+00  0.000000000E+00  5.461857405E+02  5.461857405E+02  0.000000000E+00  0.00000E+00  9.000E+00
      21    -1     0     0   501   502  0.000000000E+00  0.000000000E+00 -2.038288136E+03  2.038288136E+03  0.000000000E+00  0.00000E+00  9.000E+00
      25     1     1     2     0     0  8.719711193E+01  1.150750928E+02 -1.125613132E+03  1.141698531E+03  1.250000000E+02  0.00000E+00  9.000E+00
      25     1     1     2     0     0 -7.374280862E+01 -1.516906143E+02 -8.917194228E+02  9.160985609E+02  1.250000000E+02  0.00000E+00  9.000E+00
       2     1     1     2   501     0 -1.345430331E+01  3.661552153E+01  5.252301594E+02  5.266767842E+02  7.629394531E-06  0.00000E+00  9.000E+00
#rwgt            1           1   8.6970828777446690E-002           4      370416           0
</event>
<event>
      5   9999  3.79277E-02  2.72950E+01 -1.00000E+00  1.55946E-01
      21    -1     0     0   511   501  0.000000000E+00  0.000000000E+00  1.205185248E+02  1.205185248E+02  0.000000000E+00  0.00000E+00  9.000E+00
      21    -1     0     0   501   502  0.000000000E+00  0.000000000E+00 -7.006356803E+02  7.006356803E+02  0.000000000E+00  0.00000E+00  9.000E+00
      25     1     1     2     0     0  4.215276779E+01 -1.651756222E+02 -5.347686497E+02  5.750324779E+02  1.250000000E+02  0.00000E+00  9.000E+00
      25     1     1     2     0     0 -3.220016558E+01  1.397598181E+02 -7.618876829E+01  2.049375169E+02  1.250000000E+02  0.00000E+00  9.000E+00
      21     1     1     2   511   502 -9.952602217E+00  2.541580405E+01  3.084026247E+01  4.118421027E+01  7.539457465E-07  0.00000E+00  9.000E+00
#rwgt            1           1   4.9752992398563914E-002           4      370625           0
</event>
<event>
      5   9999  3.79277E-02  2.51286E+01 -1.00000E+00  1.58584E-01
      21    -1     0     0   502   501  0.000000000E+00  0.000000000E+00  1.127763900E+02  1.127763900E+02  0.000000000E+00  0.00000E+00  9.000E+00
      21    -1     0     0   501   512  0.000000000E+00  0.000000000E+00 -4.157486139E+02  4.157486139E+02  0.000000000E+00  0.00000E+00  9.000E+00
      25     1     1     2     0     0  1.589415485E+02  5.861065409E+01 -1.385314684E+02  2.520190317E+02  1.250000000E+02  0.00000E+00  9.000E+00
      25     1     1     2     0     0 -1.341961617E+02 -6.298231761E+01 -1.283855819E+02  2.325580353E+02  1.250000000E+02  0.00000E+00  9.000E+00
      21     1     1     2   502   512 -2.474538678E+01  4.371663523E+00 -3.605517358E+01  4.394793682E+01  6.743495762E-07  0.00000E+00  9.000E+00
#rwgt            1           1   4.4284211429810039E-002           4      370753           0
</event>
<event>
      5   9999  3.79277E-02  1.15238E+02 -1.00000E+00  1.21120E-01
      21    -1     0     0   502   501  0.000000000E+00  0.000000000E+00  1.272457366E+02  1.272457366E+02  0.000000000E+00  0.00000E+00  9.000E+00
      21    -1     0     0   511   502  0.000000000E+00  0.000000000E+00 -1.340548795E+03  1.340548795E+03  0.000000000E+00  0.00000E+00  9.000E+00
      25     1     1     2     0     0 -1.395540478E+02 -5.702497753E+01 -1.603514089E+02  2.531101631E+02  1.250000000E+02  0.00000E+00  9.000E+00
      25     1     1     2     0     0  1.285715592E+02 -5.768800098E+01 -3.669085038E+01  1.919108381E+02  1.250000000E+02  0.00000E+00  9.000E+00
      21     1     1     2   511   501  1.098248858E+01  1.147129785E+02 -1.016260799E+03  1.022773530E+03  0.000000000E+00  0.00000E+00  9.000E+00
#rwgt            1           1   4.0408751551326977E-002           4      370906           0
</event>
<event>
      5   9999  3.79277E-02  3.30090E+00 -1.00000E+00  2.84815E-01
      21    -1     0     0   512   501  0.000000000E+00  0.000000000E+00  1.520252723E+02  1.520252723E+02  0.000000000E+00  0.00000E+00  9.000E+00
      21    -1     0     0   501   502  0.000000000E+00  0.000000000E+00 -1.465471373E+03  1.465471373E+03  0.000000000E+00  0.00000E+00  9.000E+00
      25     1     1     2     0     0  2.491573086E+02 -3.457307529E+02 -3.963552035E+02  5.952575622E+02  1.250000000E+02  0.00000E+00  9.000E+00
      25     1     1     2     0     0 -2.515420290E+02  3.480130845E+02 -9.146502815E+02  1.018133899E+03  1.250000000E+02  0.00000E+00  9.000E+00
      21     1     1     2   512   502  2.384720373E+00 -2.282331577E+00 -2.440615285E+00  4.105183510E+00  2.980232239E-08  0.00000E+00  9.000E+00
#rwgt            2          11   4.9263543280282608E-004           4      371177           0
</event>
<event>
      5   9999  3.79277E-02  1.14288E+02 -1.00000E+00  1.21274E-01
      21    -1     0     0   502   501  0.000000000E+00  0.000000000E+00  7.859058986E+01  7.859058986E+01  0.000000000E+00  0.00000E+00  9.000E+00
      21    -1     0     0   501   511  0.000000000E+00  0.000000000E+00 -1.777375305E+03  1.777375305E+03  0.000000000E+00  0.00000E+00  9.000E+00
      25     1     1     2     0     0 -7.222875455E+01  2.349345670E+02 -5.247975209E+02  5.928310735E+02  1.250000000E+02  0.00000E+00  9.000E+00
      25     1     1     2     0     0  8.675010797E+01 -1.215723835E+02 -1.884910466E+02  2.710337623E+02  1.250000000E+02  0.00000E+00  9.000E+00
      21     1     1     2   502   511 -1.452135342E+01 -1.133621835E+02 -9.854961471E+02  9.921010586E+02  1.525878906E-05  0.00000E+00  9.000E+00
#rwgt            1           1   4.1036599629670219E-002           4      371197           0
</event>
<event>
      5   9999  3.79277E-02  1.32387E+01 -1.00000E+00  1.82651E-01
      21    -1     0     0   502   512  0.000000000E+00  0.000000000E+00  2.562648040E+02  2.562648040E+02  0.000000000E+00  0.00000E+00  9.000E+00
      21    -1     0     0   501   502  0.000000000E+00  0.000000000E+00 -2.828366636E+02  2.828366636E+02  0.000000000E+00  0.00000E+00  9.000E+00
      25     1     1     2     0     0  1.301152879E+02 -9.753244274E+01 -5.587894067E+01  2.125794476E+02  1.250000000E+02  0.00000E+00  9.000E+00
      25     1     1     2     0     0 -1.172870529E+02  9.426123186E+01 -8.367811592E+01  2.127638590E+02  1.250000000E+02  0.00000E+00  9.000E+00
      21     1     1     2   501   512 -1.282823496E+01  3.271210873E+00  1.129851971E+02  1.137581610E+02  1.348699152E-06  0.00000E+00  9.000E+00
#rwgt            1           1   3.7549887913414515E-002           4      371249           0
</event>
<event>
      5   9999  3.79277E-02  9.63414E+01 -1.00000E+00  1.24560E-01
      21    -1     0     0   502   511  0.000000000E+00  0.000000000E+00  4.217259719E+02  4.217259719E+02  0.000000000E+00  0.00000E+00  9.000E+00
      21    -1     0     0   501   502  0.000000000E+00  0.000000000E+00 -1.543574088E+02  1.543574088E+02  0.000000000E+00  0.00000E+00  9.000E+00
      25     1     1     2     0     0 -5.537491458E+01 -9.090136889E+00 -4.973932509E+01  1.457669792E+02  1.250000000E+02  0.00000E+00  9.000E+00
      25     1     1     2     0     0  1.109523647E+02 -6.960425671E+01  2.645457752E+02  3.205692545E+02  1.250000000E+02  0.00000E+00  9.000E+00
      21     1     1     2   501   511 -5.557745012E+01  7.869439360E+01  5.256211305E+01  1.097471470E+02  1.784161275E-06  0.00000E+00  9.000E+00
#rwgt            1           1   3.9077765461391939E-002           4      371487           0
</event>
<event>
      5   9999  3.79277E-02  2.93153E+01 -1.00000E+00  1.53740E-01
      21    -1     0     0   502   501  0.000000000E+00  0.000000000E+00  6.651607603E+02  6.651607603E+02  0.000000000E+00  0.00000E+00  9.000E+00
      21    -1     0     0   501   512  0.000000000E+00  0.000000000E+00 -6.772241101E+02  6.772241101E+02  0.000000000E+00  0.00000E+00  9.000E+00
      25     1     1     2     0     0 -2.015520446E+02  6.210738974E+01  3.995592957E+02  4.687783968E+02  1.250000000E+02  0.00000E+00  9.000E+00
      25     1     1     2     0     0  1.824547093E+02 -3.986605713E+01  1.758798817E+02  2.853730125E+02  1.250000000E+02  0.00000E+00  9.000E+00
      21     1     1     2   502   512  1.909733534E+01 -2.224133261E+01 -5.875025273E+02  5.882334610E+02  1.078959322E-05  0.00000E+00  9.000E+00
#rwgt            1           1   4.0396605259829757E-002           4      371545           0
</event>
<event>
      5   9999  3.79277E-02  1.52634E+01 -1.00000E+00  1.76674E-01
      21    -1     0     0   502   511  0.000000000E+00  0.000000000E+00  8.047365259E+01  8.047365259E+01  0.000000000E+00  0.00000E+00  9.000E+00
      21    -1     0     0   501   502  0.000000000E+00  0.000000000E+00 -4.786252137E+02  4.786252137E+02  0.000000000E+00  0.00000E+00  9.000E+00
      25     1     1     2     0     0  1.355309218E+02  2.648800762E+01 -1.539916344E+02  2.416788546E+02  1.250000000E+02  0.00000E+00  9.000E+00
      25     1     1     2     0     0 -1.390606608E+02 -1.163831137E+01 -2.294888908E+02  2.962489977E+02  1.250000000E+02  0.00000E+00  9.000E+00
      21     1     1     2   501   511  3.529739020E+00 -1.484969625E+01 -1.467103592E+01  2.117101394E+01  3.371747881E-07  0.00000E+00  9.000E+00
#rwgt            1           1   3.7904429184634339E-002           4      371676           0
</event>
<event>
      5   9999  3.79277E-02  1.69360E+01 -1.00000E+00  1.72557E-01
      21    -1     0     0   502   512  0.000000000E+00  0.000000000E+00  2.561971501E+02  2.561971501E+02  0.000000000E+00  0.00000E+00  9.000E+00
      21    -1     0     0   501   502  0.000000000E+00  0.000000000E+00 -2.386173579E+02  2.386173579E+02  0.000000000E+00  0.00000E+00  9.000E+00
      25     1     1     2     0     0  2.079902828E+01 -1.664394405E+02 -1.016105213E+02  2.325604974E+02  1.250000000E+02  0.00000E+00  9.000E+00
      25     1     1     2     0     0 -3.759043208E+01  1.642312896E+02  8.951342799E+01  2.280846572E+02  1.250000000E+02  0.00000E+00  9.000E+00
      21     1     1     2   501   512  1.679140380E+01  2.208150846E+00  2.967688559E+01  3.416935338E+01  4.768371582E-07  0.00000E+00  9.000E+00
#rwgt            1           1   3.5770742338050152E-002           4      372032           0
</event>
<event>
      5   9999  3.79277E-02  3.73300E+01 -1.00000E+00  1.46726E-01
      21    -1     0     0   502   501  0.000000000E+00  0.000000000E+00  1.200134629E+03  1.200134629E+03  0.000000000E+00  0.00000E+00  9.000E+00
      21    -1     0     0   501   511  0.000000000E+00  0.000000000E+00 -5.471282226E+01  5.471282226E+01  0.000000000E+00  0.00000E+00  9.000E+00
      25     1     1     2     0     0 -8.955321566E+01  2.265479548E+01  1.239737713E+02  1.988152765E+02  1.250000000E+02  0.00000E+00  9.000E+00
      25     1     1     2     0     0  1.250915607E+02 -1.122885380E+01  9.940676748E+02  1.009737356E+03  1.250000000E+02  0.00000E+00  9.000E+00
      21     1     1     2   502   511 -3.553834506E+01 -1.142594169E+01  2.738036075E+01  4.629481902E+01  1.168007728E-06  0.00000E+00  9.000E+00
#rwgt            1           1   2.9457030979241676E-002           4      372219           0
</event>
<event>
      5   9999  3.79277E-02  1.28881E+01 -1.00000E+00  1.83826E-01
      21    -1     0     0   502   512  0.000000000E+00  0.000000000E+00  1.266533111E+03  1.266533111E+03  0.000000000E+00  0.00000E+00  9.000E+00
      21    -1     0     0   501   502  0.000000000E+00  0.000000000E+00 -3.609738511E+01  3.609738511E+01  0.000000000E+00  0.00000E+00  9.000E+00
      25     1     1     2     0     0 -4.075671111E+01  1.267351896E+02  2.820444069E+02  3.360014364E+02  1.250000000E+02  0.00000E+00  9.000E+00
      25     1     1     2     0     0  3.888353977E+01 -1.139839533E+02  8.975115486E+02  9.141423583E+02  1.250000000E+02  0.00000E+00  9.000E+00
      21     1     1     2   501   512  1.873171348E+00 -1.275123628E+01  5.087977032E+01  5.248670142E+01  9.536743164E-07  0.00000E+00  9.000E+00
#rwgt            1           1   4.7846452589465654E-002           4      372355           0
</event>
<event>
      5   9999  3.79277E-02  7.25016E+01 -1.00000E+00  1.30453E-01
      21    -1     0     0   511   501  0.000000000E+00  0.000000000E+00  1.615147162E+03  1.615147162E+03  0.000000000E+00  0.00000E+00  9.000E+00
      21    -1     0     0   501   502  0.000000000E+00  0.000000000E+00 -4.692113147E+02  4.692113147E+02  0.000000000E+00  0.00000E+00  9.000E+00
      25     1     1     2     0     0  4.609519617E+01  9.881293638E+01 -6.202088665E+01  1.770885482E+02  1.250000000E+02  0.00000E+00  9.000E+00
      25     1     1     2     0     0 -1.134467107E+02 -1.256505148E+02 -3.170552662E+02  3.805354778E+02  1.250000000E+02  0.00000E+00  9.000E+00
      21     1     1     2   511   502  6.735151457E+01  2.683757845E+01  1.525012000E+03  1.526734451E+03  3.051757812E-05  0.00000E+00  9.000E+00
#rwgt            1           1   2.9620243638179004E-002           4      372603           0
</event>
<event>
      5   9999  3.79277E-02  4.68382E+01 -1.00000E+00  1.40714E-01
      21    -1     0     0   502   501  0.000000000E+00  0.000000000E+00  4.784496304E+02  4.784496304E+02  0.000000000E+00  0.00000E+00  9.000E+00
      21    -1     0     0   512   502  0.000000000E+00  0.000000000E+00 -9.006155810E+01  9.006155810E+01  0.000000000E+00  0.00000E+00  9.000E+00
      25     1     1     2     0     0  1.027099425E+01  9.945455841E+01  2.320236312E+02  2.818805917E+02  1.250000000E+02  0.00000E+00  9.000E+00
      25     1     1     2     0     0  1.586886811E+01 -1.383200030E+02  1.490648179E+02  2.392270138E+02  1.250000000E+02  0.00000E+00  9.000E+00
      21     1     1     2   512   501 -2.613986236E+01  3.886544455E+01  7.299623137E+00  4.740358301E+01  5.591411304E-07  0.00000E+00  9.000E+00
#rwgt            1           1   3.9178268045685867E-002           4      372763           0
</event>
<event>
      5   9999  3.79277E-02  3.39961E+01 -1.00000E+00  1.49361E-01
      21    -1     0     0   502   501  0.000000000E+00  0.000000000E+00  1.040055167E+03  1.040055167E+03  0.000000000E+00  0.00000E+00  9.000E+00
      21    -1     0     0   501   511  0.000000000E+00  0.000000000E+00 -4.526032130E+01  4.526032130E+01  0.000000000E+00  0.00000E+00  9.000E+00
      25     1     1     2     0     0  3.875337256E+01 -1.186374644E+02  6.632909607E+02  6.864084574E+02  1.250000000E+02  0.00000E+00  9.000E+00
      25     1     1     2     0     0 -1.026256730E+01  1.371848756E+02  2.586529431E+02  3.185142938E+02  1.250000000E+02  0.00000E+00  9.000E+00
      21     1     1     2   502   511 -2.849080526E+01 -1.854741114E+01  7.285094177E+01  8.039273699E+01  1.348699152E-06  0.00000E+00  9.000E+00
#rwgt            1           1   3.9188349823652449E-002           4      372882           0
</event>
<event>
      5   9999  3.79277E-02  9.88075E+01 -1.00000E+00  1.24063E-01
      21    -1     0     0   502   501  0.000000000E+00  0.000000000E+00  2.717649763E+02  2.717649763E+02  0.000000000E+00  0.00000E+00  9.000E+00
      21    -1     0     0   501   512  0.000000000E+00  0.000000000E+00 -1.140616160E+03  1.140616160E+03  0.000000000E+00  0.00000E+00  9.000E+00
      25     1     1     2     0     0  1.268905314E+02 -2.978285389E+02 -8.682451551E+02  9.350281787E+02  1.250000000E+02  0.00000E+00  9.000E+00
      25     1     1     2     0     0 -1.306689421E+02  1.990932668E+02  1.417830989E+02  3.040393863E+02  1.250000000E+02  0.00000E+00  9.000E+00
      21     1     1     2   502   512  3.778410630E+00  9.873527205E+01 -1.423891274E+02  1.733135711E+02  1.907348633E-06  0.00000E+00  9.000E+00
#rwgt            1           1  0.10801937337296680                4      373082           0
</event>
<event>
      5   9999  3.79277E-02  2.45583E+02 -1.00000E+00  1.08495E-01
      21    -1     0     0   502   501  0.000000000E+00  0.000000000E+00  5.405624323E+02  5.405624323E+02  0.000000000E+00  0.00000E+00  9.000E+00
      21    -1     0     0   501   511  0.000000000E+00  0.000000000E+00 -4.907792007E+02  4.907792007E+02  0.000000000E+00  0.00000E+00  9.000E+00
      25     1     1     2     0     0 -5.454182247E+01  3.308303616E+02  1.630840236E+02  3.932492052E+02  1.250000000E+02  0.00000E+00  9.000E+00
      25     1     1     2     0     0  1.834132184E+02 -1.217768811E+02  1.366403636E+02  2.876901222E+02  1.250000000E+02  0.00000E+00  9.000E+00
      21     1     1     2   502   511 -1.288713959E+02 -2.090534805E+02 -2.499411557E+02  3.504023056E+02  2.697398305E-06  0.00000E+00  9.000E+00
#rwgt            2          11   2.3432824021979246E-003           4      373204           0
</event>
<event>
      5   9999  3.79277E-02  5.34040E+01 -1.00000E+00  1.37463E-01
      21    -1     0     0   502   501  0.000000000E+00  0.000000000E+00  5.548537159E+01  5.548537159E+01  0.000000000E+00  0.00000E+00  9.000E+00
       4    -1     0     0   501     0  0.000000000E+00  0.000000000E+00 -1.579706126E+03  1.579706126E+03  0.000000000E+00  0.00000E+00  9.000E+00
      25     1     1     2     0     0  4.540101927E+01  6.678691956E+01 -7.742129531E+01  1.677522046E+02  1.250000000E+02  0.00000E+00  9.000E+00
      25     1     1     2     0     0 -2.488789096E+01 -1.160941500E+02 -7.961781808E+02  8.146299494E+02  1.250000000E+02  0.00000E+00  9.000E+00
       4     1     1     2   502     0 -2.051312831E+01  4.930723042E+01 -6.506212783E+02  6.528093437E+02  7.629394531E-06  0.00000E+00  9.000E+00
#rwgt            1           1   3.9457759861092623E-002           4      373224           0
</event>
<event>
      5   9999  3.79277E-02  2.07486E+01 -1.00000E+00  1.65063E-01
       2    -1     0     0   502     0  0.000000000E+00  0.000000000E+00  1.128968154E+03  1.128968154E+03  0.000000000E+00  0.00000E+00  9.000E+00
      21    -1     0     0   501   502  0.000000000E+00  0.000000000E+00 -1.650948805E+02  1.650948805E+02  0.000000000E+00  0.00000E+00  9.000E+00
      25     1     1     2     0     0  1.112283039E+02 -5.607989360E+01  3.843747774E+01  1.806076680E+02  1.250000000E+02  0.00000E+00  9.000E+00
      25     1     1     2     0     0 -1.003439219E+02  3.841537961E+01 -2.155653563E+01  1.662357611E+02  1.250000000E+02  0.00000E+00  9.000E+00
       2     1     1     2   501     0 -1.088438204E+01  1.766451400E+01  9.469923312E+02  9.472196050E+02  0.000000000E+00  0.00000E+00  9.000E+00
#rwgt            1           1   4.1509375629706108E-002           4      373366           0
</event>
<event>
      5   9999  3.79277E-02  5.13343E+01 -1.00000E+00  1.38426E-01
      21    -1     0     0   502   501  0.000000000E+00  0.000000000E+00  2.444932158E+02  2.444932158E+02  0.000000000E+00  0.00000E+00  9.000E+00
      21    -1     0     0   511   502  0.000000000E+00  0.000000000E+00 -2.974615020E+02  2.974615020E+02  0.000000000E+00  0.00000E+00  9.000E+00
      25     1     1     2     0     0 -1.458324343E+02  2.273797072E+01  1.008779389E+02  2.181409470E+02  1.250000000E+02  0.00000E+00  9.000E+00
      25     1     1     2     0     0  1.721063820E+02  2.136297519E+01 -6.898707875E+01  2.246357062E+02  1.250000000E+02  0.00000E+00  9.000E+00
      21     1     1     2   511   501 -2.627394773E+01 -4.410094591E+01 -8.485914641E+01  9.917806455E+01  1.651812370E-06  0.00000E+00  9.000E+00
#rwgt            1           1   4.0124245285937270E-002           4      373542           0
</event>
<event>
      5   9999  3.79277E-02  8.29080E+01 -1.00000E+00  1.27603E-01
       2    -1     0     0   502     0  0.000000000E+00  0.000000000E+00  2.839382654E+03  2.839382654E+03  0.000000000E+00  0.00000E+00  9.000E+00
      21    -1     0     0   501   502  0.000000000E+00  0.000000000E+00 -3.237225820E+02  3.237225820E+02  0.000000000E+00  0.00000E+00  9.000E+00
      25     1     1     2     0     0 -1.824601996E+02 -5.829432830E+01 -1.719969789E+02  2.861781157E+02  1.250000000E+02  0.00000E+00  9.000E+00
      25     1     1     2     0     0  1.309827242E+02  1.232851222E+02  3.363721027E+01  2.216126289E+02  1.250000000E+02  0.00000E+00  9.000E+00
       2     1     1     2   501     0  5.147747548E+01 -6.499079389E+01  2.654019840E+03  2.655314491E+03  4.315837288E-05  0.00000E+00  9.000E+00
#rwgt            1           1   3.0513978943693846E-002           4      373731           0
</event>
<event>
      5   9999  3.79277E-02  1.49456E+01 -1.00000E+00  1.77532E-01
      21    -1     0     0   511   501  0.000000000E+00  0.000000000E+00  8.276901963E+01  8.276901963E+01  0.000000000E+00  0.00000E+00  9.000E+00
      21    -1     0     0   501   502  0.000000000E+00  0.000000000E+00 -1.236877964E+03  1.236877964E+03  0.000000000E+00  0.00000E+00  9.000E+00
      25     1     1     2     0     0  7.219887120E+01  1.916100874E+02 -8.111779947E+02  8.459088850E+02  1.250000000E+02  0.00000E+00  9.000E+00
      25     1     1     2     0     0 -6.637046159E+01 -2.053723232E+02 -3.679964490E+02  4.445550762E+02  1.250000000E+02  0.00000E+00  9.000E+00
      21     1     1     2   511   502 -5.828409616E+00  1.376223580E+01  2.506549980E+01  2.918302200E+01  1.390207266E-06  0.00000E+00  9.000E+00
#rwgt            1           1   4.4281750503094616E-002           4      373834           0
</event>
<event>
      5   9999  3.79277E-02  3.03537E+01 -1.00000E+00  1.52687E-01
      21    -1     0     0   502   501  0.000000000E+00  0.000000000E+00  1.056722386E+03  1.056722386E+03  0.000000000E+00  0.00000E+00  9.000E+00
      21    -1     0     0   501   512  0.000000000E+00  0.000000000E+00 -5.786996090E+01  5.786996090E+01  0.000000000E+00  0.00000E+00  9.000E+00
      25     1     1     2     0     0  3.374639409E+01  1.026473356E+02  3.204569418E+02  3.605453455E+02  1.250000000E+02  0.00000E+00  9.000E+00
      25     1     1     2     0     0 -2.590602233E+01 -1.319709863E+02  6.954161201E+02  7.192468584E+02  1.250000000E+02  0.00000E+00  9.000E+00
      21     1     1     2   502   512 -7.840371762E+00  2.932365066E+01 -1.702063639E+01  3.480014339E+01  9.830249847E-07  0.00000E+00  9.000E+00
#rwgt            1           1   4.2770753887259268E-002           4      374055           0
</event>
<event>
      5   9999  3.79277E-02  7.93410E+01 -1.00000E+00  1.28524E-01
      21    -1     0     0   502   511  0.000000000E+00  0.000000000E+00  5.810613461E+02  5.810613461E+02  0.000000000E+00  0.00000E+00  9.000E+00
      21    -1     0     0   501   502  0.000000000E+00  0.000000000E+00 -1.170398273E+02  1.170398273E+02  0.000000000E+00  0.00000E+00  9.000E+00
      25     1     1     2     0     0  3.347564232E+01 -1.149102867E+02  1.911223931E+02  2.578328175E+02  1.250000000E+02  0.00000E+00  9.000E+00
      25     1     1     2     0     0 -9.604054880E+01  1.637020143E+02  9.660003196E+01  2.469386617E+02  1.250000000E+02  0.00000E+00  9.000E+00
      21     1     1     2   501   511  6.256490648E+01 -4.879172756E+01  1.762990937E+02  1.933296942E+02  1.907348633E-06  0.00000E+00  9.000E+00
#rwgt            1           1   3.4257560394887518E-002           4      374216           0
</event>
<event>
      5   9999  3.79277E-02  3.74693E+01 -1.00000E+00  1.46623E-01
      -2    -1     0     0     0   501  0.000000000E+00  0.000000000E+00  3.553074708E+02  3.553074708E+02  0.000000000E+00  0.00000E+00  9.000E+00
      21    -1     0     0   501   502  0.000000000E+00  0.000000000E+00 -1.467171939E+03  1.467171939E+03  0.000000000E+00  0.00000E+00  9.000E+00
      25     1     1     2     0     0  2.049123160E+02 -2.695590463E+02 -7.158348474E+02  8.016830206E+02  1.250000000E+02  0.00000E+00  9.000E+00
      25     1     1     2     0     0 -2.294014872E+02  2.412000819E+02 -6.624026112E+02  7.518009984E+02  1.250000000E+02  0.00000E+00  9.000E+00
      -2     1     1     2     0   502  2.448917116E+01  2.835896436E+01  2.663729903E+02  2.689953909E+02  3.814697266E-06  0.00000E+00  9.000E+00
#rwgt            1           1   4.0213466567760904E-002           4      374278           0
</event>
<event>
      5   9999  3.79277E-02  1.52880E+01 -1.00000E+00  1.76609E-01
      21    -1     0     0   502   501  0.000000000E+00  0.000000000E+00  4.066306931E+02  4.066306931E+02  0.000000000E+00  0.00000E+00  9.000E+00
      21    -1     0     0   511   502  0.000000000E+00  0.000000000E+00 -2.219919076E+02  2.219919076E+02  0.000000000E+00  0.00000E+00  9.000E+00
      25     1     1     2     0     0 -1.536674254E+02  1.514719394E+02  5.133659934E+00  2.494168810E+02  1.250000000E+02  0.00000E+00  9.000E+00
      25     1     1     2     0     0  1.652746596E+02 -1.415223142E+02  2.213772962E+02  3.346299236E+02  1.250000000E+02  0.00000E+00  9.000E+00
      21     1     1     2   511   501 -1.160723418E+01 -9.949625229E+00 -4.187217066E+01  4.457579616E+01  4.768371582E-07  0.00000E+00  9.000E+00
#rwgt            1           1   3.8560229938353063E-002           4      374515           0
</event>
<event>
      5   9999  3.79277E-02  7.50491E+01 -1.00000E+00  1.29707E-01
      21    -1     0     0   512   501  0.000000000E+00  0.000000000E+00  5.615241320E+02  5.615241320E+02  0.000000000E+00  0.00000E+00  9.000E+00
      21    -1     0     0   501   502  0.000000000E+00  0.000000000E+00 -1.900479433E+02  1.900479433E+02  0.000000000E+00  0.00000E+00  9.000E+00
      25     1     1     2     0     0 -7.490209497E+01 -1.277013417E+02  2.340140200E+02  3.038182319E+02  1.250000000E+02  0.00000E+00  9.000E+00
      25     1     1     2     0     0  1.413544631E+02  1.625790436E+02 -4.258760122E+01  2.526890054E+02  1.250000000E+02  0.00000E+00  9.000E+00
      21     1     1     2   512   502 -6.645236816E+01 -3.487770191E+01  1.800497700E+02  1.950648380E+02  2.697398305E-06  0.00000E+00  9.000E+00
#rwgt            1           1   3.8512456586376920E-002           4      374777           0
</event>
<event>
      5   9999 -3.79277E-02  1.67365E+01 -1.00000E+00  1.73016E-01
      21    -1     0     0   502   511  0.000000000E+00  0.000000000E+00  4.369342711E+02  4.369342711E+02  0.000000000E+00  0.00000E+00  9.000E+00
      21    -1     0     0   501   502  0.000000000E+00  0.000000000E+00 -1.661424245E+03  1.661424245E+03  0.000000000E+00  0.00000E+00  9.000E+00
      25     1     1     2     0     0 -1.706904114E+02  1.343574807E+02 -2.884047742E+02  3.820856749E+02  1.250000000E+02  0.00000E+00  9.000E+00
      25     1     1     2     0     0  1.775359767E+02 -1.190850041E+02 -1.314431892E+03  1.337556152E+03  1.250000000E+02  0.00000E+00  9.000E+00
      21     1     1     2   501   511 -6.845565283E+00 -1.527247656E+01  3.783466928E+02  3.787166886E+02  7.629394531E-06  0.00000E+00  9.000E+00
#rwgt            1           1 -0.12422290596270846                4      374958           0
</event>
<event>
      5   9999  3.79277E-02  1.55765E+01 -1.00000E+00  1.75854E-01
      21    -1     0     0   502   501  0.000000000E+00  0.000000000E+00  4.609494263E+02  4.609494263E+02  0.000000000E+00  0.00000E+00  9.000E+00
      21    -1     0     0   512   502  0.000000000E+00  0.000000000E+00 -1.208302105E+02  1.208302105E+02  0.000000000E+00  0.00000E+00  9.000E+00
      25     1     1     2     0     0  1.306010063E+02  4.079559694E+01  9.647463644E+01  2.089336236E+02  1.250000000E+02  0.00000E+00  9.000E+00
      25     1     1     2     0     0 -1.294763001E+02 -5.633143288E+01  2.775384578E+02  3.355442418E+02  1.250000000E+02  0.00000E+00  9.000E+00
      21     1     1     2   512   501 -1.124706153E+00  1.553583594E+01 -3.389387840E+01  3.730177147E+01  8.259061849E-07  0.00000E+00  9.000E+00
#rwgt            1           1   4.2842879251155271E-002           4      375300           0
</event>
<event>
      5   9999  3.79277E-02  3.75031E+01 -1.00000E+00  1.46598E-01
      21    -1     0     0   511   501  0.000000000E+00  0.000000000E+00  8.945768860E+01  8.945768860E+01  0.000000000E+00  0.00000E+00  9.000E+00
      21    -1     0     0   501   502  0.000000000E+00  0.000000000E+00 -5.344164138E+02  5.344164138E+02  0.000000000E+00  0.00000E+00  9.000E+00
      25     1     1     2     0     0  1.134876966E+02  8.889851851E+00 -3.436072247E+02  3.829483146E+02  1.250000000E+02  0.00000E+00  9.000E+00
      25     1     1     2     0     0 -1.138431582E+02 -4.639130715E+01 -1.030874405E+02  2.033824929E+02  1.250000000E+02  0.00000E+00  9.000E+00
      21     1     1     2   511   502  3.554615637E-01  3.750145530E+01  1.735940032E+00  3.754329488E+01  5.820997055E-07  0.00000E+00  9.000E+00
#rwgt            1           1   3.7243420000180813E-002           4      375547           0
</event>
<event>
      5   9999  3.79277E-02  8.72431E+01 -1.00000E+00  1.26554E-01
      21    -1     0     0   502   501  0.000000000E+00  0.000000000E+00  7.573976166E+02  7.573976166E+02  0.000000000E+00  0.00000E+00  9.000E+00
       2    -1     0     0   501     0  0.000000000E+00  0.000000000E+00 -1.249727712E+02  1.249727712E+02  0.000000000E+00  0.00000E+00  9.000E+00
      25     1     1     2     0     0  1.567049756E+01 -2.637298971E+01  1.591117560E+02  2.046525103E+02  1.250000000E+02  0.00000E+00  9.000E+00
      25     1     1     2     0     0  7.152245615E+01  2.933153260E+01  5.452066447E+02  5.646690056E+02  1.250000000E+02  0.00000E+00  9.000E+00
       2     1     1     2   502     0 -8.719295371E+01 -2.958542896E+00 -7.189355522E+01  1.130488719E+02  2.132480600E-06  0.00000E+00  9.000E+00
#rwgt            1           1   9.3061358722366039E-002           4      375739           0
</event>
<event>
      5   9999  3.79277E-02  5.10635E+01 -1.00000E+00  1.38556E-01
      21    -1     0     0   511   501  0.000000000E+00  0.000000000E+00  2.427128138E+02  2.427128138E+02  0.000000000E+00  0.00000E+00  9.000E+00
      21    -1     0     0   501   502  0.000000000E+00  0.000000000E+00 -3.437433419E+02  3.437433419E+02  0.000000000E+00  0.00000E+00  9.000E+00
      25     1     1     2     0     0 -4.866606264E+01  1.229563654E+02  8.112695284E+01  1.992316138E+02  1.250000000E+02  0.00000E+00  9.000E+00
      25     1     1     2     0     0  2.036792201E+01 -8.045113677E+01 -2.564250492E+02  2.970960174E+02  1.250000000E+02  0.00000E+00  9.000E+00
      21     1     1     2   511   502  2.829814063E+01 -4.250522867E+01  7.426756835E+01  9.012852455E+01  9.536743164E-07  0.00000E+00  9.000E+00
#rwgt            1           1   4.4072232517347633E-002           4      375829           0
</event>
<event>
      5   9999  3.79277E-02  3.09287E+01 -1.00000E+00  1.52126E-01
      21    -1     0     0   502   501  0.000000000E+00  0.000000000E+00  3.984400345E+02  3.984400345E+02  0.000000000E+00  0.00000E+00  9.000E+00
      21    -1     0     0   512   502  0.000000000E+00  0.000000000E+00 -2.135949745E+02  2.135949745E+02  0.000000000E+00  0.00000E+00  9.000E+00
      25     1     1     2     0     0  4.124437196E+01  2.083221206E+02 -1.440842489E+01  2.468436891E+02  1.250000000E+02  0.00000E+00  9.000E+00
      25     1     1     2     0     0 -2.411500604E+01 -2.340741966E+02  2.016709658E+02  3.341682832E+02  1.250000000E+02  0.00000E+00  9.000E+00
      21     1     1     2   512   501 -1.712936592E+01  2.575207596E+01 -2.417480992E+00  3.102303673E+01  5.732591171E-07  0.00000E+00  9.000E+00
#rwgt            1           1   4.7093925494419785E-002           4      376030           0
</event>
<event>
      5   9999  3.79277E-02  9.99032E+00 -1.00000E+00  1.95806E-01
       1    -1     0     0   502     0  0.000000000E+00  0.000000000E+00  2.032798847E+02  2.032798847E+02  0.000000000E+00  0.00000E+00  9.000E+00
      21    -1     0     0   501   502  0.000000000E+00  0.000000000E+00 -5.224438968E+02  5.224438968E+02  0.000000000E+00  0.00000E+00  9.000E+00
      25     1     1     2     0     0  9.711118012E+01 -1.274950686E+02 -2.657792704E+02  3.345880966E+02  1.250000000E+02  0.00000E+00  9.000E+00
      25     1     1     2     0     0 -1.052980555E+02  1.217695492E+02 -1.752877956E+02  2.688239477E+02  1.250000000E+02  0.00000E+00  9.000E+00
       1     1     1     2   501     0  8.186875338E+00  5.725519414E+00  1.219030539E+02  1.223117371E+02  1.907348633E-06  0.00000E+00  9.000E+00
#rwgt            1           1   3.4764615224506183E-002           4      376278           0
</event>
<event>
      5   9999  3.79277E-02  3.41630E+01 -1.00000E+00  1.49221E-01
      21    -1     0     0   502   501  0.000000000E+00  0.000000000E+00  2.320014914E+02  2.320014914E+02  0.000000000E+00  0.00000E+00  9.000E+00
      21    -1     0     0   501   511  0.000000000E+00  0.000000000E+00 -2.217116769E+02  2.217116769E+02  0.000000000E+00  0.00000E+00  9.000E+00
      25     1     1     2     0     0 -1.427343707E+02  5.313699038E+01  1.021933505E+01  1.972969212E+02  1.250000000E+02  0.00000E+00  9.000E+00
      25     1     1     2     0     0  1.672277668E+02 -2.932131458E+01  2.748271777E+01  2.126150636E+02  1.250000000E+02  0.00000E+00  9.000E+00
      21     1     1     2   502   511 -2.449339615E+01 -2.381567580E+01 -2.741223828E+01  4.380118351E+01  8.920806376E-07  0.00000E+00  9.000E+00
#rwgt            1           1   3.6690019045776637E-002           4      376469           0
</event>
<event>
      5   9999  3.79277E-02  1.21153E+01 -1.00000E+00  1.86592E-01
      21    -1     0     0   502   501  0.000000000E+00  0.000000000E+00  5.059656258E+02  5.059656258E+02  0.000000000E+00  0.00000E+00  9.000E+00
      21    -1     0     0   501   512  0.000000000E+00  0.000000000E+00 -6.027358715E+01  6.027358715E+01  0.000000000E+00  0.00000E+00  9.000E+00
      25     1     1     2     0     0 -3.644371340E+01 -2.981321215E+01  3.796040166E+02  4.024191612E+02  1.250000000E+02  0.00000E+00  9.000E+00
      25     1     1     2     0     0  3.150716680E+01  4.087718798E+01  6.830033578E+01  1.515043957E+02  1.250000000E+02  0.00000E+00  9.000E+00
      21     1     1     2   502   512  4.936546602E+00 -1.106397583E+01 -2.212313664E+00  1.231565611E+01  1.154238983E-07  0.00000E+00  9.000E+00
#rwgt            1           1   3.9429584450499711E-002           4      376821           0
</event>
<event>
      5   9999  3.79277E-02  3.14082E+01 -1.00000E+00  1.51669E-01
      21    -1     0     0   502   511  0.000000000E+00  0.000000000E+00  3.423695041E+02  3.423695041E+02  0.000000000E+00  0.00000E+00  9.000E+00
      21    -1     0     0   501   502  0.000000000E+00  0.000000000E+00 -2.297247053E+02  2.297247053E+02  0.000000000E+00  0.00000E+00  9.000E+00
      25     1     1     2     0     0  1.152795718E+02  1.766349163E+02 -7.569318618E+01  2.566003347E+02  1.250000000E+02  0.00000E+00  9.000E+00
      25     1     1     2     0     0 -1.097368586E+02 -1.457196399E+02  1.576186520E+02  2.715603635E+02  1.250000000E+02  0.00000E+00  9.000E+00
      21     1     1     2   501   511 -5.542713253E+00 -3.091527640E+01  3.071933300E+01  4.393351118E+01  6.743495762E-07  0.00000E+00  9.000E+00
#rwgt            1           1   3.1696549106690140E-002           4      377204           0
</event>
<event>
      5   9999  3.79277E-02  2.23999E+01 -1.00000E+00  1.62408E-01
      21    -1     0     0   502   512  0.000000000E+00  0.000000000E+00  7.869014473E+01  7.869014473E+01  0.000000000E+00  0.00000E+00  9.000E+00
      21    -1     0     0   501   502  0.000000000E+00  0.000000000E+00 -6.272647784E+02  6.272647784E+02  0.000000000E+00  0.00000E+00  9.000E+00
      25     1     1     2     0     0  3.909973286E+01  1.429672190E+02 -1.334042149E+02  2.353510131E+02  1.250000000E+02  0.00000E+00  9.000E+00
      25     1     1     2     0     0 -4.883377131E+01 -1.227928915E+02 -4.085999296E+02  4.472602530E+02  1.250000000E+02  0.00000E+00  9.000E+00
      21     1     1     2   501   512  9.734038453E+00 -2.017432752E+01 -6.570489156E+00  2.334365702E+01  3.475518164E-07  0.00000E+00  9.000E+00
#rwgt            1           1   3.7658623809689047E-002           4      377470           0
</event>
<event>
      5   9999  3.79277E-02  3.77603E+01 -1.00000E+00  1.46409E-01
      21    -1     0     0   502   511  0.000000000E+00  0.000000000E+00  2.887463100E+02  2.887463100E+02  0.000000000E+00  0.00000E+00  9.000E+00
      21    -1     0     0   501   502  0.000000000E+00  0.000000000E+00 -1.539816004E+02  1.539816004E+02  0.000000000E+00  0.00000E+00  9.000E+00
      25     1     1     2     0     0  1.057078102E+02 -6.672041626E+01  7.511117385E+01  1.920740574E+02  1.250000000E+02  0.00000E+00  9.000E+00
      25     1     1     2     0     0 -1.373750663E+02  8.728803821E+01  4.465755125E+01  2.100247779E+02  1.250000000E+02  0.00000E+00  9.000E+00
      21     1     1     2   501   511  3.166725617E+01 -2.056762195E+01  1.499598455E+01  4.062907504E+01  9.973764736E-07  0.00000E+00  9.000E+00
#rwgt            1           1   3.4201603913884555E-002           4      377649           0
</event>
<event>
      5   9999  3.79277E-02  3.40578E+01 -1.00000E+00  1.49309E-01
      21    -1     0     0   502   512  0.000000000E+00  0.000000000E+00  2.327207012E+02  2.327207012E+02  0.000000000E+00  0.00000E+00  9.000E+00
      21    -1     0     0   501   502  0.000000000E+00  0.000000000E+00 -7.314516763E+02  7.314516763E+02  0.000000000E+00  0.00000E+00  9.000E+00
      25     1     1     2     0     0  8.493720296E+01 -3.521678216E+01 -6.655075281E+02  6.833592175E+02  1.250000000E+02  0.00000E+00  9.000E+00
      25     1     1     2     0     0 -1.186223793E+02  4.024121111E+01  9.381023614E+01  2.002897510E+02  1.250000000E+02  0.00000E+00  9.000E+00
      21     1     1     2   501   512  3.368517634E+01 -5.024428949E+00  7.296631690E+01  8.052340898E+01  1.907348633E-06  0.00000E+00  9.000E+00
#rwgt            1           1   3.3551491822790200E-002           4      377738           0
</event>
<event>
      5   9999  3.79277E-02  6.10205E+01 -1.00000E+00  1.34313E-01
      21    -1     0     0   502   511  0.000000000E+00  0.000000000E+00  8.446008190E+02  8.446008190E+02  0.000000000E+00  0.00000E+00  9.000E+00
      21    -1     0     0   501   502  0.000000000E+00  0.000000000E+00 -1.443133382E+02  1.443133382E+02  0.000000000E+00  0.00000E+00  9.000E+00
      25     1     1     2     0     0  2.267257463E+02 -6.019649455E+01  4.427903447E+02  5.164460004E+02  1.250000000E+02  0.00000E+00  9.000E+00
      25     1     1     2     0     0 -2.626608582E+02  1.095135506E+02  1.417403528E+02  3.416127513E+02  1.250000000E+02  0.00000E+00  9.000E+00
      21     1     1     2   501   511  3.593511197E+01 -4.931705603E+01  1.157567834E+02  1.308554056E+02  1.348699152E-06  0.00000E+00  9.000E+00
#rwgt            1           1   3.6853633400353948E-002           4      377858           0
</event>
<event>
      5   9999  3.79277E-02  3.31346E+01 -1.00000E+00  1.50101E-01
      21    -1     0     0   512   501  0.000000000E+00  0.000000000E+00  2.556612521E+02  2.556612521E+02  0.000000000E+00  0.00000E+00  9.000E+00
      21    -1     0     0   501   502  0.000000000E+00  0.000000000E+00 -3.562000922E+02  3.562000922E+02  0.000000000E+00  0.00000E+00  9.000E+00
      25     1     1     2     0     0  1.868652950E+01 -2.042191921E+02  9.146746100E+01  2.569940879E+02  1.250000000E+02  0.00000E+00  9.000E+00
      25     1     1     2     0     0  1.411395054E+01  1.995253374E+02 -2.111725325E+02  3.165886959E+02  1.250000000E+02  0.00000E+00  9.000E+00
      21     1     1     2   512   502 -3.280048004E+01  4.693854697E+00  1.916623147E+01  3.827856047E+01  6.307962682E-07  0.00000E+00  9.000E+00
#rwgt            1           1   4.0335681778216073E-002           4      378052           0
</event>
<event>
      5   9999  3.79277E-02  4.31567E+01 -1.00000E+00  1.42824E-01
      21    -1     0     0   502   501  0.000000000E+00  0.000000000E+00  1.020169872E+03  1.020169872E+03  0.000000000E+00  0.00000E+00  9.000E+00
      21    -1     0     0   511   502  0.000000000E+00  0.000000000E+00 -7.434587449E+01  7.434587449E+01  0.000000000E+00  0.00000E+00  9.000E+00
      25     1     1     2     0     0 -5.355811561E+00  8.392596899E+01  8.068397189E+02  8.207847373E+02  1.250000000E+02  0.00000E+00  9.000E+00
      25     1     1     2     0     0 -2.365731291E+01 -1.158749682E+02  1.509942580E+02  2.289343632E+02  1.250000000E+02  0.00000E+00  9.000E+00
      21     1     1     2   511   501  2.901312447E+01  3.194899920E+01 -1.200997892E+01  4.479664647E+01  1.180111758E-06  0.00000E+00  9.000E+00
#rwgt            1           1   4.2010510658937371E-002           4      378220           0
</event>
<event>
      5   9999  3.79277E-02  7.06958E+00 -1.00000E+00  2.14948E-01
      21    -1     0     0   502   512  0.000000000E+00  0.000000000E+00  6.937159272E+02  6.937159272E+02  0.000000000E+00  0.00000E+00  9.000E+00
      21    -1     0     0   501   502  0.000000000E+00  0.000000000E+00 -6.330441178E+02  6.330441178E+02  0.000000000E+00  0.00000E+00  9.000E+00
      25     1     1     2     0     0 -9.852425455E+00  6.471588793E+01  4.610090307E+01  1.484436247E+02  1.250000000E+02  0.00000E+00  9.000E+00
      25     1     1     2     0     0  1.379323567E+01 -5.884655740E+01 -5.735683988E+02  5.901346277E+02  1.250000000E+02  0.00000E+00  9.000E+00
      21     1     1     2   501   512 -3.940810213E+00 -5.869330531E+00  5.881393051E+02  5.881817927E+02  0.000000000E+00  0.00000E+00  9.000E+00
#rwgt            1           1   4.1692454252178712E-002           4      378423           0
</event>
<event>
      5   9999  3.79277E-02  4.10543E+01 -1.00000E+00  1.44143E-01
      21    -1     0     0   511   501  0.000000000E+00  0.000000000E+00  5.286548270E+02  5.286548270E+02  0.000000000E+00  0.00000E+00  9.000E+00
      21    -1     0     0   501   502  0.000000000E+00  0.000000000E+00 -1.428786876E+02  1.428786876E+02  0.000000000E+00  0.00000E+00  9.000E+00
      25     1     1     2     0     0  2.078138814E+02 -4.401826647E+00  2.875375193E+02  3.761765681E+02  1.250000000E+02  0.00000E+00  9.000E+00
      25     1     1     2     0     0 -1.713495081E+02 -1.446096369E+01  2.858371904E+01  2.145036186E+02  1.250000000E+02  0.00000E+00  9.000E+00
      21     1     1     2   511   502 -3.646437336E+01  1.886279034E+01  6.965490107E+01  8.085332787E+01  9.536743164E-07  0.00000E+00  9.000E+00
#rwgt            1           1   4.3079661011126126E-002           4      378877           0
</event>
<event>
      5   9999  3.79277E-02  2.85942E+01 -1.00000E+00  1.54502E-01
      21    -1     0     0   502   512  0.000000000E+00  0.000000000E+00  9.419578449E+02  9.419578449E+02  0.000000000E+00  0.00000E+00  9.000E+00
      21    -1     0     0   501   502  0.000000000E+00  0.000000000E+00 -8.380185091E+01  8.380185091E+01  0.000000000E+00  0.00000E+00  9.000E+00
      25     1     1     2     0     0 -1.541805556E+02  2.680413082E+01  7.031704577E+02  7.311386994E+02  1.250000000E+02  0.00000E+00  9.000E+00
      25     1     1     2     0     0  1.478683751E+02 -5.469296897E+01  8.388566990E+01  2.179866574E+02  1.250000000E+02  0.00000E+00  9.000E+00
      21     1     1     2   501   512  6.312180543E+00  2.788883815E+01  7.109986644E+01  7.663433907E+01  0.000000000E+00  0.00000E+00  9.000E+00
#rwgt            1           1   4.1013299868992908E-002           4      378992           0
</event>
<event>
      5   9999  3.79277E-02  2.10327E+01 -1.00000E+00  1.64585E-01
      21    -1     0     0   502   501  0.000000000E+00  0.000000000E+00  5.451402626E+02  5.451402626E+02  0.000000000E+00  0.00000E+00  9.000E+00
      21    -1     0     0   501   511  0.000000000E+00  0.000000000E+00 -1.379392096E+02  1.379392096E+02  0.000000000E+00  0.00000E+00  9.000E+00
      25     1     1     2     0     0  7.441158855E+01 -5.515722332E+01  4.604401328E+02  4.860139090E+02  1.250000000E+02  0.00000E+00  9.000E+00
      25     1     1     2     0     0 -9.362525059E+01  6.371340954E+01 -4.849391485E+01  1.755042617E+02  1.250000000E+02  0.00000E+00  9.000E+00
      21     1     1     2   502   511  1.921366204E+01 -8.556186225E+00 -4.745164961E+00  2.156130149E+01  1.460009660E-07  0.00000E+00  9.000E+00
#rwgt            1           1   4.5696023808529884E-002           4      379213           0
</event>
<event>
      5   9999  3.79277E-02  4.01874E+01 -1.00000E+00  1.44714E-01
      21    -1     0     0   502   512  0.000000000E+00  0.000000000E+00  3.074315100E+03  3.074315100E+03  0.000000000E+00  0.00000E+00  9.000E+00
      21    -1     0     0   501   502  0.000000000E+00  0.000000000E+00 -2.598940630E+01  2.598940630E+01  0.000000000E+00  0.00000E+00  9.000E+00
      25     1     1     2     0     0 -9.491279824E+01  1.443060910E+02  5.215283851E+02  5.634266090E+02  1.250000000E+02  0.00000E+00  9.000E+00
      25     1     1     2     0     0  8.356371522E+01 -1.057544523E+02  2.187102302E+03  2.194813974E+03  1.250000000E+02  0.00000E+00  9.000E+00
      21     1     1     2   501   512  1.134908303E+01 -3.855163872E+01  3.396950062E+02  3.420639235E+02  3.814697266E-06  0.00000E+00  9.000E+00
#rwgt            1           1   4.8478045387452678E-002           4      379430           0
</event>
<event>
      5   9999  3.79277E-02  1.46654E+02 -1.00000E+00  1.16783E-01
      21    -1     0     0   502   511  0.000000000E+00  0.000000000E+00  1.172691092E+02  1.172691092E+02  0.000000000E+00  0.00000E+00  9.000E+00
      21    -1     0     0   501   502  0.000000000E+00  0.000000000E+00 -9.044611003E+02  9.044611003E+02  0.000000000E+00  0.00000E+00  9.000E+00
      25     1     1     2     0     0 -1.670811809E+02  1.033262839E+02 -3.491317790E+02  4.196551454E+02  1.250000000E+02  0.00000E+00  9.000E+00
      25     1     1     2     0     0  1.899907387E+02  4.152692590E+01 -3.790643744E+02  4.439997368E+02  1.250000000E+02  0.00000E+00  9.000E+00
      21     1     1     2   501   511 -2.290955775E+01 -1.448532098E+02 -5.899583758E+01  1.580753272E+02  9.536743164E-07  0.00000E+00  9.000E+00
#rwgt            1           1   3.1217693413630246E-002           4      379552           0
</event>
<event>
      5   9999  3.79277E-02  6.52401E+00 -1.00000E+00  2.19969E-01
      21    -1     0     0   502   501  0.000000000E+00  0.000000000E+00  1.327971357E+02  1.327971357E+02  0.000000000E+00  0.00000E+00  9.000E+00
      21    -1     0     0   501   512  0.000000000E+00  0.000000000E+00 -8.301408920E+02  8.301408920E+02  0.000000000E+00  0.00000E+00  9.000E+00
      25     1     1     2     0     0 -6.107523286E+01 -2.500457707E+02 -1.637943031E+02  3.297069081E+02  1.250000000E+02  0.00000E+00  9.000E+00
      25     1     1     2     0     0  6.663007309E+01  2.466242966E+02 -3.564408684E+02  4.560024155E+02  1.250000000E+02  0.00000E+00  9.000E+00
      21     1     1     2   502   512 -5.554840233E+00  3.421474097E+00 -1.771085848E+02  1.772287041E+02  0.000000000E+00  0.00000E+00  9.000E+00
#rwgt            1           1   2.8886775250369801E-002           4      379598           0
</event>
<event>
      5   9999  3.79277E-02  4.05783E+01 -1.00000E+00  1.44455E-01
      21    -1     0     0   502   501  0.000000000E+00  0.000000000E+00  3.001749336E+02  3.001749336E+02  0.000000000E+00  0.00000E+00  9.000E+00
      21    -1     0     0   501   511  0.000000000E+00  0.000000000E+00 -1.271356102E+03  1.271356102E+03  0.000000000E+00  0.00000E+00  9.000E+00
      25     1     1     2     0     0  5.040850173E+01  5.729864177E+01 -3.671326921E+02  3.952664481E+02  1.250000000E+02  0.00000E+00  9.000E+00
      25     1     1     2     0     0 -1.720871571E+01 -8.063039805E+01  2.660101504E+02  3.052602187E+02  1.250000000E+02  0.00000E+00  9.000E+00
      21     1     1     2   502   511 -3.319978602E+01  2.333175628E+01 -8.700586267E+02  8.710043688E+02  0.000000000E+00  0.00000E+00  9.000E+00
#rwgt            1           1   3.5865965445549680E-002           4      380030           0
</event>
<event>
      5   9999  3.79277E-02  4.03543E+01 -1.00000E+00  1.44603E-01
      21    -1     0     0   512   501  0.000000000E+00  0.000000000E+00  1.009151188E+02  1.009151188E+02  0.000000000E+00  0.00000E+00  9.000E+00
      21    -1     0     0   501   502  0.000000000E+00  0.000000000E+00 -3.744176908E+02  3.744176908E+02  0.000000000E+00  0.00000E+00  9.000E+00
      25     1     1     2     0     0 -9.263487473E+00 -1.128524720E+02 -2.169604281E+02  2.748059679E+02  1.250000000E+02  0.00000E+00  9.000E+00
      25     1     1     2     0     0 -1.928074497E+01  8.432712580E+01 -4.595039729E+01  1.588056998E+02  1.250000000E+02  0.00000E+00  9.000E+00
      21     1     1     2   512   502  2.854423244E+01  2.852534622E+01 -1.059174664E+01  4.172114187E+01  5.196212463E-07  0.00000E+00  9.000E+00
#rwgt            1           1   3.2382715381547356E-002           4      380219           0
</event>
<event>
      5   9999  3.79277E-02  1.03682E+02 -1.00000E+00  1.23126E-01
      21    -1     0     0   502   501  0.000000000E+00  0.000000000E+00  1.581416204E+03  1.581416204E+03  0.000000000E+00  0.00000E+00  9.000E+00
      21    -1     0     0   501   511  0.000000000E+00  0.000000000E+00 -2.170286190E+02  2.170286190E+02  0.000000000E+00  0.00000E+00  9.000E+00
      25     1     1     2     0     0 -1.182198726E+02 -5.821452504E+00  5.404623444E+02  5.672163373E+02  1.250000000E+02  0.00000E+00  9.000E+00
      25     1     1     2     0     0  6.611980414E+01 -8.382023457E+01  1.007271067E+03  1.020596719E+03  1.250000000E+02  0.00000E+00  9.000E+00
      21     1     1     2   502   511  5.210006847E+01  8.964168708E+01 -1.833458263E+02  2.106317669E+02  8.946258087E-06  0.00000E+00  9.000E+00
#rwgt            1           1   4.9473663316848333E-002           4      380319           0
</event>
<event>
      5   9999  3.79277E-02  1.54963E+02 -1.00000E+00  1.15836E-01
      21    -1     0     0   502   501  0.000000000E+00  0.000000000E+00  1.519469328E+03  1.519469328E+03  0.000000000E+00  0.00000E+00  9.000E+00
       2    -1     0     0   501     0  0.000000000E+00  0.000000000E+00 -5.579636511E+02  5.579636511E+02  0.000000000E+00  0.00000E+00  9.000E+00
      25     1     1     2     0     0  9.647222892E+01 -3.395032427E+02  6.864312025E+02  7.819092905E+02  1.250000000E+02  0.00000E+00  9.000E+00
      25     1     1     2     0     0 -5.738669283E+01  4.894564207E+02  6.874297885E+02  8.550120084E+02  1.250000000E+02  0.00000E+00  9.000E+00
       2     1     1     2   502     0 -3.908553610E+01 -1.499531780E+02 -4.123553145E+02  4.405116799E+02  5.394796609E-06  0.00000E+00  9.000E+00
#rwgt            1           1   2.5648046365888535E-002           4      380455           0
</event>
<event>
      5   9999  3.79277E-02  6.21978E+01 -1.00000E+00  1.33874E-01
       2    -1     0     0   502     0  0.000000000E+00  0.000000000E+00  1.191656693E+03  1.191656693E+03  0.000000000E+00  0.00000E+00  9.000E+00
      21    -1     0     0   501   502  0.000000000E+00  0.000000000E+00 -5.769028959E+02  5.769028959E+02  0.000000000E+00  0.00000E+00  9.000E+00
      25     1     1     2     0     0 -2.586794196E+02  1.146411875E+02 -1.458899102E+02  3.420036694E+02  1.250000000E+02  0.00000E+00  9.000E+00
      25     1     1     2     0     0  2.549899243E+02 -5.255293707E+01 -2.692150096E+02  3.948207113E+02  1.250000000E+02  0.00000E+00  9.000E+00
       2     1     1     2   501     0  3.689495311E+00 -6.208825040E+01  1.029858717E+03  1.031735208E+03  1.525878906E-05  0.00000E+00  9.000E+00
#rwgt            1           1  0.21896252323761109                4      380603           0
</event>
<event>
      5   9999  3.79277E-02  2.91796E+01 -1.00000E+00  1.53881E-01
      21    -1     0     0   511   501  0.000000000E+00  0.000000000E+00  4.558965950E+02  4.558965950E+02  0.000000000E+00  0.00000E+00  9.000E+00
      21    -1     0     0   501   502  0.000000000E+00  0.000000000E+00 -1.773437190E+02  1.773437190E+02  0.000000000E+00  0.00000E+00  9.000E+00
      25     1     1     2     0     0 -1.422355504E+02  9.015714818E+01  1.447685668E+02  2.548375975E+02  1.250000000E+02  0.00000E+00  9.000E+00
      25     1     1     2     0     0  1.679129537E+02 -7.629641559E+01 -1.829227051E+01  2.235520302E+02  1.250000000E+02  0.00000E+00  9.000E+00
      21     1     1     2   511   502 -2.567740331E+01 -1.386073259E+01  1.520765797E+02  1.548506863E+02  0.000000000E+00  0.00000E+00  9.000E+00
#rwgt            1           1   4.1524632433552255E-002           4      380757           0
</event>
<event>
      5   9999  3.79277E-02  2.18830E+01 -1.00000E+00  1.63208E-01
      21    -1     0     0   502   512  0.000000000E+00  0.000000000E+00  2.477772053E+02  2.477772053E+02  0.000000000E+00  0.00000E+00  9.000E+00
      21    -1     0     0   501   502  0.000000000E+00  0.000000000E+00 -7.414011677E+02  7.414011677E+02  0.000000000E+00  0.00000E+00  9.000E+00
      25     1     1     2     0     0 -7.868901686E+01 -1.569004083E+02 -5.710374150E+02  6.103428781E+02  1.250000000E+02  0.00000E+00  9.000E+00
      25     1     1     2     0     0  5.789636349E+01  1.637218082E+02 -7.357969345E+01  2.262648684E+02  1.250000000E+02  0.00000E+00  9.000E+00
      21     1     1     2   501   512  2.079265337E+01 -6.821399942E+00  1.509931460E+02  1.525706265E+02  3.814697266E-06  0.00000E+00  9.000E+00
#rwgt            1           1   2.9192352824533176E-002           4      381011           0
</event>
<event>
      5   9999  3.79277E-02  9.52823E+01 -1.00000E+00  1.24779E-01
      21    -1     0     0   502   501  0.000000000E+00  0.000000000E+00  6.330128393E+02  6.330128393E+02  0.000000000E+00  0.00000E+00  9.000E+00
      21    -1     0     0   511   502  0.000000000E+00  0.000000000E+00 -8.190322515E+02  8.190322515E+02  0.000000000E+00  0.00000E+00  9.000E+00
      25     1     1     2     0     0  8.052329732E+01 -2.113919713E+02  4.125357321E+02  4.868072485E+02  1.250000000E+02  0.00000E+00  9.000E+00
      25     1     1     2     0     0  1.283085052E+01  1.923206190E+02  1.068937272E+02  2.533833463E+02  1.250000000E+02  0.00000E+00  9.000E+00
      21     1     1     2   511   501 -9.335414785E+01  1.907135229E+01 -7.054488715E+02  7.118544961E+02  1.078959322E-05  0.00000E+00  9.000E+00
#rwgt            1           1  0.15883842932058356                4      381174           0
</event>
<event>
      5   9999  3.79277E-02  2.78288E+01 -1.00000E+00  1.55341E-01
      21    -1     0     0   502   512  0.000000000E+00  0.000000000E+00  2.436501171E+02  2.436501171E+02  0.000000000E+00  0.00000E+00  9.000E+00
      21    -1     0     0   501   502  0.000000000E+00  0.000000000E+00 -5.784028141E+02  5.784028141E+02  0.000000000E+00  0.00000E+00  9.000E+00
      25     1     1     2     0     0 -1.006554629E+02 -9.665971264E+01 -5.102822698E+02  5.435877272E+02  1.250000000E+02  0.00000E+00  9.000E+00
      25     1     1     2     0     0  7.678967222E+01  1.109728004E+02  1.305240079E+02  2.255507323E+02  1.250000000E+02  0.00000E+00  9.000E+00
      21     1     1     2   501   512  2.386579064E+01 -1.431308781E+01  4.500556484E+01  5.291447167E+01  8.259061849E-07  0.00000E+00  9.000E+00
#rwgt            1           1   3.4253933008579152E-002           4      381220           0
</event>
<event>
      5   9999  3.79277E-02  8.89995E+01 -1.00000E+00  1.26148E-01
      21    -1     0     0   502   511  0.000000000E+00  0.000000000E+00  3.872572812E+02  3.872572812E+02  0.000000000E+00  0.00000E+00  9.000E+00
      21    -1     0     0   501   502  0.000000000E+00  0.000000000E+00 -2.325354749E+02  2.325354749E+02  0.000000000E+00  0.00000E+00  9.000E+00
      25     1     1     2     0     0  1.863880379E+02  1.453960819E+01 -1.041332448E+02  2.478318655E+02  1.250000000E+02  0.00000E+00  9.000E+00
      25     1     1     2     0     0 -1.111766060E+02  3.304342551E+01  1.258779214E+02  2.119489485E+02  1.250000000E+02  0.00000E+00  9.000E+00
      21     1     1     2   501   511 -7.521143183E+01 -4.758303369E+01  1.329771298E+02  1.600119421E+02  0.000000000E+00  0.00000E+00  9.000E+00
#rwgt            1           1   7.9267355723053892E-002           4      381492           0
</event>
<event>
      5   9999  3.79277E-02  8.63794E+01 -1.00000E+00  1.26757E-01
       1    -1     0     0   502     0  0.000000000E+00  0.000000000E+00  7.828951459E+02  7.828951459E+02  0.000000000E+00  0.00000E+00  9.000E+00
      21    -1     0     0   501   502  0.000000000E+00  0.000000000E+00 -4.508614937E+02  4.508614937E+02  0.000000000E+00  0.00000E+00  9.000E+00
      25     1     1     2     0     0  4.758863060E+01 -5.921207261E+01 -3.882920154E+01  1.513388721E+02  1.250000000E+02  0.00000E+00  9.000E+00
      25     1     1     2     0     0 -1.020327654E+02  1.262735420E+02 -3.233780085E+02  3.828237571E+02  1.250000000E+02  0.00000E+00  9.000E+00
       1     1     1     2   501     0  5.444413484E+01 -6.706146939E+01  6.942408623E+02  6.995940104E+02  7.629394531E-06  0.00000E+00  9.000E+00
#rwgt            1           1   4.2807016981555354E-002           4      381608           0
</event>
<event>
      5   9999  3.79277E-02  6.22226E+01 -1.00000E+00  1.33865E-01
      21    -1     0     0   502   501  0.000000000E+00  0.000000000E+00  3.391728376E+02  3.391728376E+02  0.000000000E+00  0.00000E+00  9.000E+00
      21    -1     0     0   511   502  0.000000000E+00  0.000000000E+00 -1.847812269E+02  1.847812269E+02  0.000000000E+00  0.00000E+00  9.000E+00
      25     1     1     2     0     0 -9.428624948E+01 -5.904457700E+01 -6.296232149E+01  1.787887380E+02  1.250000000E+02  0.00000E+00  9.000E+00
      25     1     1     2     0     0  5.639465631E+01  1.083991694E+02  2.222438678E+02  2.827509044E+02  1.250000000E+02  0.00000E+00  9.000E+00
      21     1     1     2   511   501  3.789159317E+01 -4.935459237E+01 -4.889935510E+00  6.241442213E+01  1.155776944E-06  0.00000E+00  9.000E+00
#rwgt            1           1   3.6162152187526823E-002           4      381750           0
</event>
<event>
      5   9999  3.79277E-02  7.12454E+01 -1.00000E+00  1.30834E-01
      21    -1     0     0   502   512  0.000000000E+00  0.000000000E+00  2.788280947E+02  2.788280947E+02  0.000000000E+00  0.00000E+00  9.000E+00
      21    -1     0     0   501   502  0.000000000E+00  0.000000000E+00 -5.274860498E+02  5.274860498E+02  0.000000000E+00  0.00000E+00  9.000E+00
      25     1     1     2     0     0  2.139469498E+02 -1.877606888E+00  2.766608383E+01  2.493335816E+02  1.250000000E+02  0.00000E+00  9.000E+00
      25     1     1     2     0     0 -2.058227123E+02 -6.890307766E+01 -3.653458147E+02  4.429595775E+02  1.250000000E+02  0.00000E+00  9.000E+00
      21     1     1     2   501   512 -8.124237515E+00  7.078068455E+01  8.902177580E+01  1.140209854E+02  2.523185073E-06  0.00000E+00  9.000E+00
#rwgt            1           1   5.2649061931913536E-002           4      381852           0
</event>
<event>
      5   9999  3.79277E-02  1.89826E+01 -1.00000E+00  1.68262E-01
      21    -1     0     0   502   501  0.000000000E+00  0.000000000E+00  1.798331598E+02  1.798331598E+02  0.000000000E+00  0.00000E+00  9.000E+00
       3    -1     0     0   501     0  0.000000000E+00  0.000000000E+00 -3.283829910E+02  3.283829910E+02  0.000000000E+00  0.00000E+00  9.000E+00
      25     1     1     2     0     0  1.698143428E+01 -4.714273381E+01  1.264807776E+02  1.847517078E+02  1.250000000E+02  0.00000E+00  9.000E+00
      25     1     1     2     0     0 -1.869557910E+01  6.604777288E+01 -2.673115325E+02  3.029724218E+02  1.250000000E+02  0.00000E+00  9.000E+00
       3     1     1     2   502     0  1.714144823E+00 -1.890503907E+01 -7.719076228E+00  2.049202119E+01  1.884864366E-07  0.00000E+00  9.000E+00
#rwgt            1           1   3.5793578112419761E-002           4      382034           0
</event>
<event>
      5   9999  3.79277E-02  3.43591E+01 -1.00000E+00  1.49057E-01
      21    -1     0     0   511   501  0.000000000E+00  0.000000000E+00  1.908351900E+02  1.908351900E+02  0.000000000E+00  0.00000E+00  9.000E+00
      21    -1     0     0   501   502  0.000000000E+00  0.000000000E+00 -1.991019537E+02  1.991019537E+02  0.000000000E+00  0.00000E+00  9.000E+00
      25     1     1     2     0     0  7.337983737E+01 -8.954849777E+00 -9.323158802E+01  1.725743865E+02  1.250000000E+02  0.00000E+00  9.000E+00
      25     1     1     2     0     0 -1.033510609E+02  2.575586157E+01  5.979947193E+01  1.747735192E+02  1.250000000E+02  0.00000E+00  9.000E+00
      21     1     1     2   511   502  2.997122349E+01 -1.680101179E+01  2.516535240E+01  4.258923804E+01  6.743495762E-07  0.00000E+00  9.000E+00
#rwgt            1           1   2.7186516120092676E-002           4      382229           0
</event>
<event>
      5   9999  3.79277E-02  3.67137E+01 -1.00000E+00  1.47188E-01
      21    -1     0     0   502   501  0.000000000E+00  0.000000000E+00  9.022831958E+02  9.022831958E+02  0.000000000E+00  0.00000E+00  9.000E+00
      21    -1     0     0   501   512  0.000000000E+00  0.000000000E+00 -5.555767125E+01  5.555767125E+01  0.000000000E+00  0.00000E+00  9.000E+00
      25     1     1     2     0     0 -5.011662728E+01  1.057524141E+02  5.662920300E+02  5.916138206E+02  1.250000000E+02  0.00000E+00  9.000E+00
      25     1     1     2     0     0  2.926191330E+01 -1.359679564E+02  2.693076396E+02  3.278645291E+02  1.250000000E+02  0.00000E+00  9.000E+00
      21     1     1     2   502   512  2.085471398E+01  3.021554230E+01  1.112585499E+01  3.836251739E+01  2.384185791E-07  0.00000E+00  9.000E+00
#rwgt            1           1   5.3739587920323920E-002           4      382414           0
</event>
<event>
      5   9999  3.79277E-02  5.11951E+01 -1.00000E+00  1.38493E-01
      21    -1     0     0   511   501  0.000000000E+00  0.000000000E+00  1.874090513E+02  1.874090513E+02  0.000000000E+00  0.00000E+00  9.000E+00
      21    -1     0     0   501   502  0.000000000E+00  0.000000000E+00 -2.109849737E+02  2.109849737E+02  0.000000000E+00  0.00000E+00  9.000E+00
      25     1     1     2     0     0  2.555543755E+01  7.451335242E+01  5.220332418E+01  1.567019691E+02  1.250000000E+02  0.00000E+00  9.000E+00
      25     1     1     2     0     0 -3.835016243E+01 -2.494287636E+01 -1.160203156E+02  1.765746179E+02  1.250000000E+02  0.00000E+00  9.000E+00
      21     1     1     2   511   502  1.279472488E+01 -4.957047606E+01  4.024106911E+01  6.511743795E+01  4.768371582E-07  0.00000E+00  9.000E+00
#rwgt            1           1   3.2089467095808871E-002           4      382489           0
</event>
<event>
      5   9999  3.79277E-02  3.51526E+02 -1.00000E+00  1.03403E-01
      -2    -1     0     0     0   501  0.000000000E+00  0.000000000E+00  2.432564172E+02  2.432564172E+02  0.000000000E+00  0.00000E+00  9.000E+00
      21    -1     0     0   501   502  0.000000000E+00  0.000000000E+00 -1.040092537E+03  1.040092537E+03  0.000000000E+00  0.00000E+00  9.000E+00
      25     1     1     2     0     0 -4.121979611E+01 -8.809785322E+01 -4.997595518E+02  5.242565335E+02  1.250000000E+02  0.00000E+00  9.000E+00
      25     1     1     2     0     0  5.085133125E+01 -2.632960203E+02 -2.796866832E+02  4.071367006E+02  1.250000000E+02  0.00000E+00  9.000E+00
      -2     1     1     2     0   502 -9.631535139E+00  3.513938735E+02 -1.738988477E+01  3.519557201E+02  1.066240300E-06  0.00000E+00  9.000E+00
#rwgt            2           4   2.2077257292442579E-005           4      382537           0
</event>
<event>
      5   9999  3.79277E-02  1.38409E+02 -1.00000E+00  1.17795E-01
      21    -1     0     0   502   501  0.000000000E+00  0.000000000E+00  4.002069404E+01  4.002069404E+01  0.000000000E+00  0.00000E+00  9.000E+00
       1    -1     0     0   501     0  0.000000000E+00  0.000000000E+00 -3.078796852E+03  3.078796852E+03  0.000000000E+00  0.00000E+00  9.000E+00
      25     1     1     2     0     0  7.452042418E+01 -5.157085737E+01 -5.315404971E+02  5.535098437E+02  1.250000000E+02  0.00000E+00  9.000E+00
      25     1     1     2     0     0  4.520738643E+01  1.210136388E+02 -2.734793417E+02  3.272674119E+02  1.250000000E+02  0.00000E+00  9.000E+00
       1     1     1     2   502     0 -1.197278106E+02 -6.944278139E+01 -2.233756319E+03  2.238040290E+03  0.000000000E+00  0.00000E+00  9.000E+00
#rwgt            1           1   4.0236938621947688E-002           4      382601           0
</event>
<event>
      5   9999  3.79277E-02  4.24866E+01 -1.00000E+00  1.43234E-01
       1    -1     0     0   502     0  0.000000000E+00  0.000000000E+00  3.924723800E+02  3.924723800E+02  0.000000000E+00  0.00000E+00  9.000E+00
      21    -1     0     0   501   502  0.000000000E+00  0.000000000E+00 -4.336504158E+02  4.336504158E+02  0.000000000E+00  0.00000E+00  9.000E+00
      25     1     1     2     0     0 -4.647794250E+01  1.483860960E+02 -1.427261648E+02  2.453046896E+02  1.250000000E+02  0.00000E+00  9.000E+00
      25     1     1     2     0     0  5.284137453E+01 -1.903934555E+02 -1.806322885E+02  2.954571076E+02  1.250000000E+02  0.00000E+00  9.000E+00
       1     1     1     2   501     0 -6.363432029E+00  4.200735951E+01  2.821804174E+02  2.853609986E+02  0.000000000E+00  0.00000E+00  9.000E+00
#rwgt            1           1   3.0638571075159157E-002           4      382667           0
</event>
<event>
      5   9999  3.79277E-02  2.51412E+01 -1.00000E+00  1.58568E-01
      21    -1     0     0   502   501  0.000000000E+00  0.000000000E+00  4.717301293E+02  4.717301293E+02  0.000000000E+00  0.00000E+00  9.000E+00
      21    -1     0     0   501   511  0.000000000E+00  0.000000000E+00 -2.512903121E+02  2.512903121E+02  0.000000000E+00  0.00000E+00  9.000E+00
      25     1     1     2     0     0  7.489834662E+01 -1.449379425E+02  2.345817253E+02  3.118819574E+02  1.250000000E+02  0.00000E+00  9.000E+00
      25     1     1     2     0     0 -9.793235603E+01  1.550134931E+02  1.350946989E+02  2.597989744E+02  1.250000000E+02  0.00000E+00  9.000E+00
      21     1     1     2   502   511  2.303400941E+01 -1.007555067E+01 -1.492366070E+02  1.513395096E+02  0.000000000E+00  0.00000E+00  9.000E+00
#rwgt            1           1   2.9209407106604603E-002           4      382841           0
</event>
<event>
      5   9999  3.79277E-02  9.64359E+01 -1.00000E+00  1.24541E-01
      21    -1     0     0   502   501  0.000000000E+00  0.000000000E+00  9.349867284E+02  9.349867284E+02  0.000000000E+00  0.00000E+00  9.000E+00
      21    -1     0     0   512   502  0.000000000E+00  0.000000000E+00 -8.675245036E+01  8.675245036E+01  0.000000000E+00  0.00000E+00  9.000E+00
      25     1     1     2     0     0 -1.083786953E+02  1.829341110E+02  4.072542661E+02  4.761216944E+02  1.250000000E+02  0.00000E+00  9.000E+00
      25     1     1     2     0     0  2.367183166E+01 -1.368404294E+02  3.987218311E+02  4.403291466E+02  1.250000000E+02  0.00000E+00  9.000E+00
      21     1     1     2   512   501  8.470686364E+01 -4.609368161E+01  4.225818082E+01  1.052883378E+02  2.477718555E-06  0.00000E+00  9.000E+00
#rwgt            1           1   2.1860789301221213E-002           4      383018           0
</event>
<event>
      5   9999 -3.79277E-02  2.93975E+01 -1.00000E+00  1.53654E-01
      21    -1     0     0   502   511  0.000000000E+00  0.000000000E+00  5.633089549E+02  5.633089549E+02  0.000000000E+00  0.00000E+00  9.000E+00
      21    -1     0     0   501   502  0.000000000E+00  0.000000000E+00 -1.130644126E+03  1.130644126E+03  0.000000000E+00  0.00000E+00  9.000E+00
      25     1     1     2     0     0  1.744426366E+02  6.615341969E+00 -9.083197603E+00  2.148988150E+02  1.250000000E+02  0.00000E+00  9.000E+00
      25     1     1     2     0     0 -2.038322849E+02 -5.936310386E+00 -1.004122336E+03  1.032215823E+03  1.250000000E+02  0.00000E+00  9.000E+00
      21     1     1     2   501   511  2.938964834E+01 -6.790315826E-01  4.458703632E+02  4.468384420E+02  7.629394531E-06  0.00000E+00  9.000E+00
#rwgt            1           1 -0.11455185850557870                4      383073           0
</event>
<event>
      5   9999  3.79277E-02  1.74036E+01 -1.00000E+00  1.71511E-01
      -4    -1     0     0     0   501  0.000000000E+00  0.000000000E+00  1.367209323E+02  1.367209323E+02  0.000000000E+00  0.00000E+00  9.000E+00
      21    -1     0     0   501   502  0.000000000E+00  0.000000000E+00 -9.662234920E+02  9.662234920E+02  0.000000000E+00  0.00000E+00  9.000E+00
      25     1     1     2     0     0 -8.307325986E+01 -2.952596749E+01 -8.683561718E+02  8.817258022E+02  1.250000000E+02  0.00000E+00  9.000E+00
      25     1     1     2     0     0  6.926862982E+01  1.892805251E+01 -3.249793086E+01  1.477752677E+02  1.250000000E+02  0.00000E+00  9.000E+00
      -4     1     1     2     0   502  1.380463004E+01  1.059791498E+01  7.135154299E+01  7.344335436E+01  2.336015456E-06  0.00000E+00  9.000E+00
#rwgt            1           1   4.5547621809091408E-002           4      383263           0
</event>
<event>
      5   9999  3.79277E-02  3.47473E+01 -1.00000E+00  1.48737E-01
      21    -1     0     0   502   501  0.000000000E+00  0.000000000E+00  7.982562164E+01  7.982562164E+01  0.000000000E+00  0.00000E+00  9.000E+00
      21    -1     0     0   511   502  0.000000000E+00  0.000000000E+00 -1.743417858E+03  1.743417858E+03  0.000000000E+00  0.00000E+00  9.000E+00
      25     1     1     2     0     0 -1.108444855E+02 -1.925516760E+02 -3.927519054E+02  4.682325353E+02  1.250000000E+02  0.00000E+00  9.000E+00
      25     1     1     2     0     0  8.826460486E+01  1.661410001E+02 -2.634525826E+02  3.470241140E+02  1.250000000E+02  0.00000E+00  9.000E+00
      21     1     1     2   511   501  2.257988062E+01  2.641067593E+01 -1.007387748E+03  1.007986831E+03  1.525878906E-05  0.00000E+00  9.000E+00
#rwgt            1           1   3.7063476874499866E-002           4      383441           0
</event>
<event>
      5   9999  3.79277E-02  5.51717E+00 -1.00000E+00  2.31283E-01
      21    -1     0     0   502   501  0.000000000E+00  0.000000000E+00  9.617633725E+02  9.617633725E+02  0.000000000E+00  0.00000E+00  9.000E+00
      21    -1     0     0   512   502  0.000000000E+00  0.000000000E+00 -4.534718496E+01  4.534718496E+01  0.000000000E+00  0.00000E+00  9.000E+00
      25     1     1     2     0     0 -1.331698000E+02 -7.264555004E+01  5.292390417E+02  5.645622506E+02  1.250000000E+02  0.00000E+00  9.000E+00
      25     1     1     2     0     0  1.374997787E+02  7.606468674E+01  3.880897606E+02  4.369561625E+02  1.250000000E+02  0.00000E+00  9.000E+00
      21     1     1     2   512   501 -4.329978694E+00 -3.419136706E+00 -9.126148121E-01  5.592144230E+00  3.650024150E-08  0.00000E+00  9.000E+00
#rwgt            1           1   2.6441013815800260E-002           4      383728           0
</event>
<event>
      5   9999  3.79277E-02  4.57647E+01 -1.00000E+00  1.41305E-01
      21    -1     0     0   502   501  0.000000000E+00  0.000000000E+00  1.455697714E+02  1.455697714E+02  0.000000000E+00  0.00000E+00  9.000E+00
      -1    -1     0     0     0   502  0.000000000E+00  0.000000000E+00 -5.898771031E+02  5.898771031E+02  0.000000000E+00  0.00000E+00  9.000E+00
      25     1     1     2     0     0 -1.418465331E+02  9.767186290E+01 -2.355103118E+02  3.174119385E+02  1.250000000E+02  0.00000E+00  9.000E+00
      25     1     1     2     0     0  1.224577069E+02 -1.391263815E+02 -2.076954757E+01  2.245181821E+02  1.250000000E+02  0.00000E+00  9.000E+00
      -1     1     1     2     0   501  1.938882615E+01  4.145451860E+01 -1.880274723E+02  1.935167539E+02  3.814697266E-06  0.00000E+00  9.000E+00
#rwgt            1           1   3.2666077794913942E-002           4      384179           0
</event>
<event>
      5   9999  3.79277E-02  3.88356E+00 -1.00000E+00  2.66530E-01
      21    -1     0     0   511   501  0.000000000E+00  0.000000000E+00  3.944039801E+02  3.944039801E+02  0.000000000E+00  0.00000E+00  9.000E+00
      21    -1     0     0   501   502  0.000000000E+00  0.000000000E+00 -1.598549617E+02  1.598549617E+02  0.000000000E+00  0.00000E+00  9.000E+00
      25     1     1     2     0     0 -9.872199859E+01 -2.953824810E+01  1.287235564E+02  2.069137382E+02  1.250000000E+02  0.00000E+00  9.000E+00
      25     1     1     2     0     0  9.608485114E+01  2.668736620E+01 -6.779401075E+01  1.736823020E+02  1.250000000E+02  0.00000E+00  9.000E+00
      21     1     1     2   511   502  2.637147449E+00  2.850881898E+00  1.736194727E+02  1.736629016E+02  1.907348633E-06  0.00000E+00  9.000E+00
#rwgt            1           1   4.4719632859859824E-002           4      384250           0
</event>
<event>
      5   9999  3.79277E-02  5.98982E+00 -1.00000E+00  2.25586E-01
      21    -1     0     0   502   501  0.000000000E+00  0.000000000E+00  7.807655990E+01  7.807655990E+01  0.000000000E+00  0.00000E+00  9.000E+00
       2    -1     0     0   501     0  0.000000000E+00  0.000000000E+00 -7.448853085E+02  7.448853085E+02  0.000000000E+00  0.00000E+00  9.000E+00
      25     1     1     2     0     0 -6.863633008E+00  3.767139593E+01 -2.020111247E+02  2.406236439E+02  1.250000000E+02  0.00000E+00  9.000E+00
      25     1     1     2     0     0  1.876251554E+00 -4.098862447E+01 -1.490274353E+01  1.324034721E+02  1.250000000E+02  0.00000E+00  9.000E+00
       2     1     1     2   502     0  4.987381453E+00  3.317228536E+00 -4.498948804E+02  4.499347524E+02  0.000000000E+00  0.00000E+00  9.000E+00
#rwgt            1           1  0.12238141257031138                4      385004           0
</event>
<event>
      5   9999  3.79277E-02  2.60628E+01 -1.00000E+00  1.57408E-01
      21    -1     0     0   502   501  0.000000000E+00  0.000000000E+00  9.072976696E+02  9.072976696E+02  0.000000000E+00  0.00000E+00  9.000E+00
      21    -1     0     0   501   511  0.000000000E+00  0.000000000E+00 -1.886206064E+02  1.886206064E+02  0.000000000E+00  0.00000E+00  9.000E+00
      25     1     1     2     0     0  1.692686007E+02  5.411148894E+01  3.476188468E+02  4.099314273E+02  1.250000000E+02  0.00000E+00  9.000E+00
      25     1     1     2     0     0 -1.558046166E+02 -7.642724441E+01  5.055841405E+02  5.489594934E+02  1.250000000E+02  0.00000E+00  9.000E+00
      21     1     1     2   502   511 -1.346398410E+01  2.231575547E+01 -1.345259242E+02  1.370273552E+02  4.672030912E-06  0.00000E+00  9.000E+00
#rwgt            1           1   3.4861260846589408E-002           4      385400           0
</event>
<event>
      5   9999  3.79277E-02  1.28410E+02 -1.00000E+00  1.19133E-01
      21    -1     0     0   502   501  0.000000000E+00  0.000000000E+00  4.971808683E+02  4.971808683E+02  0.000000000E+00  0.00000E+00  9.000E+00
      21    -1     0     0   501   512  0.000000000E+00  0.000000000E+00 -7.403979003E+02  7.403979003E+02  0.000000000E+00  0.00000E+00  9.000E+00
      25     1     1     2     0     0  2.109693280E+02  1.493942283E+02 -2.398924616E+02  3.741658535E+02  1.250000000E+02  0.00000E+00  9.000E+00
      25     1     1     2     0     0 -3.124986126E+02 -2.280135141E+02  3.188062389E+02  5.166313613E+02  1.250000000E+02  0.00000E+00  9.000E+00
      21     1     1     2   502   512  1.015292846E+02  7.861928584E+01 -3.221308093E+02  3.467815538E+02  3.814697266E-06  0.00000E+00  9.000E+00
#rwgt            2          11   1.3216126249778924E-003           4      385976           0
</event>
<event>
      5   9999  3.79277E-02  5.01916E+00 -1.00000E+00  2.38227E-01
      21    -1     0     0   502   511  0.000000000E+00  0.000000000E+00  3.360628550E+02  3.360628550E+02  0.000000000E+00  0.00000E+00  9.000E+00
      21    -1     0     0   501   502  0.000000000E+00  0.000000000E+00 -3.627502254E+02  3.627502254E+02  0.000000000E+00  0.00000E+00  9.000E+00
      25     1     1     2     0     0 -1.290776322E+02  1.628270955E+02  3.061457059E+01  2.444093904E+02  1.250000000E+02  0.00000E+00  9.000E+00
      25     1     1     2     0     0  1.240717654E+02 -1.624620753E+02 -1.996995329E+02  3.119176692E+02  1.250000000E+02  0.00000E+00  9.000E+00
      21     1     1     2   501   511  5.005866813E+00 -3.650202082E-01  1.423975919E+02  1.424860208E+02  0.000000000E+00  0.00000E+00  9.000E+00
#rwgt            1           1   3.9026375307206485E-002           4      385996           0
</event>
<event>
      5   9999  3.79277E-02  2.24899E+01 -1.00000E+00  1.62271E-01
      21    -1     0     0   502   501  0.000000000E+00  0.000000000E+00  5.170552294E+02  5.170552294E+02  0.000000000E+00  0.00000E+00  9.000E+00
      21    -1     0     0   501   512  0.000000000E+00  0.000000000E+00 -3.101647291E+02  3.101647291E+02  0.000000000E+00  0.00000E+00  9.000E+00
      25     1     1     2     0     0 -2.012682510E+02 -1.139030418E+02  3.168013064E+02  4.116684097E+02  1.250000000E+02  0.00000E+00  9.000E+00
      25     1     1     2     0     0  2.122701667E+02  9.428788178E+01  3.751252257E+01  2.664226298E+02  1.250000000E+02  0.00000E+00  9.000E+00
      21     1     1     2   502   512 -1.100191565E+01  1.961515998E+01 -1.474233287E+02  1.491289190E+02  0.000000000E+00  0.00000E+00  9.000E+00
#rwgt            1           1   4.0604428877708869E-002           4      386366           0
</event>
<event>
      5   9999  3.79277E-02  6.67495E+01 -1.00000E+00  1.32275E-01
      21    -1     0     0   502   501  0.000000000E+00  0.000000000E+00  4.992441389E+02  4.992441389E+02  0.000000000E+00  0.00000E+00  9.000E+00
      21    -1     0     0   511   502  0.000000000E+00  0.000000000E+00 -2.307372036E+02  2.307372036E+02  0.000000000E+00  0.00000E+00  9.000E+00
      25     1     1     2     0     0  1.195487424E+02  1.670130576E+02  1.547921610E+02  2.859560742E+02  1.250000000E+02  0.00000E+00  9.000E+00
      25     1     1     2     0     0 -5.308408438E+01 -1.608531791E+02  2.288448456E+02  3.109447356E+02  1.250000000E+02  0.00000E+00  9.000E+00
      21     1     1     2   511   501 -6.646465805E+01 -6.159878482E+00 -1.151300714E+02  1.330805328E+02  1.907348633E-06  0.00000E+00  9.000E+00
#rwgt            1           1   3.1487011222622721E-002           4      386595           0
</event>
<event>
      5   9999  3.79277E-02  4.61051E+01 -1.00000E+00  1.41115E-01
      21    -1     0     0   502   501  0.000000000E+00  0.000000000E+00  1.548036090E+02  1.548036090E+02  0.000000000E+00  0.00000E+00  9.000E+00
      21    -1     0     0   512   502  0.000000000E+00  0.000000000E+00 -8.978083064E+02  8.978083064E+02  0.000000000E+00  0.00000E+00  9.000E+00
      25     1     1     2     0     0 -8.787087754E+01  1.992249731E+02 -1.356088195E+02  2.853535228E+02  1.250000000E+02  0.00000E+00  9.000E+00
      25     1     1     2     0     0  4.460701984E+01 -2.151597549E+02 -1.238311801E+02  2.815007416E+02  1.250000000E+02  0.00000E+00  9.000E+00
      21     1     1     2   512   501  4.326385771E+01  1.593478178E+01 -4.835646978E+02  4.857576511E+02  5.394796609E-06  0.00000E+00  9.000E+00
#rwgt            1           1   4.0338342455209494E-002           4      386736           0
</event>
<event>
      5   9999  3.79277E-02  1.05853E+02 -1.00000E+00  1.22727E-01
      21    -1     0     0   502   511  0.000000000E+00  0.000000000E+00  3.972121351E+02  3.972121351E+02  0.000000000E+00  0.00000E+00  9.000E+00
      21    -1     0     0   501   502  0.000000000E+00  0.000000000E+00 -1.120162101E+03  1.120162101E+03  0.000000000E+00  0.00000E+00  9.000E+00
      25     1     1     2     0     0  1.358703221E+02  1.481366506E+02 -8.905999655E+02  9.215196743E+02  1.250000000E+02  0.00000E+00  9.000E+00
      25     1     1     2     0     0 -1.372030189E+02 -4.229178886E+01 -1.617885795E+02  2.498275571E+02  1.250000000E+02  0.00000E+00  9.000E+00
      21     1     1     2   501   511  1.332696775E+00 -1.058448617E+02  3.294385789E+02  3.460270049E+02  0.000000000E+00  0.00000E+00  9.000E+00
#rwgt            1           1   6.0613557221615356E-002           4      386893           0
</event>
<event>
      5   9999  3.79277E-02  7.79024E+00 -1.00000E+00  2.09191E-01
      21    -1     0     0   512   501  0.000000000E+00  0.000000000E+00  5.394108410E+01  5.394108410E+01  0.000000000E+00  0.00000E+00  9.000E+00
      21    -1     0     0   501   502  0.000000000E+00  0.000000000E+00 -6.430838119E+02  6.430838119E+02  0.000000000E+00  0.00000E+00  9.000E+00
      25     1     1     2     0     0 -9.927284598E+01 -5.624658718E+01 -1.775729195E+02  2.453078031E+02  1.250000000E+02  0.00000E+00  9.000E+00
      25     1     1     2     0     0  1.030526323E+02  4.943475466E+01 -4.102183814E+02  4.438105006E+02  1.250000000E+02  0.00000E+00  9.000E+00
      21     1     1     2   512   502 -3.779786327E+00  6.811832526E+00 -1.351426850E+00  7.906592286E+00  1.064155762E-07  0.00000E+00  9.000E+00
#rwgt            1           1   3.6352612036680207E-002           4      386966           0
</event>
<event>
      5   9999  3.79277E-02  1.00773E+01 -1.00000E+00  1.95372E-01
      21    -1     0     0   502   511  0.000000000E+00  0.000000000E+00  2.122778441E+02  2.122778441E+02  0.000000000E+00  0.00000E+00  9.000E+00
      21    -1     0     0   501   502  0.000000000E+00  0.000000000E+00 -1.035009661E+03  1.035009661E+03  0.000000000E+00  0.00000E+00  9.000E+00
      25     1     1     2     0     0 -2.068572061E+02 -2.677096240E+00 -3.027668024E+02  3.874142579E+02  1.250000000E+02  0.00000E+00  9.000E+00
      25     1     1     2     0     0  2.087474896E+02  1.257547856E+01 -6.682334854E+02  7.112627139E+02  1.250000000E+02  0.00000E+00  9.000E+00
      21     1     1     2   501   511 -1.890283499E+00 -9.898382324E+00  1.482684709E+02  1.486105333E+02  0.000000000E+00  0.00000E+00  9.000E+00
#rwgt            1           1   3.6951050407106903E-002           4      387211           0
</event>
<event>
      5   9999  3.79277E-02  2.24483E+01 -1.00000E+00  1.62335E-01
      21    -1     0     0   512   501  0.000000000E+00  0.000000000E+00  8.081262783E+01  8.081262783E+01  0.000000000E+00  0.00000E+00  9.000E+00
      21    -1     0     0   501   502  0.000000000E+00  0.000000000E+00 -1.508496459E+03  1.508496459E+03  0.000000000E+00  0.00000E+00  9.000E+00
      25     1     1     2     0     0 -2.264735636E+01 -8.903093628E+00 -1.371483330E+03  1.377382914E+03  1.250000000E+02  0.00000E+00  9.000E+00
      25     1     1     2     0     0  7.186810328E+00 -7.372581130E+00 -1.015139810E+02  1.613570374E+02  1.250000000E+02  0.00000E+00  9.000E+00
      21     1     1     2   512   502  1.546054604E+01  1.627567476E+01  4.531347934E+01  5.056913567E+01  2.939421655E-06  0.00000E+00  9.000E+00
#rwgt            1           1   1.7046913651161844E-002           4      387451           0
</event>
<event>
      5   9999  3.79277E-02  1.22311E+02 -1.00000E+00  1.20018E-01
      21    -1     0     0   502   501  0.000000000E+00  0.000000000E+00  2.466161156E+02  2.466161156E+02  0.000000000E+00  0.00000E+00  9.000E+00
      21    -1     0     0   501   511  0.000000000E+00  0.000000000E+00 -3.567859599E+02  3.567859599E+02  0.000000000E+00  0.00000E+00  9.000E+00
      25     1     1     2     0     0 -8.221323782E+01 -5.680484343E+01  1.457684255E+02  2.164699531E+02  1.250000000E+02  0.00000E+00  9.000E+00
      25     1     1     2     0     0  7.030661718E+01 -6.492557619E+01 -9.181344497E+01  1.822445048E+02  1.250000000E+02  0.00000E+00  9.000E+00
      21     1     1     2   502   511  1.190662064E+01  1.217304196E+02 -1.641248248E+02  2.046876176E+02  2.697398305E-06  0.00000E+00  9.000E+00
#rwgt            1           1   4.2888182163830939E-002           4      387569           0
</event>
<event>
      5   9999  3.79277E-02  1.62666E+02 -1.00000E+00  1.15015E-01
      21    -1     0     0   512   501  0.000000000E+00  0.000000000E+00  3.683434212E+02  3.683434212E+02  0.000000000E+00  0.00000E+00  9.000E+00
      21    -1     0     0   501   502  0.000000000E+00  0.000000000E+00 -5.002247427E+02  5.002247427E+02  0.000000000E+00  0.00000E+00  9.000E+00
      25     1     1     2     0     0 -2.743206505E+02 -4.435582110E+01 -2.386907938E+02  3.870627251E+02  1.250000000E+02  0.00000E+00  9.000E+00
      25     1     1     2     0     0  1.830791193E+02  1.790233613E+02 -3.499678489E+00  2.849641654E+02  1.250000000E+02  0.00000E+00  9.000E+00
      21     1     1     2   512   502  9.124153115E+01 -1.346675402E+02  1.103091508E+02  1.965412734E+02  1.348699152E-06  0.00000E+00  9.000E+00
#rwgt            1           1   6.8232905961147186E-002           4      387652           0
</event>
<event>
      5   9999  3.79277E-02  5.31497E+01 -1.00000E+00  1.37578E-01
      21    -1     0     0   502   501  0.000000000E+00  0.000000000E+00  1.246085324E+03  1.246085324E+03  0.000000000E+00  0.00000E+00  9.000E+00
      21    -1     0     0   501   511  0.000000000E+00  0.000000000E+00 -4.988604018E+01  4.988604018E+01  0.000000000E+00  0.00000E+00  9.000E+00
      25     1     1     2     0     0 -9.139015158E+01  3.929951539E+01  1.467687735E+02  2.169393569E+02  1.250000000E+02  0.00000E+00  9.000E+00
      25     1     1     2     0     0  7.515164318E+01 -8.990784688E+01  9.586180816E+02  9.738094356E+02  1.250000000E+02  0.00000E+00  9.000E+00
      21     1     1     2   502   511  1.623850840E+01  5.060833149E+01  9.081242841E+01  1.052225714E+02  1.348699152E-06  0.00000E+00  9.000E+00
#rwgt            1           1   4.0789214988294409E-002           4      387738           0
</event>
<event>
      5   9999  3.79277E-02  3.45329E+01 -1.00000E+00  1.48913E-01
      21    -1     0     0   502   512  0.000000000E+00  0.000000000E+00  3.216550848E+02  3.216550848E+02  0.000000000E+00  0.00000E+00  9.000E+00
      21    -1     0     0   501   502  0.000000000E+00  0.000000000E+00 -2.131627895E+02  2.131627895E+02  0.000000000E+00  0.00000E+00  9.000E+00
      25     1     1     2     0     0  1.145269511E+02  4.066461480E+00 -1.177768681E+02  2.064687611E+02  1.250000000E+02  0.00000E+00  9.000E+00
      25     1     1     2     0     0 -8.103635607E+01  4.353740261E+00  6.356853401E+01  1.620240864E+02  1.250000000E+02  0.00000E+00  9.000E+00
      21     1     1     2   501   512 -3.349059508E+01 -8.420201741E+00  1.627006294E+02  1.663250269E+02  1.907348633E-06  0.00000E+00  9.000E+00
#rwgt            1           1   4.8282344633183337E-002           4      387839           0
</event>
<event>
      5   9999  3.79277E-02  2.18289E+01 -1.00000E+00  1.63293E-01
      21    -1     0     0   502   511  0.000000000E+00  0.000000000E+00  4.191550349E+02  4.191550349E+02  0.000000000E+00  0.00000E+00  9.000E+00
      21    -1     0     0   501   502  0.000000000E+00  0.000000000E+00 -1.464618505E+03  1.464618505E+03  0.000000000E+00  0.00000E+00  9.000E+00
      25     1     1     2     0     0  3.532851274E+02 -5.577815362E+02 -8.813354746E+02  1.108290504E+03  1.250000000E+02  0.00000E+00  9.000E+00
      25     1     1     2     0     0 -3.358346442E+02  5.446673137E+02 -2.413662317E+02  6.952194249E+02  1.250000000E+02  0.00000E+00  9.000E+00
      21     1     1     2   501   511 -1.745048319E+01  1.311422248E+01  7.723823582E+01  8.026361110E+01  9.536743164E-07  0.00000E+00  9.000E+00
#rwgt            1           1   2.3843202521582962E-002           4      388011           0
</event>
<event>
      5   9999  3.79277E-02  4.35937E+01 -1.00000E+00  1.42560E-01
       1    -1     0     0   502     0  0.000000000E+00  0.000000000E+00  6.780582397E+02  6.780582397E+02  0.000000000E+00  0.00000E+00  9.000E+00
      21    -1     0     0   501   502  0.000000000E+00  0.000000000E+00 -7.363130544E+01  7.363130544E+01  0.000000000E+00  0.00000E+00  9.000E+00
      25     1     1     2     0     0 -9.698269575E+01  7.217512654E+01  2.366241580E+02  2.936509566E+02  1.250000000E+02  0.00000E+00  9.000E+00
      25     1     1     2     0     0  5.527241950E+01 -8.485040945E+01  1.060527824E+02  1.926832245E+02  1.250000000E+02  0.00000E+00  9.000E+00
       1     1     1     2   501     0  4.171027625E+01  1.267528291E+01  2.617499939E+02  2.653553641E+02  0.000000000E+00  0.00000E+00  9.000E+00
#rwgt            1           1   4.6119470853341539E-002           4      388334           0
</event>
<event>
      5   9999  3.79277E-02  3.09182E+01 -1.00000E+00  1.52136E-01
      21    -1     0     0   502   501  0.000000000E+00  0.000000000E+00  4.966322292E+01  4.966322292E+01  0.000000000E+00  0.00000E+00  9.000E+00
       2    -1     0     0   501     0  0.000000000E+00  0.000000000E+00 -2.094671935E+03  2.094671935E+03  0.000000000E+00  0.00000E+00  9.000E+00
      25     1     1     2     0     0  1.759456623E+02 -1.980041213E+02 -1.385571527E+03  1.416190653E+03  1.250000000E+02  0.00000E+00  9.000E+00
      25     1     1     2     0     0 -1.488400887E+02  1.831305495E+02 -5.115540554E+02  5.770638801E+02  1.250000000E+02  0.00000E+00  9.000E+00
       2     1     1     2   502     0 -2.710557365E+01  1.487357182E+01 -1.478831299E+02  1.510806254E+02  0.000000000E+00  0.00000E+00  9.000E+00
#rwgt            1           1   3.1143000460064803E-002           4      388497           0
</event>
<event>
      5   9999  3.79277E-02  2.03908E+02 -1.00000E+00  1.11343E-01
      21    -1     0     0   502   501  0.000000000E+00  0.000000000E+00  1.209863282E+03  1.209863282E+03  0.000000000E+00  0.00000E+00  9.000E+00
      21    -1     0     0   501   511  0.000000000E+00  0.000000000E+00 -2.053331969E+02  2.053331969E+02  0.000000000E+00  0.00000E+00  9.000E+00
      25     1     1     2     0     0 -5.606629198E+01  4.296562395E+01  8.395373914E+02  8.517261916E+02  1.250000000E+02  0.00000E+00  9.000E+00
      25     1     1     2     0     0 -1.477513654E+02 -3.688886653E+01  2.698992086E+02  3.341584015E+02  1.250000000E+02  0.00000E+00  9.000E+00
      21     1     1     2   502   511  2.038176573E+02 -6.076757416E+00 -1.049065144E+02  2.293118863E+02  3.568322551E-06  0.00000E+00  9.000E+00
#rwgt            1           1   2.0128810760864476E-002           4      388604           0
</event>
<event>
      5   9999  3.79277E-02  4.37237E+01 -1.00000E+00  1.42483E-01
      21    -1     0     0   502   512  0.000000000E+00  0.000000000E+00  5.983521553E+02  5.983521553E+02  0.000000000E+00  0.00000E+00  9.000E+00
      21    -1     0     0   501   502  0.000000000E+00  0.000000000E+00 -2.286126320E+02  2.286126320E+02  0.000000000E+00  0.00000E+00  9.000E+00
      25     1     1     2     0     0 -9.302435024E+01 -2.046090695E+02 -1.603139372E+01  2.576827636E+02  1.250000000E+02  0.00000E+00  9.000E+00
      25     1     1     2     0     0  6.070307001E+01  1.751625760E+02  4.798699600E+01  2.286800003E+02  1.250000000E+02  0.00000E+00  9.000E+00
      21     1     1     2   501   512  3.232128023E+01  2.944649347E+01  3.377839210E+02  3.406020235E+02  3.814697266E-06  0.00000E+00  9.000E+00
#rwgt            1           1   3.8855220809069654E-002           4      388706           0
</event>
<event>
      5   9999  3.79277E-02  5.59506E+01 -1.00000E+00  1.36345E-01
      21    -1     0     0   502   501  0.000000000E+00  0.000000000E+00  2.159915755E+02  2.159915755E+02  0.000000000E+00  0.00000E+00  9.000E+00
       1    -1     0     0   501     0  0.000000000E+00  0.000000000E+00 -9.429517445E+02  9.429517445E+02  0.000000000E+00  0.00000E+00  9.000E+00
      25     1     1     2     0     0 -8.910736515E+01 -6.476033674E+01  4.830739389E+01  1.734722688E+02  1.250000000E+02  0.00000E+00  9.000E+00
      25     1     1     2     0     0  6.571060764E+01  1.155841927E+02  2.416498599E+01  1.840829599E+02  1.250000000E+02  0.00000E+00  9.000E+00
       1     1     1     2   502     0  2.339675752E+01 -5.082385597E+01 -7.994325489E+02  8.013880913E+02  1.868812365E-05  0.00000E+00  9.000E+00
#rwgt            1           1   3.6479413333789359E-002           4      388921           0
</event>
<event>
      5   9999  3.79277E-02  5.83399E+01 -1.00000E+00  1.35358E-01
      21    -1     0     0   502   511  0.000000000E+00  0.000000000E+00  1.545085549E+03  1.545085549E+03  0.000000000E+00  0.00000E+00  9.000E+00
      21    -1     0     0   501   502  0.000000000E+00  0.000000000E+00 -6.474516444E+01  6.474516444E+01  0.000000000E+00  0.00000E+00  9.000E+00
      25     1     1     2     0     0 -2.500611085E+01 -2.120262728E+02  3.660119646E+02  4.417807195E+02  1.250000000E+02  0.00000E+00  9.000E+00
      25     1     1     2     0     0  7.228020226E+01  2.462125116E+02  8.273520083E+02  8.752036186E+02  1.250000000E+02  0.00000E+00  9.000E+00
      21     1     1     2   501   511 -4.727409141E+01 -3.418623881E+01  2.869764113E+02  2.928463749E+02  0.000000000E+00  0.00000E+00  9.000E+00
#rwgt            1           1   3.6558852524711742E-002           4      389072           0
</event>
<event>
      5   9999  3.79277E-02  1.59462E+01 -1.00000E+00  1.74917E-01
      21    -1     0     0   502   501  0.000000000E+00  0.000000000E+00  3.613877155E+02  3.613877155E+02  0.000000000E+00  0.00000E+00  9.000E+00
      21    -1     0     0   512   502  0.000000000E+00  0.000000000E+00 -3.685609659E+02  3.685609659E+02  0.000000000E+00  0.00000E+00  9.000E+00
      25     1     1     2     0     0  2.495362121E+02  6.251864252E+01  2.108553502E+02  3.553334779E+02  1.250000000E+02  0.00000E+00  9.000E+00
      25     1     1     2     0     0 -2.534544689E+02 -4.706136165E+01 -2.154414200E+02  3.584605209E+02  1.250000000E+02  0.00000E+00  9.000E+00
      21     1     1     2   512   501  3.918256840E+00 -1.545728087E+01 -2.587180631E+00  1.615468267E+01  2.795705652E-07  0.00000E+00  9.000E+00
#rwgt            1           1   4.1498699184328726E-002           4      389243           0
</event>
<event>
      5   9999  3.79277E-02  1.48360E+01 -1.00000E+00  1.77834E-01
      21    -1     0     0   502   511  0.000000000E+00  0.000000000E+00  7.216987655E+02  7.216987655E+02  0.000000000E+00  0.00000E+00  9.000E+00
      21    -1     0     0   501   502  0.000000000E+00  0.000000000E+00 -9.338402256E+01  9.338402256E+01  0.000000000E+00  0.00000E+00  9.000E+00
      25     1     1     2     0     0 -1.173282248E+02  1.149041309E+02  8.352104060E+01  2.226423946E+02  1.250000000E+02  0.00000E+00  9.000E+00
      25     1     1     2     0     0  1.308553160E+02 -1.209972406E+02  5.027489475E+02  5.478548623E+02  1.250000000E+02  0.00000E+00  9.000E+00
      21     1     1     2   501   511 -1.352709114E+01  6.093109639E+00  4.204475488E+01  4.458553120E+01  8.259061849E-07  0.00000E+00  9.000E+00
#rwgt            1           1   4.0710267309636956E-002           4      389514           0
</event>
<event>
      5   9999  3.79277E-02  2.62130E+01 -1.00000E+00  1.57225E-01
      21    -1     0     0   502   501  0.000000000E+00  0.000000000E+00  1.512977670E+03  1.512977670E+03  0.000000000E+00  0.00000E+00  9.000E+00
       3    -1     0     0   501     0  0.000000000E+00  0.000000000E+00 -1.300875631E+02  1.300875631E+02  0.000000000E+00  0.00000E+00  9.000E+00
      25     1     1     2     0     0  8.500760869E+01 -6.255693903E+01  3.569052711E+02  3.926143613E+02  1.250000000E+02  0.00000E+00  9.000E+00
      25     1     1     2     0     0 -9.179295861E+01  3.723738178E+01  1.131011913E+03  1.142202048E+03  1.250000000E+02  0.00000E+00  9.000E+00
       3     1     1     2   502     0  6.785349919E+00  2.531955724E+01 -1.050270773E+02  1.082488241E+02  1.907348633E-06  0.00000E+00  9.000E+00
#rwgt            1           1   5.7395247194181799E-002           4      389730           0
</event>
<event>
      5   9999  3.79277E-02  1.84792E+02 -1.00000E+00  1.12913E-01
      21    -1     0     0   502   501  0.000000000E+00  0.000000000E+00  2.985791463E+02  2.985791463E+02  0.000000000E+00  0.00000E+00  9.000E+00
      21    -1     0     0   501   511  0.000000000E+00  0.000000000E+00 -2.898533909E+02  2.898533909E+02  0.000000000E+00  0.00000E+00  9.000E+00
      25     1     1     2     0     0  3.760066320E+01 -7.998210329E+01 -6.763580266E+01  1.673635221E+02  1.250000000E+02  0.00000E+00  9.000E+00
      25     1     1     2     0     0  1.468726102E+02  6.913748762E+01  1.110612953E+02  2.330475641E+02  1.250000000E+02  0.00000E+00  9.000E+00
      21     1     1     2   502   511 -1.844732734E+02  1.084461567E+01 -3.469973725E+01  1.880214510E+02  2.821006671E-06  0.00000E+00  9.000E+00
#rwgt            2          11   1.7933252478726739E-003           4      389908           0
</event>
<event>
      5   9999  3.79277E-02  6.21855E+01 -1.00000E+00  1.33878E-01
      21    -1     0     0   502   512  0.000000000E+00  0.000000000E+00  3.556168695E+02  3.556168695E+02  0.000000000E+00  0.00000E+00  9.000E+00
      21    -1     0     0   501   502  0.000000000E+00  0.000000000E+00 -6.853812860E+02  6.853812860E+02  0.000000000E+00  0.00000E+00  9.000E+00
      25     1     1     2     0     0 -7.417541316E+01  1.008567807E+02 -2.441008202E+02  3.014702184E+02  1.250000000E+02  0.00000E+00  9.000E+00
      25     1     1     2     0     0  4.368362841E+01 -1.550535207E+02 -3.840014262E+02  4.347780457E+02  1.250000000E+02  0.00000E+00  9.000E+00
      21     1     1     2   501   512  3.049178475E+01  5.419674004E+01  2.983378299E+02  3.047498914E+02  3.814697266E-06  0.00000E+00  9.000E+00
#rwgt            1           1   1.7538625683765355E-002           4      389928           0
</event>
<event>
      5   9999  3.79277E-02  3.80068E+01 -1.00000E+00  1.46230E-01
       2    -1     0     0   502     0  0.000000000E+00  0.000000000E+00  9.278751232E+02  9.278751232E+02  0.000000000E+00  0.00000E+00  9.000E+00
      21    -1     0     0   501   502  0.000000000E+00  0.000000000E+00 -8.854482068E+02  8.854482068E+02  0.000000000E+00  0.00000E+00  9.000E+00
      25     1     1     2     0     0  4.430178479E+01  8.576897691E+01 -8.245940519E+02  8.395828225E+02  1.250000000E+02  0.00000E+00  9.000E+00
      25     1     1     2     0     0 -7.619349781E+01 -1.064435306E+02  1.019706266E+02  2.077466799E+02  1.250000000E+02  0.00000E+00  9.000E+00
       2     1     1     2   501     0  3.189171302E+01  2.067455369E+01  7.650503417E+02  7.659938276E+02  1.078959322E-05  0.00000E+00  9.000E+00
#rwgt            1           1   4.1359990231222277E-002           4      390224           0
</event>
<event>
      5   9999  3.79277E-02  1.58134E+01 -1.00000E+00  1.75250E-01
      21    -1     0     0   511   501  0.000000000E+00  0.000000000E+00  1.373163330E+03  1.373163330E+03  0.000000000E+00  0.00000E+00  9.000E+00
      21    -1     0     0   501   502  0.000000000E+00  0.000000000E+00 -4.365843133E+01  4.365843133E+01  0.000000000E+00  0.00000E+00  9.000E+00
      25     1     1     2     0     0 -5.015533355E+01  2.419952337E+01  9.279527717E+01  1.653394626E+02  1.250000000E+02  0.00000E+00  9.000E+00
      25     1     1     2     0     0  6.100559006E+01 -3.570327834E+01  7.019091825E+02  7.164481186E+02  1.250000000E+02  0.00000E+00  9.000E+00
      21     1     1     2   511   502 -1.085025652E+01  1.150375497E+01  5.348004387E+02  5.350341799E+02  0.000000000E+00  0.00000E+00  9.000E+00
#rwgt            1           1   4.0671096183282761E-002           4      390451           0
</event>
<event>
      5   9999  3.79277E-02  3.79332E+01 -1.00000E+00  1.46284E-01
      21    -1     0     0   502   512  0.000000000E+00  0.000000000E+00  1.052808796E+03  1.052808796E+03  0.000000000E+00  0.00000E+00  9.000E+00
      21    -1     0     0   501   502  0.000000000E+00  0.000000000E+00 -5.491219838E+01  5.491219838E+01  0.000000000E+00  0.00000E+00  9.000E+00
      25     1     1     2     0     0  7.492124497E+01 -4.799152833E+01  9.596157501E+01  1.809696207E+02  1.250000000E+02  0.00000E+00  9.000E+00
      25     1     1     2     0     0 -1.127411553E+02  4.506225972E+01  7.068965141E+02  7.280582786E+02  1.250000000E+02  0.00000E+00  9.000E+00
      21     1     1     2   501   512  3.781991038E+01  2.929268616E+00  1.950385081E+02  1.986930947E+02  4.672030912E-06  0.00000E+00  9.000E+00
#rwgt            1           1   2.4721800937419373E-002           4      390842           0
</event>
<event>
      5   9999  3.79277E-02  5.67905E+01 -1.00000E+00  1.35992E-01
      21    -1     0     0   511   501  0.000000000E+00  0.000000000E+00  1.006424117E+02  1.006424117E+02  0.000000000E+00  0.00000E+00  9.000E+00
      21    -1     0     0   501   502  0.000000000E+00  0.000000000E+00 -6.303073792E+02  6.303073792E+02  0.000000000E+00  0.00000E+00  9.000E+00
      25     1     1     2     0     0  2.922914910E+01  2.619710315E+01  9.917515618E-01  1.310214293E+02  1.250000000E+02  0.00000E+00  9.000E+00
      25     1     1     2     0     0 -3.005652204E+01 -8.298155961E+01 -5.201291666E+02  5.421703456E+02  1.250000000E+02  0.00000E+00  9.000E+00
      21     1     1     2   511   502  8.273729438E-01  5.678445646E+01 -1.052755257E+01  5.775801594E+01  9.386548846E-07  0.00000E+00  9.000E+00
#rwgt            1           1   4.8394456454699281E-002           4      390923           0
</event>
<event>
      5   9999  3.79277E-02  2.40647E+01 -1.00000E+00  1.60001E-01
      21    -1     0     0   502   512  0.000000000E+00  0.000000000E+00  3.898516663E+02  3.898516663E+02  0.000000000E+00  0.00000E+00  9.000E+00
      21    -1     0     0   501   502  0.000000000E+00  0.000000000E+00 -1.569614338E+02  1.569614338E+02  0.000000000E+00  0.00000E+00  9.000E+00
      25     1     1     2     0     0 -8.236134318E+01  1.019787009E+02 -5.864745195E+01  1.903879458E+02  1.250000000E+02  0.00000E+00  9.000E+00
      25     1     1     2     0     0  6.218922665E+01 -1.151011021E+02  2.595153135E+02  3.163683953E+02  1.250000000E+02  0.00000E+00  9.000E+00
      21     1     1     2   501   512  2.017211653E+01  1.312240123E+01  3.202237088E+01  4.005675893E+01  6.743495762E-07  0.00000E+00  9.000E+00
#rwgt            1           1   3.6327844983277693E-002           4      391040           0
</event>
<event>
      5   9999  3.79277E-02  2.13700E+01 -1.00000E+00  1.64029E-01
      21    -1     0     0   502   511  0.000000000E+00  0.000000000E+00  1.044729235E+03  1.044729235E+03  0.000000000E+00  0.00000E+00  9.000E+00
      21    -1     0     0   501   502  0.000000000E+00  0.000000000E+00 -4.504169847E+01  4.504169847E+01  0.000000000E+00  0.00000E+00  9.000E+00
      25     1     1     2     0     0 -3.650183985E+01  1.200721891E+02  2.024526483E+02  2.690014679E+02  1.250000000E+02  0.00000E+00  9.000E+00
      25     1     1     2     0     0  5.066281389E+01 -1.040676754E+02  7.469763555E+02  7.661563009E+02  1.250000000E+02  0.00000E+00  9.000E+00
      21     1     1     2   501   511 -1.416097403E+01 -1.600451371E+01  5.025853310E+01  5.461316502E+01  0.000000000E+00  0.00000E+00  9.000E+00
#rwgt            1           1   3.4652478486711318E-002           4      391196           0
</event>
<event>
      5   9999  3.79277E-02  1.14209E+01 -1.00000E+00  1.89315E-01
      21    -1     0     0   512   501  0.000000000E+00  0.000000000E+00  1.379793811E+03  1.379793811E+03  0.000000000E+00  0.00000E+00  9.000E+00
      21    -1     0     0   501   502  0.000000000E+00  0.000000000E+00 -2.578343420E+01  2.578343420E+01  0.000000000E+00  0.00000E+00  9.000E+00
      25     1     1     2     0     0 -4.694648681E+01 -3.753444729E+01  2.953096667E+02  3.262600291E+02  1.250000000E+02  0.00000E+00  9.000E+00
      25     1     1     2     0     0  5.399847687E+01  2.855082340E+01  4.616760206E+02  4.821832981E+02  1.250000000E+02  0.00000E+00  9.000E+00
      21     1     1     2   512   502 -7.051990064E+00  8.983623893E+00  5.970246892E+02  5.971339176E+02  7.629394531E-06  0.00000E+00  9.000E+00
#rwgt            1           1   4.7825998670673657E-002           4      391450           0
</event>
<event>
      5   9999  3.79277E-02  4.85113E+01 -1.00000E+00  1.39829E-01
      -3    -1     0     0     0   501  0.000000000E+00  0.000000000E+00  4.116288434E+02  4.116288434E+02  0.000000000E+00  0.00000E+00  9.000E+00
      21    -1     0     0   501   502  0.000000000E+00  0.000000000E+00 -1.917876834E+02  1.917876834E+02  0.000000000E+00  0.00000E+00  9.000E+00
      25     1     1     2     0     0  3.212569208E+01  7.366051193E+01 -1.263909619E+01  1.491397930E+02  1.250000000E+02  0.00000E+00  9.000E+00
      25     1     1     2     0     0 -7.595196834E+01 -9.445970882E+01 -3.905488918E+01  1.784422104E+02  1.250000000E+02  0.00000E+00  9.000E+00
      -3     1     1     2     0   502  4.382627626E+01  2.079919689E+01  2.715351454E+02  2.758345234E+02  3.814697266E-06  0.00000E+00  9.000E+00
#rwgt            1           1   5.9712370594649122E-002           4      391605           0
</event>
<event>
      5   9999  3.79277E-02  1.35522E+01 -1.00000E+00  1.81640E-01
      21    -1     0     0   511   501  0.000000000E+00  0.000000000E+00  1.211280030E+02  1.211280030E+02  0.000000000E+00  0.00000E+00  9.000E+00
      21    -1     0     0   501   502  0.000000000E+00  0.000000000E+00 -6.923011587E+02  6.923011587E+02  0.000000000E+00  0.00000E+00  9.000E+00
      25     1     1     2     0     0 -2.084956067E+02  1.415423314E+02 -1.999647958E+02  3.451312347E+02  1.250000000E+02  0.00000E+00  9.000E+00
      25     1     1     2     0     0  1.998549488E+02 -1.311020117E+02 -3.636991915E+02  4.528044169E+02  1.250000000E+02  0.00000E+00  9.000E+00
      21     1     1     2   511   502  8.640657914E+00 -1.044031972E+01 -7.509168346E+00  1.549351007E+01  1.460009660E-07  0.00000E+00  9.000E+00
#rwgt            1           1   3.4418485576364011E-002           4      391722           0
</event>
<event>
      5   9999  3.79277E-02  6.24846E+01 -1.00000E+00  1.33768E-01
      21    -1     0     0   502   501  0.000000000E+00  0.000000000E+00  9.562522824E+01  9.562522824E+01  0.000000000E+00  0.00000E+00  9.000E+00
      21    -1     0     0   501   512  0.000000000E+00  0.000000000E+00 -5.681293514E+02  5.681293514E+02  0.000000000E+00  0.00000E+00  9.000E+00
      25     1     1     2     0     0  1.220118655E+02 -3.949013522E+00 -9.705571292E+01  1.998682102E+02  1.250000000E+02  0.00000E+00  9.000E+00
      25     1     1     2     0     0 -1.593218380E+02  5.407181346E+01 -2.990608355E+02  3.651980181E+02  1.250000000E+02  0.00000E+00  9.000E+00
      21     1     1     2   502   512  3.730997248E+01 -5.012279994E+01 -7.638757474E+01  9.868835136E+01  9.536743164E-07  0.00000E+00  9.000E+00
#rwgt            1           1   3.3458782378382644E-002           4      392067           0
</event>
<event>
      5   9999  3.79277E-02  1.41066E+02 -1.00000E+00  1.17460E-01
      21    -1     0     0   502   501  0.000000000E+00  0.000000000E+00  1.107594436E+03  1.107594436E+03  0.000000000E+00  0.00000E+00  9.000E+00
       1    -1     0     0   501     0  0.000000000E+00  0.000000000E+00 -1.374299970E+03  1.374299970E+03  0.000000000E+00  0.00000E+00  9.000E+00
      25     1     1     2     0     0 -4.253118138E+01 -3.991021077E+01  3.741844157E+02  3.987990763E+02  1.250000000E+02  0.00000E+00  9.000E+00
      25     1     1     2     0     0  1.348029209E+02  1.466135014E+02  6.981292228E+02  7.366659746E+02  1.250000000E+02  0.00000E+00  9.000E+00
       1     1     1     2   502     0 -9.227173957E+01 -1.067032906E+02 -1.339019172E+03  1.346429355E+03  2.157918644E-05  0.00000E+00  9.000E+00
#rwgt            1           1   1.7320640934571620E-002           4      392264           0
</event>
<event>
      5   9999  3.79277E-02  1.75450E+01 -1.00000E+00  1.71203E-01
      21    -1     0     0   502   501  0.000000000E+00  0.000000000E+00  1.774384087E+03  1.774384087E+03  0.000000000E+00  0.00000E+00  9.000E+00
      21    -1     0     0   501   511  0.000000000E+00  0.000000000E+00 -3.047239894E+01  3.047239894E+01  0.000000000E+00  0.00000E+00  9.000E+00
      25     1     1     2     0     0 -8.549704992E+01  2.295951461E-01  1.309348788E+03  1.318077785E+03  1.250000000E+02  0.00000E+00  9.000E+00
      25     1     1     2     0     0  9.825460457E+01  1.181499349E+01  4.403345536E+02  4.683087448E+02  1.250000000E+02  0.00000E+00  9.000E+00
      21     1     1     2   502   511 -1.275755465E+01 -1.204458863E+01 -5.771653207E+00  1.846995660E+01  6.743495762E-07  0.00000E+00  9.000E+00
#rwgt            1           1  0.12606479617201444                4      392299           0
</event>
<event>
      5   9999 -3.79277E-02  1.21568E+01 -1.00000E+00  1.86437E-01
      21    -1     0     0   512   501  0.000000000E+00  0.000000000E+00  6.709126127E+02  6.709126127E+02  0.000000000E+00  0.00000E+00  9.000E+00
      21    -1     0     0   501   502  0.000000000E+00  0.000000000E+00 -1.009565325E+02  1.009565325E+02  0.000000000E+00  0.00000E+00  9.000E+00
      25     1     1     2     0     0 -1.380178173E+02  6.990245254E+01  5.360421244E+01  2.059943746E+02  1.250000000E+02  0.00000E+00  9.000E+00
      25     1     1     2     0     0  1.396223971E+02 -5.785201139E+01  3.677888822E+02  4.168152239E+02  1.250000000E+02  0.00000E+00  9.000E+00
      21     1     1     2   512   502 -1.604579751E+00 -1.205044115E+01  1.485629855E+02  1.490595467E+02  2.697398305E-06  0.00000E+00  9.000E+00
#rwgt            1           1  -2.8694116357021474E-002           4      392482           0
</event>
<event>
      5   9999  3.79277E-02  2.25643E+01 -1.00000E+00  1.62159E-01
      21    -1     0     0   502   511  0.000000000E+00  0.000000000E+00  2.377708386E+03  2.377708386E+03  0.000000000E+00  0.00000E+00  9.000E+00
      21    -1     0     0   501   502  0.000000000E+00  0.000000000E+00 -3.172102724E+02  3.172102724E+02  0.000000000E+00  0.00000E+00  9.000E+00
      25     1     1     2     0     0  2.292343683E+01  2.289957690E+02 -7.139432856E+00  2.619933542E+02  1.250000000E+02  0.00000E+00  9.000E+00
      25     1     1     2     0     0 -3.036398902E+01 -2.502980201E+02 -7.414686065E+01  2.910220397E+02  1.250000000E+02  0.00000E+00  9.000E+00
      21     1     1     2   501   511  7.440552194E+00  2.130225110E+01  2.141784407E+03  2.141903264E+03  0.000000000E+00  0.00000E+00  9.000E+00
#rwgt            1           1   3.6904161438558583E-002           4      392778           0
</event>
<event>
      5   9999  3.79277E-02  3.29183E+01 -1.00000E+00  1.50291E-01
      21    -1     0     0   502   501  0.000000000E+00  0.000000000E+00  2.778766809E+02  2.778766809E+02  0.000000000E+00  0.00000E+00  9.000E+00
      21    -1     0     0   501   512  0.000000000E+00  0.000000000E+00 -1.798490529E+02  1.798490529E+02  0.000000000E+00  0.00000E+00  9.000E+00
      25     1     1     2     0     0 -6.468420751E+01 -1.202286413E+02  9.700632896E+01  2.089837332E+02  1.250000000E+02  0.00000E+00  9.000E+00
      25     1     1     2     0     0  4.573608572E+01  1.471467338E+02  3.494764591E+01  2.014703173E+02  1.250000000E+02  0.00000E+00  9.000E+00
      21     1     1     2   502   512  1.894812179E+01 -2.691809254E+01 -3.392634685E+01  4.727168324E+01  9.536743164E-07  0.00000E+00  9.000E+00
#rwgt            1           1   2.5797817141764618E-002           4      392946           0
</event>
<event>
      5   9999  3.79277E-02  2.75579E+01 -1.00000E+00  1.55646E-01
      21    -1     0     0   502   501  0.000000000E+00  0.000000000E+00  1.975530006E+02  1.975530006E+02  0.000000000E+00  0.00000E+00  9.000E+00
      21    -1     0     0   511   502  0.000000000E+00  0.000000000E+00 -1.645847887E+02  1.645847887E+02  0.000000000E+00  0.00000E+00  9.000E+00
      25     1     1     2     0     0 -8.196811350E+01  2.845731741E+01  8.353746386E+01  1.735859972E+02  1.250000000E+02  0.00000E+00  9.000E+00
      25     1     1     2     0     0  8.698828735E+01 -1.360545146E+00 -5.207651382E+01  1.609527151E+02  1.250000000E+02  0.00000E+00  9.000E+00
      21     1     1     2   511   501 -5.020173846E+00 -2.709677227E+01  1.507261918E+00  2.759907700E+01  2.912405176E-07  0.00000E+00  9.000E+00
#rwgt            1           1   3.0613878019205645E-002           4      393076           0
</event>
<event>
      5   9999  3.79277E-02  1.82275E+01 -1.00000E+00  1.69765E-01
      21    -1     0     0   502   501  0.000000000E+00  0.000000000E+00  1.696464525E+02  1.696464525E+02  0.000000000E+00  0.00000E+00  9.000E+00
      21    -1     0     0   512   502  0.000000000E+00  0.000000000E+00 -3.384519595E+02  3.384519595E+02  0.000000000E+00  0.00000E+00  9.000E+00
      25     1     1     2     0     0 -1.462908846E+02 -1.351254207E+02 -8.859392105E+01  2.512643729E+02  1.250000000E+02  0.00000E+00  9.000E+00
      25     1     1     2     0     0  1.281735876E+02  1.371268184E+02 -7.111427137E+01  2.364624124E+02  1.250000000E+02  0.00000E+00  9.000E+00
      21     1     1     2   512   501  1.811729696E+01 -2.001397741E+00 -9.097314547E+00  2.037162669E+01  4.298152060E-07  0.00000E+00  9.000E+00
#rwgt            1           1   3.2430559859086674E-002           4      393294           0
</event>
<event>
      5   9999  3.79277E-02  7.27767E+01 -1.00000E+00  1.30371E-01
      21    -1     0     0   502   501  0.000000000E+00  0.000000000E+00  1.238041783E+02  1.238041783E+02  0.000000000E+00  0.00000E+00  9.000E+00
      21    -1     0     0   511   502  0.000000000E+00  0.000000000E+00 -6.057463880E+02  6.057463880E+02  0.000000000E+00  0.00000E+00  9.000E+00
      25     1     1     2     0     0  1.690524416E+02  8.515514172E+00 -4.183232241E+02  4.682633467E+02  1.250000000E+02  0.00000E+00  9.000E+00
      25     1     1     2     0     0 -9.813720878E+01  7.839370469E+00  7.820734558E+00  1.593064072E+02  1.250000000E+02  0.00000E+00  9.000E+00
      21     1     1     2   511   501 -7.091523283E+01 -1.635488464E+01 -7.143972008E+01  1.019808124E+02  2.336015456E-06  0.00000E+00  9.000E+00
#rwgt            1           1   4.9709182966497643E-002           4      393474           0
</event>
<event>
      5   9999  3.79277E-02  7.56588E+01 -1.00000E+00  1.29533E-01
      21    -1     0     0   502   501  0.000000000E+00  0.000000000E+00  2.777991822E+02  2.777991822E+02  0.000000000E+00  0.00000E+00  9.000E+00
       2    -1     0     0   501     0  0.000000000E+00  0.000000000E+00 -9.345256877E+02  9.345256877E+02  0.000000000E+00  0.00000E+00  9.000E+00
      25     1     1     2     0     0 -1.599498288E+02  5.808075548E+01  1.805429240E+02  2.778094119E+02  1.250000000E+02  0.00000E+00  9.000E+00
      25     1     1     2     0     0  2.220750473E+02 -1.012630421E+02 -3.666452704E+02  4.578485390E+02  1.250000000E+02  0.00000E+00  9.000E+00
       2     1     1     2   502     0 -6.212521842E+01  4.318228662E+01 -4.706241590E+02  4.766669191E+02  0.000000000E+00  0.00000E+00  9.000E+00
#rwgt            1           1   6.9137536244168948E-002           4      393580           0
</event>
<event>
      5   9999  3.79277E-02  4.50092E+01 -1.00000E+00  1.41732E-01
      21    -1     0     0   502   501  0.000000000E+00  0.000000000E+00  4.933064043E+02  4.933064043E+02  0.000000000E+00  0.00000E+00  9.000E+00
       2    -1     0     0   501     0  0.000000000E+00  0.000000000E+00 -8.487504074E+02  8.487504074E+02  0.000000000E+00  0.00000E+00  9.000E+00
      25     1     1     2     0     0 -3.172226754E+02  3.603348875E+01  2.938415054E+01  3.441178089E+02  1.250000000E+02  0.00000E+00  9.000E+00
      25     1     1     2     0     0  3.055359187E+02 -7.949892002E+01  2.114198935E+02  3.999945591E+02  1.250000000E+02  0.00000E+00  9.000E+00
       2     1     1     2   502     0  1.168675670E+01  4.346543127E+01 -5.962480472E+02  5.979444437E+02  7.629394531E-06  0.00000E+00  9.000E+00
#rwgt            1           1   3.0139071440056793E-002           4      393655           0
</event>
<event>
      5   9999  3.79277E-02  9.30041E+00 -1.00000E+00  1.99470E-01
      21    -1     0     0   502   501  0.000000000E+00  0.000000000E+00  4.277279871E+01  4.277279871E+01  0.000000000E+00  0.00000E+00  9.000E+00
      21    -1     0     0   511   502  0.000000000E+00  0.000000000E+00 -8.646466024E+02  8.646466024E+02  0.000000000E+00  0.00000E+00  9.000E+00
      25     1     1     2     0     0 -1.161192503E+02  4.364353558E+01 -5.079024826E+02  5.375670845E+02  1.250000000E+02  0.00000E+00  9.000E+00
      25     1     1     2     0     0  1.253990526E+02 -4.426229832E+01 -2.769312203E+02  3.316624401E+02  1.250000000E+02  0.00000E+00  9.000E+00
      21     1     1     2   511   501 -9.279802294E+00  6.187627308E-01 -3.704010087E+01  3.818987654E+01  6.743495762E-07  0.00000E+00  9.000E+00
#rwgt            1           1   4.5647289572255306E-002           4      393780           0
</event>
<event>
      5   9999  3.79277E-02  5.05690E+01 -1.00000E+00  1.38796E-01
      21    -1     0     0   512   501  0.000000000E+00  0.000000000E+00  1.651690614E+02  1.651690614E+02  0.000000000E+00  0.00000E+00  9.000E+00
      21    -1     0     0   501   502  0.000000000E+00  0.000000000E+00 -4.039871859E+02  4.039871859E+02  0.000000000E+00  0.00000E+00  9.000E+00
      25     1     1     2     0     0 -9.313949214E+01 -3.262243305E+01  8.621067505E+01  1.810979531E+02  1.250000000E+02  0.00000E+00  9.000E+00
      25     1     1     2     0     0  5.962557370E+01 -5.246306662E+00 -3.024218707E+02  3.326660798E+02  1.250000000E+02  0.00000E+00  9.000E+00
      21     1     1     2   512   502  3.351391844E+01  3.786873971E+01 -2.260692895E+01  5.539221437E+01  1.143415337E-06  0.00000E+00  9.000E+00
#rwgt            1           1   4.0721233308354088E-002           4      393936           0
</event>
<event>
      5   9999  3.79277E-02  3.39073E+01 -1.00000E+00  1.49436E-01
      -3    -1     0     0     0   501  0.000000000E+00  0.000000000E+00  2.780171697E+02  2.780171697E+02  0.000000000E+00  0.00000E+00  9.000E+00
      21    -1     0     0   501   502  0.000000000E+00  0.000000000E+00 -3.955652343E+02  3.955652343E+02  0.000000000E+00  0.00000E+00  9.000E+00
      25     1     1     2     0     0 -1.353409606E+02  9.089452198E+01 -2.362385867E+02  3.130697360E+02  1.250000000E+02  0.00000E+00  9.000E+00
      25     1     1     2     0     0  1.434636265E+02 -5.797449470E+01 -3.600129317E+01  2.021483299E+02  1.250000000E+02  0.00000E+00  9.000E+00
      -3     1     1     2     0   502 -8.122665941E+00 -3.292002728E+01  1.546918152E+02  1.583643382E+02  3.303624740E-06  0.00000E+00  9.000E+00
#rwgt            1           1   3.5452987011760140E-002           4      394187           0
</event>
<event>
      5   9999  3.79277E-02  1.48838E+01 -1.00000E+00  1.77702E-01
      21    -1     0     0   502   501  0.000000000E+00  0.000000000E+00  2.586799333E+02  2.586799333E+02  0.000000000E+00  0.00000E+00  9.000E+00
      21    -1     0     0   501   511  0.000000000E+00  0.000000000E+00 -2.258605459E+02  2.258605459E+02  0.000000000E+00  0.00000E+00  9.000E+00
      25     1     1     2     0     0 -1.319061386E+02  9.655382280E+01 -9.912047652E+01  2.284113372E+02  1.250000000E+02  0.00000E+00  9.000E+00
      25     1     1     2     0     0  1.170352945E+02 -9.717518389E+01  1.375991087E+02  2.402057269E+02  1.250000000E+02  0.00000E+00  9.000E+00
      21     1     1     2   502   511  1.487084416E+01  6.213610881E-01 -5.659244744E+00  1.592341504E+01  2.795705652E-07  0.00000E+00  9.000E+00
#rwgt            1           1   3.1748003897685374E-002           4      394324           0
</event>
<event>
      5   9999  3.79277E-02  1.90151E+02 -1.00000E+00  1.12452E-01
      21    -1     0     0   502   501  0.000000000E+00  0.000000000E+00  1.298034428E+02  1.298034428E+02  0.000000000E+00  0.00000E+00  9.000E+00
      21    -1     0     0   501   512  0.000000000E+00  0.000000000E+00 -8.854326751E+02  8.854326751E+02  0.000000000E+00  0.00000E+00  9.000E+00
      25     1     1     2     0     0 -1.159618086E+02 -2.034171907E+02 -4.792329278E+02  5.478274305E+02  1.250000000E+02  0.00000E+00  9.000E+00
      25     1     1     2     0     0  2.765001404E+01  3.501770292E+01 -9.806264121E-01  1.327280092E+02  1.250000000E+02  0.00000E+00  9.000E+00
      21     1     1     2   502   512  8.831179459E+01  1.683994878E+02 -2.754156781E+02  3.346806781E+02  7.629394531E-06  0.00000E+00  9.000E+00
#rwgt            1           1   3.5893284117150398E-002           4      394539           0
</event>
<event>
      5   9999  3.79277E-02  2.92831E+01 -1.00000E+00  1.53773E-01
      21    -1     0     0   511   501  0.000000000E+00  0.000000000E+00  4.002093607E+02  4.002093607E+02  0.000000000E+00  0.00000E+00  9.000E+00
      21    -1     0     0   501   502  0.000000000E+00  0.000000000E+00 -1.121479132E+02  1.121479132E+02  0.000000000E+00  0.00000E+00  9.000E+00
      25     1     1     2     0     0  1.512072829E+02 -2.082511838E+01  1.919305115E+02  2.752447078E+02  1.250000000E+02  0.00000E+00  9.000E+00
      25     1     1     2     0     0 -1.280325866E+02  2.924464548E+00  5.616012399E+01  1.875629368E+02  1.250000000E+02  0.00000E+00  9.000E+00
      21     1     1     2   511   502 -2.317469626E+01  1.790065383E+01  3.997081201E+01  4.954962933E+01  0.000000000E+00  0.00000E+00  9.000E+00
#rwgt            1           1   4.3422941895624595E-002           4      394660           0
</event>
<event>
      5   9999  3.79277E-02  1.82556E+01 -1.00000E+00  1.69707E-01
      21    -1     0     0   502   501  0.000000000E+00  0.000000000E+00  3.655509322E+01  3.655509322E+01  0.000000000E+00  0.00000E+00  9.000E+00
       2    -1     0     0   501     0  0.000000000E+00  0.000000000E+00 -1.917130457E+03  1.917130457E+03  0.000000000E+00  0.00000E+00  9.000E+00
      25     1     1     2     0     0  6.286154276E+01  1.212071929E+00 -8.520277161E+02  8.634403695E+02  1.250000000E+02  0.00000E+00  9.000E+00
      25     1     1     2     0     0 -6.439556126E+01  1.697895981E+01 -1.323033828E+02  1.938150110E+02  1.250000000E+02  0.00000E+00  9.000E+00
       2     1     1     2   502     0  1.534018502E+00 -1.819103174E+01 -8.962442652E+02  8.964301700E+02  1.078959322E-05  0.00000E+00  9.000E+00
#rwgt            1           1   4.9645323248465441E-002           4      394830           0
</event>
<event>
      5   9999  3.79277E-02  2.20608E+01 -1.00000E+00  1.62930E-01
      21    -1     0     0   502   501  0.000000000E+00  0.000000000E+00  1.532214866E+02  1.532214866E+02  0.000000000E+00  0.00000E+00  9.000E+00
      21    -1     0     0   501   511  0.000000000E+00  0.000000000E+00 -2.643090881E+02  2.643090881E+02  0.000000000E+00  0.00000E+00  9.000E+00
      25     1     1     2     0     0 -3.944058082E+01 -7.238493019E+01  4.768210107E+01  1.571423568E+02  1.250000000E+02  0.00000E+00  9.000E+00
      25     1     1     2     0     0  1.898996453E+01  8.065853687E+01 -6.395151185E+01  1.630374625E+02  1.250000000E+02  0.00000E+00  9.000E+00
      21     1     1     2   502   511  2.045061630E+01 -8.273606674E+00 -9.481819075E+01  9.735075537E+01  0.000000000E+00  0.00000E+00  9.000E+00
#rwgt            1           1   5.4223175184283046E-002           4      394988           0
</event>
<event>
      5   9999  3.79277E-02  6.99314E+01 -1.00000E+00  1.31242E-01
      21    -1     0     0   502   501  0.000000000E+00  0.000000000E+00  1.907396948E+02  1.907396948E+02  0.000000000E+00  0.00000E+00  9.000E+00
      21    -1     0     0   512   502  0.000000000E+00  0.000000000E+00 -4.199263249E+02  4.199263249E+02  0.000000000E+00  0.00000E+00  9.000E+00
      25     1     1     2     0     0  2.146419374E+02 -6.144359219E+01 -1.190462376E+01  2.561507298E+02  1.250000000E+02  0.00000E+00  9.000E+00
      25     1     1     2     0     0 -1.614391860E+02  1.605781163E+01 -1.296222551E+02  2.423786152E+02  1.250000000E+02  0.00000E+00  9.000E+00
      21     1     1     2   512   501 -5.320275140E+01  4.538578056E+01 -8.765975115E+01  1.121366747E+02  9.536743164E-07  0.00000E+00  9.000E+00
#rwgt            1           1   3.3282855891303913E-002           4      395240           0
</event>
<event>
      5   9999  3.79277E-02  1.64675E+01 -1.00000E+00  1.73648E-01
      21    -1     0     0   502   501  0.000000000E+00  0.000000000E+00  1.467530492E+02  1.467530492E+02  0.000000000E+00  0.00000E+00  9.000E+00
      21    -1     0     0   501   511  0.000000000E+00  0.000000000E+00 -1.882152143E+02  1.882152143E+02  0.000000000E+00  0.00000E+00  9.000E+00
      25     1     1     2     0     0 -5.341742034E+01 -6.107355401E+01  5.720964351E+00  1.491346010E+02  1.250000000E+02  0.00000E+00  9.000E+00
      25     1     1     2     0     0  4.675859859E+01  7.613471408E+01 -2.124594835E+01  1.551104495E+02  1.250000000E+02  0.00000E+00  9.000E+00
      21     1     1     2   502   511  6.658821750E+00 -1.506116007E+01 -2.593718107E+01  3.072321291E+01  0.000000000E+00  0.00000E+00  9.000E+00
#rwgt            1           1  0.11486807036677295                4      395379           0
</event>
<event>
      5   9999 -3.79277E-02  5.78126E+01 -1.00000E+00  1.35571E-01
      21    -1     0     0   502   501  0.000000000E+00  0.000000000E+00  3.521830362E+01  3.521830362E+01  0.000000000E+00  0.00000E+00  9.000E+00
      21    -1     0     0   512   502  0.000000000E+00  0.000000000E+00 -2.152243948E+03  2.152243948E+03  0.000000000E+00  0.00000E+00  9.000E+00
      25     1     1     2     0     0  4.466524941E+01  8.219048021E+01 -2.468552983E+02  2.920835460E+02  1.250000000E+02  0.00000E+00  9.000E+00
      25     1     1     2     0     0 -8.851811598E+01 -1.198629834E+02 -7.873599818E+02  8.110260986E+02  1.250000000E+02  0.00000E+00  9.000E+00
      21     1     1     2   512   501  4.385286657E+01  3.767250317E+01 -1.082810364E+03  1.084352607E+03  1.525878906E-05  0.00000E+00  9.000E+00
#rwgt            1           1  -9.1227961429028809E-002           4      395609           0
</event>
<event>
      5   9999  3.79277E-02  6.48040E+00 -1.00000E+00  2.20399E-01
      21    -1     0     0   502   501  0.000000000E+00  0.000000000E+00  1.555525659E+02  1.555525659E+02  0.000000000E+00  0.00000E+00  9.000E+00
       1    -1     0     0   501     0  0.000000000E+00  0.000000000E+00 -5.040064720E+02  5.040064720E+02  0.000000000E+00  0.00000E+00  9.000E+00
      25     1     1     2     0     0 -8.619395147E+01 -1.420236820E+02 -4.086621908E+01  2.118848069E+02  1.250000000E+02  0.00000E+00  9.000E+00
      25     1     1     2     0     0  8.801440990E+01  1.482431331E+02 -9.197350965E+01  2.319626896E+02  1.250000000E+02  0.00000E+00  9.000E+00
       1     1     1     2   502     0 -1.820458427E+00 -6.219451152E+00 -2.156141774E+02  2.157115415E+02  0.000000000E+00  0.00000E+00  9.000E+00
#rwgt            1           1   3.7425015974261670E-002           4      395738           0
</event>
<event>
      5   9999  3.79277E-02  2.28824E+01 -1.00000E+00  1.61685E-01
      21    -1     0     0   502   501  0.000000000E+00  0.000000000E+00  5.559685691E+02  5.559685691E+02  0.000000000E+00  0.00000E+00  9.000E+00
      21    -1     0     0   511   502  0.000000000E+00  0.000000000E+00 -8.895526766E+02  8.895526766E+02  0.000000000E+00  0.00000E+00  9.000E+00
      25     1     1     2     0     0 -2.641625276E+02  3.500702474E+02  1.586724040E+02  4.828384314E+02  1.250000000E+02  0.00000E+00  9.000E+00
      25     1     1     2     0     0  2.483648978E+02 -3.666243282E+02  9.669156282E+00  4.602358233E+02  1.250000000E+02  0.00000E+00  9.000E+00
      21     1     1     2   511   501  1.579762980E+01  1.655408079E+01 -5.019256678E+02  5.024469909E+02  5.394796609E-06  0.00000E+00  9.000E+00
#rwgt            1           1  0.14265813694165674                4      396170           0
</event>
<event>
      5   9999  3.79277E-02  4.37153E+01 -1.00000E+00  1.42488E-01
      21    -1     0     0   502   501  0.000000000E+00  0.000000000E+00  7.123707933E+01  7.123707933E+01  0.000000000E+00  0.00000E+00  9.000E+00
       1    -1     0     0   501     0  0.000000000E+00  0.000000000E+00 -2.746005374E+03  2.746005374E+03  0.000000000E+00  0.00000E+00  9.000E+00
      25     1     1     2     0     0 -8.128706387E+01 -1.469638362E+02 -4.951870810E+02  5.376255212E+02  1.250000000E+02  0.00000E+00  9.000E+00
      25     1     1     2     0     0  5.594189156E+01  1.825819542E+02 -2.118550845E+02  3.114052698E+02  1.250000000E+02  0.00000E+00  9.000E+00
       1     1     1     2   502     0  2.534517231E+01 -3.561811797E+01 -1.967726129E+03  1.968211662E+03  4.315837288E-05  0.00000E+00  9.000E+00
#rwgt            1           1   4.1512348755127694E-002           4      396320           0
</event>
<event>
      5   9999 -3.79277E-02  5.86330E+01 -1.00000E+00  1.35240E-01
      21    -1     0     0   511   501  0.000000000E+00  0.000000000E+00  8.127520849E+01  8.127520849E+01  0.000000000E+00  0.00000E+00  9.000E+00
      21    -1     0     0   501   502  0.000000000E+00  0.000000000E+00 -7.501322142E+02  7.501322142E+02  0.000000000E+00  0.00000E+00  9.000E+00
      25     1     1     2     0     0  7.648805040E+01  1.009536733E+02 -3.323575343E+02  3.769994650E+02  1.250000000E+02  0.00000E+00  9.000E+00
      25     1     1     2     0     0 -8.750723128E+01 -1.585419703E+02 -3.282771950E+02  3.952012002E+02  1.250000000E+02  0.00000E+00  9.000E+00
      21     1     1     2   511   502  1.101918088E+01  5.758829699E+01 -8.222276347E+00  5.920675743E+01  7.444617746E-07  0.00000E+00  9.000E+00
#rwgt            1           1  -1.2845300096055159E-002           4      396461           0
</event>
<event>
      5   9999  3.79277E-02  7.92337E+01 -1.00000E+00  1.28552E-01
      21    -1     0     0   502   501  0.000000000E+00  0.000000000E+00  1.001715654E+03  1.001715654E+03  0.000000000E+00  0.00000E+00  9.000E+00
      21    -1     0     0   512   502  0.000000000E+00  0.000000000E+00 -4.169695263E+01  4.169695263E+01  0.000000000E+00  0.00000E+00  9.000E+00
      25     1     1     2     0     0 -5.377370501E+01 -1.995616767E+01  2.719225258E+02  3.047240063E+02  1.250000000E+02  0.00000E+00  9.000E+00
      25     1     1     2     0     0  6.588585313E+01 -5.834628799E+01  6.044117774E+02  6.234451312E+02  1.250000000E+02  0.00000E+00  9.000E+00
      21     1     1     2   512   501 -1.211214812E+01  7.830245565E+01  8.368439837E+01  1.152434693E+02  1.907348633E-06  0.00000E+00  9.000E+00
#rwgt            1           1   9.4449422497898200E-002           4      396559           0
</event>
<event>
      5   9999  3.79277E-02  2.83833E+01 -1.00000E+00  1.54730E-01
      21    -1     0     0   502   511  0.000000000E+00  0.000000000E+00  1.151238944E+02  1.151238944E+02  0.000000000E+00  0.00000E+00  9.000E+00
      21    -1     0     0   501   502  0.000000000E+00  0.000000000E+00 -6.916160869E+02  6.916160869E+02  0.000000000E+00  0.00000E+00  9.000E+00
      25     1     1     2     0     0 -1.035656781E+02 -5.721321894E+01 -1.857134227E+02  2.532067880E+02  1.250000000E+02  0.00000E+00  9.000E+00
      25     1     1     2     0     0  7.574095285E+01  6.281670668E+01 -4.557047115E+02  4.826742325E+02  1.250000000E+02  0.00000E+00  9.000E+00
      21     1     1     2   501   511  2.782472525E+01 -5.603487740E+00  6.492594175E+01  7.085896077E+01  9.536743164E-07  0.00000E+00  9.000E+00
#rwgt            1           1   4.1522212235534796E-002           4      396597           0
</event>
<event>
      5   9999  3.79277E-02  9.52608E+01 -1.00000E+00  1.24784E-01
      21    -1     0     0   502   501  0.000000000E+00  0.000000000E+00  1.258156391E+02  1.258156391E+02  0.000000000E+00  0.00000E+00  9.000E+00
      21    -1     0     0   501   512  0.000000000E+00  0.000000000E+00 -1.201529314E+03  1.201529314E+03  0.000000000E+00  0.00000E+00  9.000E+00
      25     1     1     2     0     0  1.176984526E+02 -1.076351246E+02 -3.162509436E+01  2.050936186E+02  1.250000000E+02  0.00000E+00  9.000E+00
      25     1     1     2     0     0 -1.942205649E+02  5.089899963E+01 -3.547540556E+02  4.263657772E+02  1.250000000E+02  0.00000E+00  9.000E+00
      21     1     1     2   502   512  7.652211234E+01  5.673612495E+01 -6.893345252E+02  6.958855575E+02  1.078959322E-05  0.00000E+00  9.000E+00
#rwgt            1           1   4.2434903261264256E-002           4      396765           0
</event>
<event>
      5   9999  3.79277E-02  3.04109E+01 -1.00000E+00  1.52631E-01
      21    -1     0     0   502   501  0.000000000E+00  0.000000000E+00  6.079390391E+01  6.079390391E+01  0.000000000E+00  0.00000E+00  9.000E+00
      21    -1     0     0   501   511  0.000000000E+00  0.000000000E+00 -1.235619234E+03  1.235619234E+03  0.000000000E+00  0.00000E+00  9.000E+00
      25     1     1     2     0     0 -1.142816364E+02 -1.792467697E+02 -7.992029081E+02  8.363850699E+02  1.250000000E+02  0.00000E+00  9.000E+00
      25     1     1     2     0     0  1.109009364E+02  1.490244095E+02 -2.734295840E+02  3.534063238E+02  1.250000000E+02  0.00000E+00  9.000E+00
      21     1     1     2   502   511  3.380699949E+00  3.022236026E+01 -1.021928385E+02  1.066217446E+02  1.348699152E-06  0.00000E+00  9.000E+00
#rwgt            1           1   3.7037068926727881E-002           4      396819           0
</event>
<event>
      5   9999  3.79277E-02  8.59302E+01 -1.00000E+00  1.26864E-01
      21    -1     0     0   502   501  0.000000000E+00  0.000000000E+00  1.446828527E+02  1.446828527E+02  0.000000000E+00  0.00000E+00  9.000E+00
       2    -1     0     0   501     0  0.000000000E+00  0.000000000E+00 -1.118629203E+03  1.118629203E+03  0.000000000E+00  0.00000E+00  9.000E+00
      25     1     1     2     0     0  4.990906472E+01 -3.366806772E+02 -6.457954678E+02  7.406224270E+02  1.250000000E+02  0.00000E+00  9.000E+00
      25     1     1     2     0     0 -7.454818530E+01  2.543586756E+02 -1.600799974E+02  3.339257004E+02  1.250000000E+02  0.00000E+00  9.000E+00
       2     1     1     2   502     0  2.463912058E+01  8.232200162E+01 -1.680708850E+02  1.887639282E+02  3.303624740E-06  0.00000E+00  9.000E+00
#rwgt            1           1   2.8218709828437657E-002           4      396982           0
</event>
<event>
      5   9999  3.79277E-02  1.67029E+01 -1.00000E+00  1.73094E-01
      21    -1     0     0   502   501  0.000000000E+00  0.000000000E+00  7.850650116E+02  7.850650116E+02  0.000000000E+00  0.00000E+00  9.000E+00
      21    -1     0     0   511   502  0.000000000E+00  0.000000000E+00 -1.283518195E+02  1.283518195E+02  0.000000000E+00  0.00000E+00  9.000E+00
      25     1     1     2     0     0 -1.415395471E+02 -2.958168559E+01  3.718681392E+02  4.181141381E+02  1.250000000E+02  0.00000E+00  9.000E+00
      25     1     1     2     0     0  1.299774291E+02  1.752741057E+01  3.681616437E+02  4.103283297E+02  1.250000000E+02  0.00000E+00  9.000E+00
      21     1     1     2   511   501  1.156211798E+01  1.205427502E+01 -8.331659082E+01  8.497436333E+01  1.907348633E-06  0.00000E+00  9.000E+00
#rwgt            1           1   3.3547071739332759E-002           4      397163           0
</event>
<event>
      5   9999  3.79277E-02  7.74693E+00 -1.00000E+00  2.09513E-01
      21    -1     0     0   502   501  0.000000000E+00  0.000000000E+00  5.901546981E+02  5.901546981E+02  0.000000000E+00  0.00000E+00  9.000E+00
      21    -1     0     0   501   512  0.000000000E+00  0.000000000E+00 -7.119664701E+01  7.119664701E+01  0.000000000E+00  0.00000E+00  9.000E+00
      25     1     1     2     0     0  5.854365434E+01 -1.435030737E+02  2.829014516E+02  3.459461272E+02  1.250000000E+02  0.00000E+00  9.000E+00
      25     1     1     2     0     0 -5.105260487E+01  1.454776975E+02  2.349724317E+02  3.075827898E+02  1.250000000E+02  0.00000E+00  9.000E+00
      21     1     1     2   502   512 -7.491049472E+00 -1.974623798E+00  1.084167788E+00  7.822428084E+00  8.024520885E-08  0.00000E+00  9.000E+00
#rwgt            1           1   3.1153531694359349E-002           4      397432           0
</event>
<event>
      5   9999  3.79277E-02  5.54253E+01 -1.00000E+00  1.36570E-01
      21    -1     0     0   502   511  0.000000000E+00  0.000000000E+00  1.846977237E+02  1.846977237E+02  0.000000000E+00  0.00000E+00  9.000E+00
      21    -1     0     0   501   502  0.000000000E+00  0.000000000E+00 -4.903176547E+02  4.903176547E+02  0.000000000E+00  0.00000E+00  9.000E+00
      25     1     1     2     0     0  4.246854703E+01 -1.496787218E+02 -3.777044822E+02  4.271919629E+02  1.250000000E+02  0.00000E+00  9.000E+00
      25     1     1     2     0     0 -7.584320478E+01  1.054282934E+02  4.336465456E+01  1.853990562E+02  1.250000000E+02  0.00000E+00  9.000E+00
      21     1     1     2   501   511  3.337465775E+01  4.425042832E+01  2.871989664E+01  6.242435942E+01  8.920806376E-07  0.00000E+00  9.000E+00
#rwgt            1           1   1.7226165866713605E-002           4      397809           0
</event>
<event>
      5   9999  3.79277E-02  1.34242E+01 -1.00000E+00  1.82048E-01
      21    -1     0     0   502   512  0.000000000E+00  0.000000000E+00  9.968099302E+01  9.968099302E+01  0.000000000E+00  0.00000E+00  9.000E+00
      21    -1     0     0   501   502  0.000000000E+00  0.000000000E+00 -6.104691133E+02  6.104691133E+02  0.000000000E+00  0.00000E+00  9.000E+00
      25     1     1     2     0     0 -1.729390672E+02 -8.999566062E+01 -2.589261992E+02  3.473829537E+02  1.250000000E+02  0.00000E+00  9.000E+00
      25     1     1     2     0     0  1.740700812E+02  1.033721707E+02 -2.552246925E+02  3.489281337E+02  1.250000000E+02  0.00000E+00  9.000E+00
      21     1     1     2   501   512 -1.131013959E+00 -1.337651004E+01  3.362771421E+00  1.383901894E+01  2.827296549E-07  0.00000E+00  9.000E+00
#rwgt            1           1   4.5607419968121198E-002           4      397960           0
</event>
<event>
      5   9999  3.79277E-02  3.69184E+01 -1.00000E+00  1.47033E-01
      21    -1     0     0   502   501  0.000000000E+00  0.000000000E+00  6.581766075E+02  6.581766075E+02  0.000000000E+00  0.00000E+00  9.000E+00
      21    -1     0     0   511   502  0.000000000E+00  0.000000000E+00 -8.646835050E+01  8.646835050E+01  0.000000000E+00  0.00000E+00  9.000E+00
      25     1     1     2     0     0 -1.750661773E+01 -5.827802484E+01  5.406521204E+02  5.582405621E+02  1.250000000E+02  0.00000E+00  9.000E+00
      25     1     1     2     0     0 -1.510370386E+01  7.558503467E+01  2.607894607E+01  1.491520391E+02  1.250000000E+02  0.00000E+00  9.000E+00
      21     1     1     2   511   501  3.261032159E+01 -1.730700982E+01  4.977190502E+00  3.725235682E+01  6.364034565E-07  0.00000E+00  9.000E+00
#rwgt            1           1   4.4810063322365208E-002           4      398175           0
</event>
<event>
      5   9999 -3.79277E-02  1.23772E+02 -1.00000E+00  1.19800E-01
      21    -1     0     0   512   501  0.000000000E+00  0.000000000E+00  8.948207759E+02  8.948207759E+02  0.000000000E+00  0.00000E+00  9.000E+00
      21    -1     0     0   501   502  0.000000000E+00  0.000000000E+00 -1.791007886E+02  1.791007886E+02  0.000000000E+00  0.00000E+00  9.000E+00
      25     1     1     2     0     0  3.252600079E+02  6.133116360E+01  1.191097885E+02  3.733198709E+02  1.250000000E+02  0.00000E+00  9.000E+00
      25     1     1     2     0     0 -2.022432227E+02 -4.767479589E+01  4.192151578E+02  4.842949058E+02  1.250000000E+02  0.00000E+00  9.000E+00
      21     1     1     2   512   502 -1.230167852E+02 -1.365636771E+01  1.773950411E+02  2.163067878E+02  2.697398305E-06  0.00000E+00  9.000E+00
#rwgt            1           1 -0.23553191174671836                4      398262           0
</event>
<event>
      5   9999  3.79277E-02  5.64375E+00 -1.00000E+00  2.29681E-01
      21    -1     0     0   502   501  0.000000000E+00  0.000000000E+00  2.185548289E+02  2.185548289E+02  0.000000000E+00  0.00000E+00  9.000E+00
      21    -1     0     0   511   502  0.000000000E+00  0.000000000E+00 -3.165849131E+02  3.165849131E+02  0.000000000E+00  0.00000E+00  9.000E+00
      25     1     1     2     0     0 -9.618415172E+01  1.485575211E+02  9.624680191E+01  2.370847422E+02  1.250000000E+02  0.00000E+00  9.000E+00
      25     1     1     2     0     0  9.349391981E+01 -1.535188281E+02 -1.826204091E+02  2.851041168E+02  1.250000000E+02  0.00000E+00  9.000E+00
      21     1     1     2   511   501  2.690231909E+00  4.961307007E+00 -1.165647696E+01  1.295088298E+01  2.384185791E-07  0.00000E+00  9.000E+00
#rwgt            1           1   3.4938184428578718E-002           4      398346           0
</event>
<event>
      5   9999  3.79277E-02  1.54400E+02 -1.00000E+00  1.15898E-01
      21    -1     0     0   502   501  0.000000000E+00  0.000000000E+00  6.199052831E+02  6.199052831E+02  0.000000000E+00  0.00000E+00  9.000E+00
       2    -1     0     0   501     0  0.000000000E+00  0.000000000E+00 -4.701676542E+02  4.701676542E+02  0.000000000E+00  0.00000E+00  9.000E+00
      25     1     1     2     0     0  2.311031676E+01 -1.790290074E+00 -1.445766551E+02  1.925219496E+02  1.250000000E+02  0.00000E+00  9.000E+00
      25     1     1     2     0     0 -1.107732496E+02 -1.253098398E+02  5.558869393E+02  5.938085197E+02  1.250000000E+02  0.00000E+00  9.000E+00
       2     1     1     2   502     0  8.766293284E+01  1.271001299E+02 -2.615726553E+02  3.037424679E+02  0.000000000E+00  0.00000E+00  9.000E+00
#rwgt            1           1   5.6760197149701874E-002           4      398781           0
</event>
<event>
      5   9999  3.79277E-02  1.51019E+01 -1.00000E+00  1.77107E-01
      21    -1     0     0   511   501  0.000000000E+00  0.000000000E+00  1.347366119E+02  1.347366119E+02  0.000000000E+00  0.00000E+00  9.000E+00
      21    -1     0     0   501   502  0.000000000E+00  0.000000000E+00 -2.423354501E+02  2.423354501E+02  0.000000000E+00  0.00000E+00  9.000E+00
      25     1     1     2     0     0 -9.997271121E+01  1.652954784E+00 -6.200786872E+01  1.716602780E+02  1.250000000E+02  0.00000E+00  9.000E+00
      25     1     1     2     0     0  1.142276440E+02  3.333550369E+00 -6.448433750E+01  1.812244382E+02  1.250000000E+02  0.00000E+00  9.000E+00
      21     1     1     2   511   502 -1.425493276E+01 -4.986505153E+00  1.889336809E+01  2.418734585E+01  3.371747881E-07  0.00000E+00  9.000E+00
#rwgt            1           1   2.7596492737264815E-002           4      398851           0
</event>
<event>
      5   9999  3.79277E-02  2.76039E+01 -1.00000E+00  1.55594E-01
      21    -1     0     0   502   501  0.000000000E+00  0.000000000E+00  3.775327194E+02  3.775327194E+02  0.000000000E+00  0.00000E+00  9.000E+00
      21    -1     0     0   512   502  0.000000000E+00  0.000000000E+00 -1.311015668E+02  1.311015668E+02  0.000000000E+00  0.00000E+00  9.000E+00
      25     1     1     2     0     0 -4.557845933E+01 -3.164574695E+01  3.058715246E+02  3.350540835E+02  1.250000000E+02  0.00000E+00  9.000E+00
      25     1     1     2     0     0  3.590226550E+01  5.793303727E+00 -3.074670602E+01  1.337643262E+02  1.250000000E+02  0.00000E+00  9.000E+00
      21     1     1     2   512   501  9.676193832E+00  2.585244323E+01 -2.869366609E+01  3.981587650E+01  0.000000000E+00  0.00000E+00  9.000E+00
#rwgt            1           1   4.4686704454832867E-002           4      399195           0
</event>
<event>
      5   9999  3.79277E-02  7.43734E+01 -1.00000E+00  1.29901E-01
      21    -1     0     0   502   501  0.000000000E+00  0.000000000E+00  1.591448126E+02  1.591448126E+02  0.000000000E+00  0.00000E+00  9.000E+00
      21    -1     0     0   511   502  0.000000000E+00  0.000000000E+00 -8.482047507E+02  8.482047507E+02  0.000000000E+00  0.00000E+00  9.000E+00
      25     1     1     2     0     0 -1.600045954E+02  2.257007959E+02 -3.221538895E+02  4.426629059E+02  1.250000000E+02  0.00000E+00  9.000E+00
      25     1     1     2     0     0  1.449232875E+02 -2.985290649E+02 -2.956698051E+02  4.617011972E+02  1.250000000E+02  0.00000E+00  9.000E+00
      21     1     1     2   511   501  1.508130797E+01  7.282826905E+01 -7.123624357E+01  1.029854602E+02  1.348699152E-06  0.00000E+00  9.000E+00
#rwgt            2          11   3.7984585886703523E-003           4      399334           0
</event>
<event>
      5   9999  3.79277E-02  4.27744E+01 -1.00000E+00  1.43057E-01
       2    -1     0     0   502     0  0.000000000E+00  0.000000000E+00  1.740035016E+03  1.740035016E+03  0.000000000E+00  0.00000E+00  9.000E+00
      21    -1     0     0   501   502  0.000000000E+00  0.000000000E+00 -5.923031530E+01  5.923031530E+01  0.000000000E+00  0.00000E+00  9.000E+00
      25     1     1     2     0     0 -1.402710093E+02 -8.806648956E+01  3.445092020E+02  4.021731628E+02  1.250000000E+02  0.00000E+00  9.000E+00
      25     1     1     2     0     0  1.240277524E+02  1.276367673E+02  3.651853129E+02  4.250403987E+02  1.250000000E+02  0.00000E+00  9.000E+00
       2     1     1     2   501     0  1.624325696E+01 -3.957027772E+01  9.711101854E+02  9.720517694E+02  0.000000000E+00  0.00000E+00  9.000E+00
#rwgt            1           1   3.6721070927533621E-002           4      399429           0
</event>
<event>
      5   9999  3.79277E-02  1.09017E+02 -1.00000E+00  1.22165E-01
      21    -1     0     0   502   501  0.000000000E+00  0.000000000E+00  1.218044195E+03  1.218044195E+03  0.000000000E+00  0.00000E+00  9.000E+00
      21    -1     0     0   511   502  0.000000000E+00  0.000000000E+00 -1.620454665E+02  1.620454665E+02  0.000000000E+00  0.00000E+00  9.000E+00
      25     1     1     2     0     0 -1.853780624E+01  1.140495074E+02  3.697184822E+02  4.070229680E+02  1.250000000E+02  0.00000E+00  9.000E+00
      25     1     1     2     0     0 -8.982334219E+01 -1.021120860E+02  7.967387967E+02  8.178709073E+02  1.250000000E+02  0.00000E+00  9.000E+00
      21     1     1     2   511   501  1.083611484E+02 -1.193742141E+01 -1.104585507E+02  1.551957858E+02  4.473129043E-06  0.00000E+00  9.000E+00
#rwgt            1           1   4.0983470816041659E-002           4      399565           0
</event>
<event>
      5   9999  3.79277E-02  4.84506E+01 -1.00000E+00  1.39860E-01
      21    -1     0     0   502   512  0.000000000E+00  0.000000000E+00  2.089842913E+02  2.089842913E+02  0.000000000E+00  0.00000E+00  9.000E+00
      21    -1     0     0   501   502  0.000000000E+00  0.000000000E+00 -5.275767775E+02  5.275767775E+02  0.000000000E+00  0.00000E+00  9.000E+00
      25     1     1     2     0     0 -1.374370582E+02  3.326593591E+01  6.446988002E+01  1.994415525E+02  1.250000000E+02  0.00000E+00  9.000E+00
      25     1     1     2     0     0  9.135160295E+01 -1.831302089E+01 -4.373790240E+02  4.643338161E+02  1.250000000E+02  0.00000E+00  9.000E+00
      21     1     1     2   501   512  4.608545521E+01 -1.495291502E+01  5.431665773E+01  7.278570022E+01  1.907348633E-06  0.00000E+00  9.000E+00
#rwgt            1           1   4.1971277080655789E-002           4      399615           0
</event>
<event>
      5   9999  3.79277E-02  3.64122E+01 -1.00000E+00  1.47418E-01
      21    -1     0     0   502   501  0.000000000E+00  0.000000000E+00  1.255440508E+02  1.255440508E+02  0.000000000E+00  0.00000E+00  9.000E+00
       2    -1     0     0   501     0  0.000000000E+00  0.000000000E+00 -1.237004623E+03  1.237004623E+03  0.000000000E+00  0.00000E+00  9.000E+00
      25     1     1     2     0     0 -1.393725756E+02  9.551206939E+00 -2.421315329E+02  3.062166220E+02  1.250000000E+02  0.00000E+00  9.000E+00
      25     1     1     2     0     0  1.080425913E+02  9.003642697E+00  1.963040500E+01  1.666271884E+02  1.250000000E+02  0.00000E+00  9.000E+00
       2     1     1     2   502     0  3.132998432E+01 -1.855484964E+01 -8.889594441E+02  8.897048632E+02  1.525878906E-05  0.00000E+00  9.000E+00
#rwgt            1           1   5.7107693856449565E-002           4      399825           0
</event>
<event>
      5   9999  3.79277E-02  1.15123E+02 -1.00000E+00  1.21138E-01
      21    -1     0     0   502   511  0.000000000E+00  0.000000000E+00  7.463247462E+02  7.463247462E+02  0.000000000E+00  0.00000E+00  9.000E+00
      21    -1     0     0   501   502  0.000000000E+00  0.000000000E+00 -8.736026513E+01  8.736026513E+01  0.000000000E+00  0.00000E+00  9.000E+00
      25     1     1     2     0     0 -1.117512923E+02 -8.472630000E+00  2.050223199E+02  2.649892232E+02  1.250000000E+02  0.00000E+00  9.000E+00
      25     1     1     2     0     0  1.336824432E+02 -1.045417791E+02  2.031216763E+02  2.927172605E+02  1.250000000E+02  0.00000E+00  9.000E+00
      21     1     1     2   501   511 -2.193115098E+01  1.130144091E+02  2.508204849E+02  2.759785276E+02  3.814697266E-06  0.00000E+00  9.000E+00
#rwgt            1           1   4.3035494249225398E-002           4      400005           0
</event>
<event>
      5   9999  3.79277E-02  6.67382E+01 -1.00000E+00  1.32279E-01
      21    -1     0     0   502   501  0.000000000E+00  0.000000000E+00  1.766138155E+03  1.766138155E+03  0.000000000E+00  0.00000E+00  9.000E+00
      21    -1     0     0   501   512  0.000000000E+00  0.000000000E+00 -1.290558374E+02  1.290558374E+02  0.000000000E+00  0.00000E+00  9.000E+00
      25     1     1     2     0     0 -1.551462227E+02 -2.681256522E+02  9.520735166E+02  1.008975072E+03  1.250000000E+02  0.00000E+00  9.000E+00
      25     1     1     2     0     0  1.565356075E+02  2.014019024E+02  7.444770927E+02  7.968295077E+02  1.250000000E+02  0.00000E+00  9.000E+00
      21     1     1     2   502   512 -1.389384862E+00  6.672374974E+01 -5.946829214E+01  8.938941179E+01  2.611744678E-06  0.00000E+00  9.000E+00
#rwgt            1           1   4.0421189282494878E-002           4      400128           0
</event>
<event>
      5   9999  3.79277E-02  1.23637E+02 -1.00000E+00  1.19820E-01
      21    -1     0     0   502   511  0.000000000E+00  0.000000000E+00  2.656208687E+02  2.656208687E+02  0.000000000E+00  0.00000E+00  9.000E+00
      21    -1     0     0   501   502  0.000000000E+00  0.000000000E+00 -8.545027121E+02  8.545027121E+02  0.000000000E+00  0.00000E+00  9.000E+00
      25     1     1     2     0     0 -4.499228457E+01 -2.476313869E+02 -1.380904870E+02  3.131127465E+02  1.250000000E+02  0.00000E+00  9.000E+00
      25     1     1     2     0     0  1.315447251E+02  1.593429493E+02 -5.799462603E+02  6.282172037E+02  1.250000000E+02  0.00000E+00  9.000E+00
      21     1     1     2   501   511 -8.655244054E+01  8.828843755E+01  1.291549038E+02  1.787936306E+02  4.672030912E-06  0.00000E+00  9.000E+00
#rwgt            1           1   3.6680058611672450E-002           4      400368           0
</event>
<event>
      5   9999  3.79277E-02  4.18964E+00 -1.00000E+00  2.58819E-01
      21    -1     0     0   502   501  0.000000000E+00  0.000000000E+00  1.524766988E+02  1.524766988E+02  0.000000000E+00  0.00000E+00  9.000E+00
      21    -1     0     0   501   512  0.000000000E+00  0.000000000E+00 -2.122789266E+02  2.122789266E+02  0.000000000E+00  0.00000E+00  9.000E+00
      25     1     1     2     0     0 -5.461443357E+01 -9.223746679E+01  2.799193847E+01  1.670300430E+02  1.250000000E+02  0.00000E+00  9.000E+00
      25     1     1     2     0     0  5.445144839E+01  9.642393108E+01 -7.283006426E+01  1.821860395E+02  1.250000000E+02  0.00000E+00  9.000E+00
      21     1     1     2   502   512  1.629851804E-01 -4.186464298E+00 -1.496410203E+01  1.553954302E+01  2.384185791E-07  0.00000E+00  9.000E+00
#rwgt            1           1   3.4568770629992709E-002           4      400448           0
</event>
<event>
      5   9999  3.79277E-02  4.69712E+01 -1.00000E+00  1.40642E-01
      21    -1     0     0   511   501  0.000000000E+00  0.000000000E+00  1.699945006E+02  1.699945006E+02  0.000000000E+00  0.00000E+00  9.000E+00
      21    -1     0     0   501   502  0.000000000E+00  0.000000000E+00 -8.979592455E+02  8.979592455E+02  0.000000000E+00  0.00000E+00  9.000E+00
      25     1     1     2     0     0  7.253287661E+01 -5.594516618E+01 -5.124180789E+02  5.353393011E+02  1.250000000E+02  0.00000E+00  9.000E+00
      25     1     1     2     0     0 -1.178245643E+02  4.349700931E+01 -3.488516066E+02  3.912761956E+02  1.250000000E+02  0.00000E+00  9.000E+00
      21     1     1     2   511   502  4.529168773E+01  1.244815687E+01  1.333049405E+02  1.413382495E+02  1.907348633E-06  0.00000E+00  9.000E+00
#rwgt            1           1   3.9848731225172553E-002           4      401027           0
</event>
<event>
      5   9999  3.79277E-02  2.25995E+01 -1.00000E+00  1.62106E-01
      21    -1     0     0   502   512  0.000000000E+00  0.000000000E+00  2.216783422E+02  2.216783422E+02  0.000000000E+00  0.00000E+00  9.000E+00
      21    -1     0     0   501   502  0.000000000E+00  0.000000000E+00 -2.869977229E+02  2.869977229E+02  0.000000000E+00  0.00000E+00  9.000E+00
      25     1     1     2     0     0  1.236463289E+02 -1.826212015E+01 -1.012816908E+02  2.037275155E+02  1.250000000E+02  0.00000E+00  9.000E+00
      25     1     1     2     0     0 -1.459986171E+02  2.159574837E+01 -6.302157731E+01  2.034175306E+02  1.250000000E+02  0.00000E+00  9.000E+00
      21     1     1     2   501   512  2.235228826E+01 -3.333628215E+00  9.898388735E+01  1.015310190E+02  2.336015456E-06  0.00000E+00  9.000E+00
#rwgt            1           1   3.5653057977859802E-002           4      401135           0
</event>
<event>
      5   9999  3.79277E-02  7.01974E+01 -1.00000E+00  1.31159E-01
      21    -1     0     0   502   501  0.000000000E+00  0.000000000E+00  1.471032480E+02  1.471032480E+02  0.000000000E+00  0.00000E+00  9.000E+00
      21    -1     0     0   511   502  0.000000000E+00  0.000000000E+00 -1.194271178E+03  1.194271178E+03  0.000000000E+00  0.00000E+00  9.000E+00
      25     1     1     2     0     0  5.525299969E+01 -9.496543869E+01 -3.166556545E+02  3.577249391E+02  1.250000000E+02  0.00000E+00  9.000E+00
      25     1     1     2     0     0  1.486800996E+01  9.823948364E+01  7.406272063E+01  1.760180117E+02  1.250000000E+02  0.00000E+00  9.000E+00
      21     1     1     2   511   501 -7.012100965E+01 -3.274044955E+00 -8.045749956E+02  8.076314747E+02  1.525878906E-05  0.00000E+00  9.000E+00
#rwgt            1           1   1.7977960725157387E-002           4      401278           0
</event>
<event>
      5   9999  3.79277E-02  2.91138E+01 -1.00000E+00  1.53950E-01
      21    -1     0     0   502   501  0.000000000E+00  0.000000000E+00  3.306502058E+02  3.306502058E+02  0.000000000E+00  0.00000E+00  9.000E+00
      21    -1     0     0   512   502  0.000000000E+00  0.000000000E+00 -1.474787745E+02  1.474787745E+02  0.000000000E+00  0.00000E+00  9.000E+00
      25     1     1     2     0     0 -1.491516588E+02  8.018962819E+01  7.627371029E+01  2.238733407E+02  1.250000000E+02  0.00000E+00  9.000E+00
      25     1     1     2     0     0  1.250383029E+02 -9.650396055E+01  9.641205635E+01  2.233111645E+02  1.250000000E+02  0.00000E+00  9.000E+00
      21     1     1     2   512   501  2.411335594E+01  1.631433237E+01  1.048566461E+01  3.094447507E+01  4.129530925E-07  0.00000E+00  9.000E+00
#rwgt            1           1   4.5169484566199562E-002           4      401483           0
</event>
<event>
      5   9999 -3.79277E-02  4.79366E+01 -1.00000E+00  1.40128E-01
      21    -1     0     0   511   501  0.000000000E+00  0.000000000E+00  4.329664779E+01  4.329664779E+01  0.000000000E+00  0.00000E+00  9.000E+00
      21    -1     0     0   501   502  0.000000000E+00  0.000000000E+00 -2.282495343E+03  2.282495343E+03  0.000000000E+00  0.00000E+00  9.000E+00
      25     1     1     2     0     0 -1.929521095E+02 -1.858218271E+02 -1.446785532E+03  1.476676554E+03  1.250000000E+02  0.00000E+00  9.000E+00
      25     1     1     2     0     0  1.498354601E+02  1.648724867E+02 -6.314681146E+02  6.811832219E+02  1.250000000E+02  0.00000E+00  9.000E+00
      21     1     1     2   511   502  4.311664935E+01  2.094934039E+01 -1.609450482E+02  1.679322151E+02  0.000000000E+00  0.00000E+00  9.000E+00
#rwgt            1           1 -0.22513657236869422                4      401694           0
</event>
<event>
      5   9999 -3.79277E-02  8.16552E+00 -1.00000E+00  2.06514E-01
      -2    -1     0     0     0   501  0.000000000E+00  0.000000000E+00  2.033394989E+03  2.033394989E+03  0.000000000E+00  0.00000E+00  9.000E+00
      21    -1     0     0   501   502  0.000000000E+00  0.000000000E+00 -7.447311365E+01  7.447311365E+01  0.000000000E+00  0.00000E+00  9.000E+00
      25     1     1     2     0     0  2.115481647E+02 -2.088446937E+02  1.235194694E+03  1.276596908E+03  1.250000000E+02  0.00000E+00  9.000E+00
      25     1     1     2     0     0 -2.168099599E+02  2.150888303E+02  4.531501341E+02  5.605709658E+02  1.250000000E+02  0.00000E+00  9.000E+00
      -2     1     1     2     0   502  5.261795179E+00 -6.244136558E+00  2.705770469E+02  2.707002291E+02  5.394796609E-06  0.00000E+00  9.000E+00
#rwgt            1           1 -0.36303354170704472                4      401918           0
</event>
<event>
      5   9999  3.79277E-02  1.11635E+02 -1.00000E+00  1.21716E-01
      21    -1     0     0   502   501  0.000000000E+00  0.000000000E+00  2.206892208E+02  2.206892208E+02  0.000000000E+00  0.00000E+00  9.000E+00
      21    -1     0     0   511   502  0.000000000E+00  0.000000000E+00 -4.987094387E+02  4.987094387E+02  0.000000000E+00  0.00000E+00  9.000E+00
      25     1     1     2     0     0  1.748970616E+02  1.080328488E+02  5.855892237E+01  2.476170955E+02  1.250000000E+02  0.00000E+00  9.000E+00
      25     1     1     2     0     0 -6.674916517E+01 -8.034970163E+01 -6.013080546E+01  1.736440018E+02  1.250000000E+02  0.00000E+00  9.000E+00
      21     1     1     2   511   501 -1.081478964E+02 -2.768314721E+01 -2.764483349E+02  2.981375622E+02  3.814697266E-06  0.00000E+00  9.000E+00
#rwgt            1           1   4.4295483498762479E-002           4      402227           0
</event>
<event>
      5   9999  3.79277E-02  4.27613E+01 -1.00000E+00  1.43065E-01
      21    -1     0     0   502   512  0.000000000E+00  0.000000000E+00  1.263178099E+03  1.263178099E+03  0.000000000E+00  0.00000E+00  9.000E+00
      21    -1     0     0   501   502  0.000000000E+00  0.000000000E+00 -2.741522389E+02  2.741522389E+02  0.000000000E+00  0.00000E+00  9.000E+00
      25     1     1     2     0     0  3.245544555E+02  4.418781946E+01  7.091813679E+01  3.576905648E+02  1.250000000E+02  0.00000E+00  9.000E+00
      25     1     1     2     0     0 -3.017987251E+02 -7.984133770E+00  7.475121573E+01  3.351998824E+02  1.250000000E+02  0.00000E+00  9.000E+00
      21     1     1     2   501   512 -2.275573040E+01 -3.620368569E+01  8.433565073E+02  8.444398904E+02  1.525878906E-05  0.00000E+00  9.000E+00
#rwgt            1           1  0.25089049951801384                4      402389           0
</event>
<event>
      5   9999  3.79277E-02  9.85470E+01 -1.00000E+00  1.24115E-01
      21    -1     0     0   502   501  0.000000000E+00  0.000000000E+00  1.227819621E+02  1.227819621E+02  0.000000000E+00  0.00000E+00  9.000E+00
      21    -1     0     0   511   502  0.000000000E+00  0.000000000E+00 -4.954624109E+02  4.954624109E+02  0.000000000E+00  0.00000E+00  9.000E+00
      25     1     1     2     0     0  1.050432510E+02  8.815483255E+01 -1.396114952E+01  1.860786736E+02  1.250000000E+02  0.00000E+00  9.000E+00
      25     1     1     2     0     0 -1.491901418E+01 -4.829101847E+01 -1.521640470E+02  2.033064107E+02  1.250000000E+02  0.00000E+00  9.000E+00
      21     1     1     2   511   501 -9.012423684E+01 -3.986381408E+01 -2.065552523E+02  2.288592886E+02  0.000000000E+00  0.00000E+00  9.000E+00
#rwgt            1           1   5.0875107857266164E-002           4      402552           0
</event>
<event>
      5   9999  3.79277E-02  3.20865E+01 -1.00000E+00  1.51039E-01
      21    -1     0     0   502   501  0.000000000E+00  0.000000000E+00  3.322305976E+02  3.322305976E+02  0.000000000E+00  0.00000E+00  9.000E+00
      21    -1     0     0   501   512  0.000000000E+00  0.000000000E+00 -1.639530259E+02  1.639530259E+02  0.000000000E+00  0.00000E+00  9.000E+00
      25     1     1     2     0     0 -1.764752081E+02 -6.863276433E+01  7.291894355E+01  2.383193818E+02  1.250000000E+02  0.00000E+00  9.000E+00
      25     1     1     2     0     0  1.448690652E+02  7.416404194E+01  9.408407504E+01  2.257524404E+02  1.250000000E+02  0.00000E+00  9.000E+00
      21     1     1     2   502   512  3.160614294E+01 -5.531277610E+00  1.274553112E+00  3.211180140E+01  6.862627828E-07  0.00000E+00  9.000E+00
#rwgt            1           1   2.8063317314605336E-002           4      402673           0
</event>
<event>
      5   9999  3.79277E-02  1.11079E+02 -1.00000E+00  1.21810E-01
      21    -1     0     0   502   501  0.000000000E+00  0.000000000E+00  1.705944938E+02  1.705944938E+02  0.000000000E+00  0.00000E+00  9.000E+00
      -1    -1     0     0     0   502  0.000000000E+00  0.000000000E+00 -9.353743945E+02  9.353743945E+02  0.000000000E+00  0.00000E+00  9.000E+00
      25     1     1     2     0     0 -1.369710066E+02 -4.131411611E+01  8.403377418E+01  2.077368240E+02  1.250000000E+02  0.00000E+00  9.000E+00
      25     1     1     2     0     0  1.014639600E+02 -6.393716020E+01 -4.004162895E+02  4.362809880E+02  1.250000000E+02  0.00000E+00  9.000E+00
      -1     1     1     2     0   501  3.550704666E+01  1.052512763E+02 -4.483973855E+02  4.619510762E+02  5.394796609E-06  0.00000E+00  9.000E+00
#rwgt            1           1   4.1280355032205313E-002           4      402851           0
</event>
<event>
      5   9999  3.79277E-02  1.77437E+01 -1.00000E+00  1.70776E-01
      21    -1     0     0   502   501  0.000000000E+00  0.000000000E+00  3.561308007E+02  3.561308007E+02  0.000000000E+00  0.00000E+00  9.000E+00
      21    -1     0     0   501   511  0.000000000E+00  0.000000000E+00 -9.314811560E+02  9.314811560E+02  0.000000000E+00  0.00000E+00  9.000E+00
      25     1     1     2     0     0 -1.384235393E+02  1.030216691E+02  2.843521171E+02  3.553247346E+02  1.250000000E+02  0.00000E+00  9.000E+00
      25     1     1     2     0     0  1.378113887E+02 -1.207548364E+02 -3.040822342E+02  3.763837331E+02  1.250000000E+02  0.00000E+00  9.000E+00
      21     1     1     2   502   511  6.121505552E-01  1.773316738E+01 -5.556202382E+02  5.559034890E+02  7.629394531E-06  0.00000E+00  9.000E+00
#rwgt            1           1   4.5672406343443862E-002           4      403021           0
</event>
<event>
      5   9999  3.79277E-02  6.37019E+01 -1.00000E+00  1.33328E-01
      21    -1     0     0   512   501  0.000000000E+00  0.000000000E+00  5.326265286E+02  5.326265286E+02  0.000000000E+00  0.00000E+00  9.000E+00
      21    -1     0     0   501   502  0.000000000E+00  0.000000000E+00 -1.641451924E+02  1.641451924E+02  0.000000000E+00  0.00000E+00  9.000E+00
      25     1     1     2     0     0  3.786633940E+01  1.958514365E+02  3.667572536E+01  2.382472532E+02  1.250000000E+02  0.00000E+00  9.000E+00
      25     1     1     2     0     0 -1.012342736E+02 -1.893366767E+02  2.307601143E+02  3.390751918E+02  1.250000000E+02  0.00000E+00  9.000E+00
      21     1     1     2   512   502  6.336793425E+01 -6.514759760E+00  1.010454966E+02  1.194492761E+02  1.348699152E-06  0.00000E+00  9.000E+00
#rwgt            1           1   3.7604488756646265E-002           4      403285           0
</event>
<event>
      5   9999  3.79277E-02  3.09193E+01 -1.00000E+00  1.52135E-01
      21    -1     0     0   502   501  0.000000000E+00  0.000000000E+00  1.265889594E+03  1.265889594E+03  0.000000000E+00  0.00000E+00  9.000E+00
      21    -1     0     0   511   502  0.000000000E+00  0.000000000E+00 -5.389781480E+01  5.389781480E+01  0.000000000E+00  0.00000E+00  9.000E+00
      25     1     1     2     0     0 -1.682668426E+02  6.869453714E+01  2.866897817E+02  3.617301490E+02  1.250000000E+02  0.00000E+00  9.000E+00
      25     1     1     2     0     0  1.373564252E+02 -6.943565750E+01  8.867061750E+02  9.086038404E+02  1.250000000E+02  0.00000E+00  9.000E+00
      21     1     1     2   511   501  3.091041745E+01  7.411203650E-01  3.859582219E+01  4.945341906E+01  1.168007728E-06  0.00000E+00  9.000E+00
#rwgt            1           1   3.3600464456899556E-002           4      403369           0
</event>
<event>
      5   9999  3.79277E-02  2.34053E+01 -1.00000E+00  1.60925E-01
      21    -1     0     0   502   501  0.000000000E+00  0.000000000E+00  3.496369287E+02  3.496369287E+02  0.000000000E+00  0.00000E+00  9.000E+00
      21    -1     0     0   501   512  0.000000000E+00  0.000000000E+00 -3.377186432E+02  3.377186432E+02  0.000000000E+00  0.00000E+00  9.000E+00
      25     1     1     2     0     0  1.074136249E+02  1.407340394E+02  6.123212291E+01  2.252068594E+02  1.250000000E+02  0.00000E+00  9.000E+00
      25     1     1     2     0     0 -8.488372093E+01 -1.343929484E+02  1.560672804E+02  2.554382639E+02  1.250000000E+02  0.00000E+00  9.000E+00
      21     1     1     2   502   512 -2.252990401E+01 -6.341090960E+00 -2.053811178E+02  2.067104486E+02  2.697398305E-06  0.00000E+00  9.000E+00
#rwgt            1           1  0.11397526709689693                4      403524           0
</event>
<event>
      5   9999  3.79277E-02  7.07449E+01 -1.00000E+00  1.30988E-01
      21    -1     0     0   502   501  0.000000000E+00  0.000000000E+00  1.168319749E+03  1.168319749E+03  0.000000000E+00  0.00000E+00  9.000E+00
      21    -1     0     0   501   511  0.000000000E+00  0.000000000E+00 -7.670046726E+01  7.670046726E+01  0.000000000E+00  0.00000E+00  9.000E+00
      25     1     1     2     0     0 -7.775513332E+00 -3.831752671E+01  1.092661575E+02  1.705660712E+02  1.250000000E+02  0.00000E+00  9.000E+00
      25     1     1     2     0     0  5.191263763E+01  9.360546808E+01  9.897368629E+02  1.003324954E+03  1.250000000E+02  0.00000E+00  9.000E+00
      21     1     1     2   502   511 -4.413712430E+01 -5.528794137E+01 -7.383738814E+00  7.112919092E+01  1.946071114E-06  0.00000E+00  9.000E+00
#rwgt            1           1   2.9192008166855198E-002           4      403763           0
</event>
<event>
      5   9999  3.79277E-02  5.85758E+00 -1.00000E+00  2.27104E-01
      21    -1     0     0   502   501  0.000000000E+00  0.000000000E+00  1.047072786E+03  1.047072786E+03  0.000000000E+00  0.00000E+00  9.000E+00
      21    -1     0     0   501   512  0.000000000E+00  0.000000000E+00 -4.812240826E+01  4.812240826E+01  0.000000000E+00  0.00000E+00  9.000E+00
      25     1     1     2     0     0  1.572816733E+02  1.306844211E+01  7.115757269E+02  7.395088398E+02  1.250000000E+02  0.00000E+00  9.000E+00
      25     1     1     2     0     0 -1.605913298E+02 -8.235485839E+00  2.778359325E+02  3.444926760E+02  1.250000000E+02  0.00000E+00  9.000E+00
      21     1     1     2   502   512  3.309656456E+00 -4.832956268E+00  9.538718495E+00  1.119367869E+01  2.665600750E-07  0.00000E+00  9.000E+00
#rwgt            1           1   4.6288781459577863E-002           4      403829           0
</event>
<event>
      5   9999 -3.79277E-02  1.71675E+02 -1.00000E+00  1.14117E-01
      21    -1     0     0   502   511  0.000000000E+00  0.000000000E+00  6.678684390E+02  6.678684390E+02  0.000000000E+00  0.00000E+00  9.000E+00
      21    -1     0     0   501   502  0.000000000E+00  0.000000000E+00 -4.090588135E+02  4.090588135E+02  0.000000000E+00  0.00000E+00  9.000E+00
      25     1     1     2     0     0 -2.941912596E+02  1.858203302E+02 -1.682089743E+02  4.061981676E+02  1.250000000E+02  0.00000E+00  9.000E+00
      25     1     1     2     0     0  2.166810967E+02 -3.263906355E+01  5.100152876E+01  2.573755273E+02  1.250000000E+02  0.00000E+00  9.000E+00
      21     1     1     2   501   511  7.751016291E+01 -1.531812667E+02  3.760170711E+02  4.133535576E+02  0.000000000E+00  0.00000E+00  9.000E+00
#rwgt            1           1  -5.5353728379878391E-002           4      404221           0
</event>
<event>
      5   9999  3.79277E-02  4.02834E+01 -1.00000E+00  1.44650E-01
      21    -1     0     0   502   501  0.000000000E+00  0.000000000E+00  4.891783194E+02  4.891783194E+02  0.000000000E+00  0.00000E+00  9.000E+00
      21    -1     0     0   501   512  0.000000000E+00  0.000000000E+00 -3.077789242E+02  3.077789242E+02  0.000000000E+00  0.00000E+00  9.000E+00
      25     1     1     2     0     0  2.683918428E+02  1.528869901E+02 -2.160332201E+01  3.339166311E+02  1.250000000E+02  0.00000E+00  9.000E+00
      25     1     1     2     0     0 -3.043033590E+02 -1.346354700E+02  2.213817225E+02  4.187625952E+02  1.250000000E+02  0.00000E+00  9.000E+00
      21     1     1     2   502   512  3.591151616E+01 -1.825152011E+01 -1.837900522E+01  4.427801726E+01  5.331201500E-07  0.00000E+00  9.000E+00
#rwgt            1           1   2.9984898652750232E-002           4      404338           0
</event>
<event>
      5   9999  3.79277E-02  5.62868E+01 -1.00000E+00  1.36203E-01
      21    -1     0     0   511   501  0.000000000E+00  0.000000000E+00  5.479986115E+02  5.479986115E+02  0.000000000E+00  0.00000E+00  9.000E+00
      21    -1     0     0   501   502  0.000000000E+00  0.000000000E+00 -1.854813854E+02  1.854813854E+02  0.000000000E+00  0.00000E+00  9.000E+00
      25     1     1     2     0     0 -1.392245785E+02 -1.956336997E+02  1.798757573E+02  3.250174084E+02  1.250000000E+02  0.00000E+00  9.000E+00
      25     1     1     2     0     0  8.294227310E+01  1.963410756E+02  3.387359500E+01  2.494026043E+02  1.250000000E+02  0.00000E+00  9.000E+00
      21     1     1     2   511   502  5.628230538E+01 -7.073758683E-01  1.487678738E+02  1.590599841E+02  1.907348633E-06  0.00000E+00  9.000E+00
#rwgt            1           1   1.5950997526547883E-002           4      404514           0
</event>
<event>
      5   9999  3.79277E-02  2.43909E+02 -1.00000E+00  1.08597E-01
      21    -1     0     0   502   501  0.000000000E+00  0.000000000E+00  4.634772865E+02  4.634772865E+02  0.000000000E+00  0.00000E+00  9.000E+00
      21    -1     0     0   512   502  0.000000000E+00  0.000000000E+00 -3.958044542E+02  3.958044542E+02  0.000000000E+00  0.00000E+00  9.000E+00
      25     1     1     2     0     0  1.487268294E+02  1.221409432E+02 -9.023387900E+01  2.465871707E+02  1.250000000E+02  0.00000E+00  9.000E+00
      25     1     1     2     0     0  4.678951603E+01  2.368489207E+01  3.008545579E+02  3.299828752E+02  1.250000000E+02  0.00000E+00  9.000E+00
      21     1     1     2   512   501 -1.955163455E+02 -1.458258353E+02 -1.429478466E+02  2.827116949E+02  5.046370146E-06  0.00000E+00  9.000E+00
#rwgt            1           1   4.3471233398515892E-002           4      404706           0
</event>
<event>
      5   9999  3.79277E-02  7.70566E+01 -1.00000E+00  1.29142E-01
      21    -1     0     0   502   501  0.000000000E+00  0.000000000E+00  1.017006364E+03  1.017006364E+03  0.000000000E+00  0.00000E+00  9.000E+00
      21    -1     0     0   501   511  0.000000000E+00  0.000000000E+00 -3.837312751E+01  3.837312751E+01  0.000000000E+00  0.00000E+00  9.000E+00
      25     1     1     2     0     0  4.855679422E+01 -1.260200094E+01  2.137656880E+02  2.526605273E+02  1.250000000E+02  0.00000E+00  9.000E+00
      25     1     1     2     0     0 -1.109228531E+01 -5.473398385E+01  6.509225965E+02  6.651646972E+02  1.250000000E+02  0.00000E+00  9.000E+00
      21     1     1     2   502   511 -3.746450892E+01  6.733598478E+01  1.139449517E+02  1.375542667E+02  1.348699152E-06  0.00000E+00  9.000E+00
#rwgt            1           1  0.13101088546676279                4      404750           0
</event>
<event>
      5   9999  3.79277E-02  7.39019E+01 -1.00000E+00  1.30039E-01
      21    -1     0     0   502   501  0.000000000E+00  0.000000000E+00  2.341159979E+03  2.341159979E+03  0.000000000E+00  0.00000E+00  9.000E+00
      21    -1     0     0   512   502  0.000000000E+00  0.000000000E+00 -7.507295086E+01  7.507295086E+01  0.000000000E+00  0.00000E+00  9.000E+00
      25     1     1     2     0     0 -6.375347524E+00 -1.446835608E+02  1.865255461E+03  1.875040509E+03  1.250000000E+02  0.00000E+00  9.000E+00
      25     1     1     2     0     0  7.794648266E+01  1.262699939E+02  4.218752999E+02  4.643528122E+02  1.250000000E+02  0.00000E+00  9.000E+00
      21     1     1     2   512   501 -7.157113513E+01  1.841356685E+01 -2.104373201E+01  7.683960883E+01  9.830249847E-07  0.00000E+00  9.000E+00
#rwgt            1           1   8.8193383962452659E-002           4      404806           0
</event>
<event>
      5   9999  3.79277E-02  8.13519E+01 -1.00000E+00  1.27998E-01
      21    -1     0     0   502   501  0.000000000E+00  0.000000000E+00  1.333976497E+02  1.333976497E+02  0.000000000E+00  0.00000E+00  9.000E+00
      21    -1     0     0   501   511  0.000000000E+00  0.000000000E+00 -5.901698183E+02  5.901698183E+02  0.000000000E+00  0.00000E+00  9.000E+00
      25     1     1     2     0     0 -1.956364567E+02 -2.709259710E+01 -1.039477699E+02  2.558080743E+02  1.250000000E+02  0.00000E+00  9.000E+00
      25     1     1     2     0     0  1.180702243E+02  2.564744289E+00 -9.301127417E+01  1.955076799E+02  1.250000000E+02  0.00000E+00  9.000E+00
      21     1     1     2   502   511  7.756623237E+01  2.452785281E+01 -2.598131246E+02  2.722517138E+02  5.394796609E-06  0.00000E+00  9.000E+00
#rwgt            1           1   3.0323344095563341E-002           4      404905           0
</event>
<event>
      5   9999  3.79277E-02  1.61137E+01 -1.00000E+00  1.74503E-01
      21    -1     0     0   512   501  0.000000000E+00  0.000000000E+00  8.141831525E+01  8.141831525E+01  0.000000000E+00  0.00000E+00  9.000E+00
      21    -1     0     0   501   502  0.000000000E+00  0.000000000E+00 -9.506620468E+02  9.506620468E+02  0.000000000E+00  0.00000E+00  9.000E+00
      25     1     1     2     0     0  2.155397082E+02  9.597028030E+01 -3.582144140E+02  4.467776034E+02  1.250000000E+02  0.00000E+00  9.000E+00
      25     1     1     2     0     0 -2.237120581E+02 -8.208274078E+01 -4.863396408E+02  5.558200316E+02  1.250000000E+02  0.00000E+00  9.000E+00
      21     1     1     2   512   502  8.172349924E+00 -1.388753952E+01 -2.468967677E+01  2.948272708E+01  4.768371582E-07  0.00000E+00  9.000E+00
#rwgt            1           1   3.4791662876039069E-002           4      404982           0
</event>
<event>
      5   9999  3.79277E-02  3.15181E+01 -1.00000E+00  1.51566E-01
      21    -1     0     0   502   501  0.000000000E+00  0.000000000E+00  3.788310766E+02  3.788310766E+02  0.000000000E+00  0.00000E+00  9.000E+00
      21    -1     0     0   501   511  0.000000000E+00  0.000000000E+00 -1.942156907E+02  1.942156907E+02  0.000000000E+00  0.00000E+00  9.000E+00
      25     1     1     2     0     0 -7.541230526E+01 -1.981363397E+01  3.088199872E+02  3.421613367E+02  1.250000000E+02  0.00000E+00  9.000E+00
      25     1     1     2     0     0  9.604885012E+01 -4.009146625E+00 -1.218426829E+02  1.992789358E+02  1.250000000E+02  0.00000E+00  9.000E+00
      21     1     1     2   502   511 -2.063654487E+01  2.382278059E+01 -2.361918443E+00  3.160649487E+01  1.861154437E-07  0.00000E+00  9.000E+00
#rwgt            1           1   4.2168627198813743E-002           4      405182           0
</event>
<event>
      5   9999  3.79277E-02  2.49627E+01 -1.00000E+00  1.58799E-01
      21    -1     0     0   502   512  0.000000000E+00  0.000000000E+00  1.336239361E+02  1.336239361E+02  0.000000000E+00  0.00000E+00  9.000E+00
      21    -1     0     0   501   502  0.000000000E+00  0.000000000E+00 -1.912060311E+02  1.912060311E+02  0.000000000E+00  0.00000E+00  9.000E+00
      25     1     1     2     0     0 -4.667047908E+01 -1.952257413E+01  1.023669100E+01  1.352370303E+02  1.250000000E+02  0.00000E+00  9.000E+00
      25     1     1     2     0     0  6.564650117E+01  3.303883334E+00 -7.946235796E+01  1.620482801E+02  1.250000000E+02  0.00000E+00  9.000E+00
      21     1     1     2   501   512 -1.897602209E+01  1.621869079E+01  1.164357195E+01  2.754465671E+01  2.920019320E-07  0.00000E+00  9.000E+00
#rwgt            1           1   5.2767573942479981E-002           4      405374           0
</event>
<event>
      5   9999  3.79277E-02  2.12934E+01 -1.00000E+00  1.64154E-01
      21    -1     0     0   502   501  0.000000000E+00  0.000000000E+00  1.009435693E+03  1.009435693E+03  0.000000000E+00  0.00000E+00  9.000E+00
      21    -1     0     0   511   502  0.000000000E+00  0.000000000E+00 -2.120170705E+02  2.120170705E+02  0.000000000E+00  0.00000E+00  9.000E+00
      25     1     1     2     0     0 -4.146944412E+02  9.148693478E+01  2.668826728E+02  5.169068580E+02  1.250000000E+02  0.00000E+00  9.000E+00
      25     1     1     2     0     0  3.957286301E+02 -8.180664843E+01  5.357701649E+02  6.826185949E+02  1.250000000E+02  0.00000E+00  9.000E+00
      21     1     1     2   511   501  1.896581107E+01 -9.680286356E+00 -5.234215445E+00  2.192731048E+01  2.731427965E-07  0.00000E+00  9.000E+00
#rwgt            1           1   1.9193261923666157E-002           4      405529           0
</event>
<event>
      5   9999  3.79277E-02  2.49031E+01 -1.00000E+00  1.58877E-01
      21    -1     0     0   502   501  0.000000000E+00  0.000000000E+00  1.699327803E+03  1.699327803E+03  0.000000000E+00  0.00000E+00  9.000E+00
      21    -1     0     0   501   512  0.000000000E+00  0.000000000E+00 -1.312956712E+02  1.312956712E+02  0.000000000E+00  0.00000E+00  9.000E+00
      25     1     1     2     0     0  1.530384817E+02  1.124242774E+02  4.291555304E+02  4.856536464E+02  1.250000000E+02  0.00000E+00  9.000E+00
      25     1     1     2     0     0 -1.755812404E+02 -1.018418198E+02  1.228775847E+03  1.251685108E+03  1.250000000E+02  0.00000E+00  9.000E+00
      21     1     1     2   502   512  2.254275868E+01 -1.058245761E+01 -8.989924602E+01  9.328471907E+01  2.861022949E-06  0.00000E+00  9.000E+00
#rwgt            1           1   4.7294156803284908E-002           4      405720           0
</event>
<event>
      5   9999  3.79277E-02  2.45541E+02 -1.00000E+00  1.08498E-01
      21    -1     0     0   502   511  0.000000000E+00  0.000000000E+00  4.662270437E+02  4.662270437E+02  0.000000000E+00  0.00000E+00  9.000E+00
      21    -1     0     0   501   502  0.000000000E+00  0.000000000E+00 -4.090136978E+02  4.090136978E+02  0.000000000E+00  0.00000E+00  9.000E+00
      25     1     1     2     0     0  1.799800164E+02  2.848961173E+02  1.840306643E+02  4.037956034E+02  1.250000000E+02  0.00000E+00  9.000E+00
      25     1     1     2     0     0 -3.482095399E+01 -8.685763857E+01 -1.601248374E+02  2.236553415E+02  1.250000000E+02  0.00000E+00  9.000E+00
      21     1     1     2   501   511 -1.451590624E+02 -1.980384788E+02  3.330751909E+01  2.477897966E+02  5.309833873E-06  0.00000E+00  9.000E+00
#rwgt            1           1   4.0853068250683473E-002           4      405904           0
</event>
<event>
      5   9999  3.79277E-02  4.24147E+01 -1.00000E+00  1.43279E-01
      21    -1     0     0   502   501  0.000000000E+00  0.000000000E+00  1.461141721E+02  1.461141721E+02  0.000000000E+00  0.00000E+00  9.000E+00
      21    -1     0     0   501   512  0.000000000E+00  0.000000000E+00 -6.688564261E+02  6.688564261E+02  0.000000000E+00  0.00000E+00  9.000E+00
      25     1     1     2     0     0 -1.411382770E+02 -6.775509573E+01  3.232317000E+01  2.029299228E+02  1.250000000E+02  0.00000E+00  9.000E+00
      25     1     1     2     0     0  1.363957306E+02  1.099037845E+02 -4.530639783E+02  5.015721340E+02  1.250000000E+02  0.00000E+00  9.000E+00
      21     1     1     2   502   512  4.742546446E+00 -4.214868879E+01 -1.020014457E+02  1.104685414E+02  0.000000000E+00  0.00000E+00  9.000E+00
#rwgt            1           1   3.9778425972518544E-002           4      406024           0
</event>
<event>
      5   9999  3.79277E-02  6.53937E+01 -1.00000E+00  1.32736E-01
      21    -1     0     0   502   501  0.000000000E+00  0.000000000E+00  6.603687922E+02  6.603687922E+02  0.000000000E+00  0.00000E+00  9.000E+00
      21    -1     0     0   501   511  0.000000000E+00  0.000000000E+00 -1.747100352E+02  1.747100352E+02  0.000000000E+00  0.00000E+00  9.000E+00
      25     1     1     2     0     0  1.060755367E+02  5.995281578E+01  5.817626273E+02  6.073871205E+02  1.250000000E+02  0.00000E+00  9.000E+00
      25     1     1     2     0     0 -4.831089545E+01 -2.930030916E+01 -8.495903233E+01  1.613551608E+02  1.250000000E+02  0.00000E+00  9.000E+00
      21     1     1     2   502   511 -5.776464122E+01 -3.065250662E+01 -1.114483797E+01  6.633654612E+01  8.760057960E-07  0.00000E+00  9.000E+00
#rwgt            1           1   5.0710841908170289E-002           4      406215           0
</event>
<event>
      5   9999  3.79277E-02  5.06514E+00 -1.00000E+00  2.37538E-01
      21    -1     0     0   502   501  0.000000000E+00  0.000000000E+00  2.934043936E+02  2.934043936E+02  0.000000000E+00  0.00000E+00  9.000E+00
      21    -1     0     0   501   512  0.000000000E+00  0.000000000E+00 -2.222623807E+02  2.222623807E+02  0.000000000E+00  0.00000E+00  9.000E+00
      25     1     1     2     0     0  1.624052427E+02  9.847408213E+01  1.316338802E+02  2.627262570E+02  1.250000000E+02  0.00000E+00  9.000E+00
      25     1     1     2     0     0 -1.619517349E+02 -9.342928736E+01 -3.580277484E+01  2.277372057E+02  1.250000000E+02  0.00000E+00  9.000E+00
      21     1     1     2   502   512 -4.535077345E-01 -5.044794775E+00 -2.468909254E+01  2.520331157E+01  3.371747881E-07  0.00000E+00  9.000E+00
#rwgt            1           1   6.1258206845004881E-002           4      406340           0
</event>
<event>
      5   9999  3.79277E-02  1.58773E+01 -1.00000E+00  1.75089E-01
      21    -1     0     0   502   511  0.000000000E+00  0.000000000E+00  1.093542814E+02  1.093542814E+02  0.000000000E+00  0.00000E+00  9.000E+00
      21    -1     0     0   501   502  0.000000000E+00  0.000000000E+00 -7.315949955E+02  7.315949955E+02  0.000000000E+00  0.00000E+00  9.000E+00
      25     1     1     2     0     0 -7.293910377E-01  2.365967904E+02 -3.719993210E+02  4.582434594E+02  1.250000000E+02  0.00000E+00  9.000E+00
      25     1     1     2     0     0  1.565687008E+01 -2.420060222E+02 -2.425732997E+02  3.650737707E+02  1.250000000E+02  0.00000E+00  9.000E+00
      21     1     1     2   501   511 -1.492747904E+01  5.409231773E+00 -7.668093408E+00  1.763204683E+01  2.230201594E-07  0.00000E+00  9.000E+00
#rwgt            1           1   3.1739215192548936E-002           4      406796           0
</event>
<event>
      5   9999  3.79277E-02  5.39238E+01 -1.00000E+00  1.37229E-01
      21    -1     0     0   512   501  0.000000000E+00  0.000000000E+00  1.131056876E+03  1.131056876E+03  0.000000000E+00  0.00000E+00  9.000E+00
      21    -1     0     0   501   502  0.000000000E+00  0.000000000E+00 -7.596284120E+02  7.596284120E+02  0.000000000E+00  0.00000E+00  9.000E+00
      25     1     1     2     0     0  1.173159596E+01 -2.527441116E+01 -1.236725974E+02  1.780346526E+02  1.250000000E+02  0.00000E+00  9.000E+00
      25     1     1     2     0     0  2.640504270E+01  6.339755638E+01 -5.997486578E+02  6.164737861E+02  1.250000000E+02  0.00000E+00  9.000E+00
      21     1     1     2   512   502 -3.813663866E+01 -3.812314522E+01  1.094849719E+03  1.096176849E+03  2.157918644E-05  0.00000E+00  9.000E+00
#rwgt            1           1   2.5189144545949595E-002           4      407049           0
</event>
<event>
      5   9999  3.79277E-02  1.11336E+01 -1.00000E+00  1.90516E-01
      21    -1     0     0   502   501  0.000000000E+00  0.000000000E+00  4.874803854E+01  4.874803854E+01  0.000000000E+00  0.00000E+00  9.000E+00
      21    -1     0     0   501   511  0.000000000E+00  0.000000000E+00 -1.231093016E+03  1.231093016E+03  0.000000000E+00  0.00000E+00  9.000E+00
      25     1     1     2     0     0 -3.598361984E+01  1.710355984E+02 -7.541715923E+02  7.841860668E+02  1.250000000E+02  0.00000E+00  9.000E+00
      25     1     1     2     0     0  3.633281378E+01 -1.599074763E+02 -2.834979951E+02  3.505518329E+02  1.250000000E+02  0.00000E+00  9.000E+00
      21     1     1     2   502   511 -3.491939370E-01 -1.112812217E+01 -1.446753904E+02  1.451031552E+02  0.000000000E+00  0.00000E+00  9.000E+00
#rwgt            1           1   2.6958243816286059E-002           4      407219           0
</event>
<event>
      5   9999  3.79277E-02  3.82589E+02 -1.00000E+00  1.02270E-01
      21    -1     0     0   512   501  0.000000000E+00  0.000000000E+00  4.109344075E+02  4.109344075E+02  0.000000000E+00  0.00000E+00  9.000E+00
      21    -1     0     0   501   502  0.000000000E+00  0.000000000E+00 -6.374658470E+02  6.374658470E+02  0.000000000E+00  0.00000E+00  9.000E+00
      25     1     1     2     0     0 -1.758277388E+02  2.266392753E+02 -3.069497306E+02  4.383193949E+02  1.250000000E+02  0.00000E+00  9.000E+00
      25     1     1     2     0     0 -7.654306052E+01  6.090815784E+01  1.532356211E+02  2.206236601E+02  1.250000000E+02  0.00000E+00  9.000E+00
      21     1     1     2   512   502  2.523707993E+02 -2.875474331E+02 -7.281732998E+01  3.894571994E+02  4.955437110E-06  0.00000E+00  9.000E+00
#rwgt            1           1   4.2446458827444772E-002           4      407504           0
</event>
<event>
      5   9999  3.79277E-02  4.34002E+01 -1.00000E+00  1.42676E-01
      21    -1     0     0   502   501  0.000000000E+00  0.000000000E+00  6.451344475E+02  6.451344475E+02  0.000000000E+00  0.00000E+00  9.000E+00
      21    -1     0     0   501   511  0.000000000E+00  0.000000000E+00 -2.223898494E+02  2.223898494E+02  0.000000000E+00  0.00000E+00  9.000E+00
      25     1     1     2     0     0 -1.149692881E+01  2.232055176E+02  4.735228653E+02  5.383324126E+02  1.250000000E+02  0.00000E+00  9.000E+00
      25     1     1     2     0     0  4.869567869E+01 -2.455624132E+02 -5.635500981E+01  2.854348525E+02  1.250000000E+02  0.00000E+00  9.000E+00
      21     1     1     2   502   511 -3.719874989E+01  2.235689559E+01  5.576742527E+00  4.375703179E+01  2.731427965E-07  0.00000E+00  9.000E+00
#rwgt            1           1   2.3540778658354113E-002           4      407622           0
</event>
<event>
      5   9999  3.79277E-02  2.67427E+01 -1.00000E+00  1.56590E-01
      21    -1     0     0   502   501  0.000000000E+00  0.000000000E+00  5.196402091E+01  5.196402091E+01  0.000000000E+00  0.00000E+00  9.000E+00
      21    -1     0     0   512   502  0.000000000E+00  0.000000000E+00 -1.168099595E+03  1.168099595E+03  0.000000000E+00  0.00000E+00  9.000E+00
      25     1     1     2     0     0  3.436640602E+01  1.000947303E+02 -3.474256517E+02  3.840958062E+02  1.250000000E+02  0.00000E+00  9.000E+00
      25     1     1     2     0     0 -6.107969403E+01 -9.884160545E+01 -1.851874275E+02  2.518328321E+02  1.250000000E+02  0.00000E+00  9.000E+00
      21     1     1     2   512   501  2.671328801E+01 -1.253124890E+00 -5.835224950E+02  5.841349778E+02  7.629394531E-06  0.00000E+00  9.000E+00
#rwgt            1           1   3.9811200339434395E-002           4      407771           0
</event>
<event>
      5   9999  3.79277E-02  6.41257E+01 -1.00000E+00  1.33178E-01
      21    -1     0     0   502   501  0.000000000E+00  0.000000000E+00  1.475108376E+02  1.475108376E+02  0.000000000E+00  0.00000E+00  9.000E+00
      21    -1     0     0   511   502  0.000000000E+00  0.000000000E+00 -9.406430340E+02  9.406430340E+02  0.000000000E+00  0.00000E+00  9.000E+00
      25     1     1     2     0     0 -1.032948120E+02  1.077739914E+02  6.147419207E+01  2.041791559E+02  1.250000000E+02  0.00000E+00  9.000E+00
      25     1     1     2     0     0  5.705724774E+01 -6.334212324E+01 -4.614250351E+02  4.855984114E+02  1.250000000E+02  0.00000E+00  9.000E+00
      21     1     1     2   511   501  4.623756421E+01 -4.443186818E+01 -3.931813533E+02  3.983763043E+02  7.629394531E-06  0.00000E+00  9.000E+00
#rwgt            1           1   1.9308899724533025E-002           4      407947           0
</event>
<event>
      5   9999  3.79277E-02  6.17434E+00 -1.00000E+00  2.23557E-01
      21    -1     0     0   512   501  0.000000000E+00  0.000000000E+00  3.503896580E+02  3.503896580E+02  0.000000000E+00  0.00000E+00  9.000E+00
      21    -1     0     0   501   502  0.000000000E+00  0.000000000E+00 -7.327556047E+02  7.327556047E+02  0.000000000E+00  0.00000E+00  9.000E+00
      25     1     1     2     0     0 -8.727093729E+01 -2.882431224E+01 -5.429719708E+02  5.647040096E+02  1.250000000E+02  0.00000E+00  9.000E+00
      25     1     1     2     0     0  9.176090463E+01  2.458607335E+01 -1.444377770E+02  2.133349715E+02  1.250000000E+02  0.00000E+00  9.000E+00
      21     1     1     2   512   502 -4.489967340E+00  4.238238886E+00  3.050438011E+02  3.051062816E+02  5.394796609E-06  0.00000E+00  9.000E+00
#rwgt            1           1   3.8906241460731766E-002           4      408211           0
</event>
<event>
      5   9999  3.79277E-02  7.81894E+01 -1.00000E+00  1.28833E-01
      21    -1     0     0   511   501  0.000000000E+00  0.000000000E+00  2.108186327E+02  2.108186327E+02  0.000000000E+00  0.00000E+00  9.000E+00
      21    -1     0     0   501   502  0.000000000E+00  0.000000000E+00 -3.343864543E+02  3.343864543E+02  0.000000000E+00  0.00000E+00  9.000E+00
      25     1     1     2     0     0 -5.267817398E+00  1.718176949E+02  1.925766855E+01  2.134125769E+02  1.250000000E+02  0.00000E+00  9.000E+00
      25     1     1     2     0     0  7.709652266E+01 -1.409271637E+02 -1.506267700E+02  2.532148556E+02  1.250000000E+02  0.00000E+00  9.000E+00
      21     1     1     2   511   502 -7.182870526E+01 -3.089053122E+01  7.801279814E+00  7.857765449E+01  7.539457465E-07  0.00000E+00  9.000E+00
#rwgt            1           1   3.3754288142608467E-002           4      408607           0
</event>
<event>
      5   9999  3.79277E-02  3.69575E+01 -1.00000E+00  1.47004E-01
       2    -1     0     0   502     0  0.000000000E+00  0.000000000E+00  1.536869076E+03  1.536869076E+03  0.000000000E+00  0.00000E+00  9.000E+00
      21    -1     0     0   501   502  0.000000000E+00  0.000000000E+00 -1.093842342E+02  1.093842342E+02  0.000000000E+00  0.00000E+00  9.000E+00
      25     1     1     2     0     0  6.933584458E+01  1.297665333E+02  3.833177045E+01  1.968276839E+02  1.250000000E+02  0.00000E+00  9.000E+00
      25     1     1     2     0     0 -1.057894093E+02 -1.236841410E+02  3.233010896E+02  3.829331017E+02  1.250000000E+02  0.00000E+00  9.000E+00
       2     1     1     2   501     0  3.645356467E+01 -6.082392338E+00  1.065851982E+03  1.066492524E+03  0.000000000E+00  0.00000E+00  9.000E+00
#rwgt            1           1   4.3154465144124271E-002           4      408816           0
</event>
<event>
      5   9999  3.79277E-02  7.82509E+01 -1.00000E+00  1.28816E-01
      21    -1     0     0   502   501  0.000000000E+00  0.000000000E+00  5.438444814E+02  5.438444814E+02  0.000000000E+00  0.00000E+00  9.000E+00
      21    -1     0     0   511   502  0.000000000E+00  0.000000000E+00 -1.720696831E+03  1.720696831E+03  0.000000000E+00  0.00000E+00  9.000E+00
      25     1     1     2     0     0  5.404164585E+01 -2.439889688E+02  1.885855444E+02  3.371062502E+02  1.250000000E+02  0.00000E+00  9.000E+00
      25     1     1     2     0     0 -1.317425518E+02  2.347274220E+02  2.013872867E+02  3.586570811E+02  1.250000000E+02  0.00000E+00  9.000E+00
      21     1     1     2   511   501  7.770090599E+01  9.261546769E+00 -1.566825181E+03  1.568777981E+03  0.000000000E+00  0.00000E+00  9.000E+00
#rwgt            1           1   4.0765732009977691E-002           4      408933           0
</event>
<event>
      5   9999 -3.79277E-02  3.03246E+01 -1.00000E+00  1.52716E-01
       2    -1     0     0   502     0  0.000000000E+00  0.000000000E+00  2.372188313E+02  2.372188313E+02  0.000000000E+00  0.00000E+00  9.000E+00
      21    -1     0     0   501   502  0.000000000E+00  0.000000000E+00 -6.732142994E+02  6.732142994E+02  0.000000000E+00  0.00000E+00  9.000E+00
      25     1     1     2     0     0 -2.221471460E+02  1.667713030E+02 -1.771573281E+02  3.523801085E+02  1.250000000E+02  0.00000E+00  9.000E+00
      25     1     1     2     0     0  2.045927728E+02 -1.420442976E+02 -3.583894962E+02  4.539854801E+02  1.250000000E+02  0.00000E+00  9.000E+00
       2     1     1     2   501     0  1.755437318E+01 -2.472700534E+01  9.955135613E+01  1.040675421E+02  1.907348633E-06  0.00000E+00  9.000E+00
#rwgt            1           1  -9.9174459121111710E-002           4      409034           0
</event>
<event>
      5   9999  3.79277E-02  1.55998E+02 -1.00000E+00  1.15723E-01
      21    -1     0     0   502   501  0.000000000E+00  0.000000000E+00  1.018316319E+03  1.018316319E+03  0.000000000E+00  0.00000E+00  9.000E+00
      21    -1     0     0   511   502  0.000000000E+00  0.000000000E+00 -4.165225057E+02  4.165225057E+02  0.000000000E+00  0.00000E+00  9.000E+00
      25     1     1     2     0     0 -1.114031356E+02  4.245628670E+02  8.389214999E+01  4.640335974E+02  1.250000000E+02  0.00000E+00  9.000E+00
      25     1     1     2     0     0  1.362276313E+02 -2.705525826E+02  6.744239890E+02  7.498195679E+02  1.250000000E+02  0.00000E+00  9.000E+00
      21     1     1     2   511   501 -2.482449563E+01 -1.540102844E+02 -1.565223256E+02  2.209856595E+02  3.303624740E-06  0.00000E+00  9.000E+00
#rwgt            1           1   9.9484209644105440E-002           4      409263           0
</event>
<event>
      5   9999  3.79277E-02  8.57755E+00 -1.00000E+00  2.03790E-01
      21    -1     0     0   502   501  0.000000000E+00  0.000000000E+00  3.619595394E+02  3.619595394E+02  0.000000000E+00  0.00000E+00  9.000E+00
      21    -1     0     0   512   502  0.000000000E+00  0.000000000E+00 -8.719332927E+01  8.719332927E+01  0.000000000E+00  0.00000E+00  9.000E+00
      25     1     1     2     0     0  7.831086362E+01  8.850298283E+01  1.323729930E+02  2.170552432E+02  1.250000000E+02  0.00000E+00  9.000E+00
      25     1     1     2     0     0 -7.455127736E+01 -9.621271328E+01  1.380655764E+02  2.224901853E+02  1.250000000E+02  0.00000E+00  9.000E+00
      21     1     1     2   512   501 -3.759586256E+00  7.709730449E+00  4.327640737E+00  9.607440178E+00  1.032382731E-07  0.00000E+00  9.000E+00
#rwgt            1           1   3.5875931617675438E-002           4      409586           0
</event>
<event>
      5   9999  3.79277E-02  8.89650E+01 -1.00000E+00  1.26156E-01
      21    -1     0     0   502   501  0.000000000E+00  0.000000000E+00  9.358680478E+02  9.358680478E+02  0.000000000E+00  0.00000E+00  9.000E+00
      21    -1     0     0   511   502  0.000000000E+00  0.000000000E+00 -3.107015686E+02  3.107015686E+02  0.000000000E+00  0.00000E+00  9.000E+00
      25     1     1     2     0     0  2.221781943E+02 -9.535170608E+01  1.918300222E+02  3.329847673E+02  1.250000000E+02  0.00000E+00  9.000E+00
      25     1     1     2     0     0 -2.805422971E+02  2.820710583E+01  6.279481721E+02  6.996024071E+02  1.250000000E+02  0.00000E+00  9.000E+00
      21     1     1     2   511   501  5.836410277E+01  6.714460025E+01 -1.946117150E+02  2.139824419E+02  0.000000000E+00  0.00000E+00  9.000E+00
#rwgt            1           1   3.3685007440142661E-002           4      409824           0
</event>
<event>
      5   9999  3.79277E-02  1.98416E+01 -1.00000E+00  1.66655E-01
      21    -1     0     0   502   501  0.000000000E+00  0.000000000E+00  4.986091917E+02  4.986091917E+02  0.000000000E+00  0.00000E+00  9.000E+00
      21    -1     0     0   501   512  0.000000000E+00  0.000000000E+00 -6.459448493E+01  6.459448493E+01  0.000000000E+00  0.00000E+00  9.000E+00
      25     1     1     2     0     0  2.557301765E+01  3.558519028E+01  3.583645616E+02  3.820607857E+02  1.250000000E+02  0.00000E+00  9.000E+00
      25     1     1     2     0     0 -4.408693682E+01 -4.272124627E+01  8.031336488E+01  1.607606900E+02  1.250000000E+02  0.00000E+00  9.000E+00
      21     1     1     2   502   512  1.851391917E+01  7.136055986E+00 -4.663219615E+00  2.038220094E+01  1.192092896E-07  0.00000E+00  9.000E+00
#rwgt            1           1   4.7065674814457344E-002           4      409914           0
</event>
<event>
      5   9999  3.79277E-02  3.10139E+01 -1.00000E+00  1.52044E-01
      21    -1     0     0   502   501  0.000000000E+00  0.000000000E+00  9.683070643E+02  9.683070643E+02  0.000000000E+00  0.00000E+00  9.000E+00
      21    -1     0     0   501   511  0.000000000E+00  0.000000000E+00 -9.958465501E+01  9.958465501E+01  0.000000000E+00  0.00000E+00  9.000E+00
      25     1     1     2     0     0 -1.631710368E+02  1.777193671E+02  5.194184777E+02  5.861992116E+02  1.250000000E+02  0.00000E+00  9.000E+00
      25     1     1     2     0     0  1.916703722E+02 -1.899525849E+02  3.336468580E+02  4.469504916E+02  1.250000000E+02  0.00000E+00  9.000E+00
      21     1     1     2   502   511 -2.849933534E+01  1.223321782E+01  1.565707362E+01  3.474201617E+01  9.233911863E-07  0.00000E+00  9.000E+00
#rwgt            1           1   3.8585664671564240E-002           4      410106           0
</event>
<event>
      5   9999  3.79277E-02  3.66882E+01 -1.00000E+00  1.47207E-01
       2    -1     0     0   502     0  0.000000000E+00  0.000000000E+00  2.402020959E+03  2.402020959E+03  0.000000000E+00  0.00000E+00  9.000E+00
      21    -1     0     0   501   502  0.000000000E+00  0.000000000E+00 -2.150950849E+01  2.150950849E+01  0.000000000E+00  0.00000E+00  9.000E+00
      25     1     1     2     0     0  1.502948449E+02 -1.015014817E+02  1.242638762E+03  1.262009186E+03  1.250000000E+02  0.00000E+00  9.000E+00
      25     1     1     2     0     0 -1.354555309E+02  6.794824911E+01  9.492018822E+02  9.693164491E+02  1.250000000E+02  0.00000E+00  9.000E+00
       2     1     1     2   501     0 -1.483931409E+01  3.355323256E+01  1.886708056E+02  1.922048322E+02  3.814697266E-06  0.00000E+00  9.000E+00
#rwgt            1           1   5.9826965694810309E-002           4      410502           0
</event>
<event>
      5   9999  3.79277E-02  2.37316E+01 -1.00000E+00  1.60463E-01
      21    -1     0     0   502   511  0.000000000E+00  0.000000000E+00  1.405569879E+03  1.405569879E+03  0.000000000E+00  0.00000E+00  9.000E+00
      21    -1     0     0   501   502  0.000000000E+00  0.000000000E+00 -2.732512112E+01  2.732512112E+01  0.000000000E+00  0.00000E+00  9.000E+00
      25     1     1     2     0     0 -4.861368038E+01  9.591553924E+01  7.935561705E+02  8.105056917E+02  1.250000000E+02  0.00000E+00  9.000E+00
      25     1     1     2     0     0  2.744772093E+01 -8.518286601E+01  3.036407185E+02  3.403412757E+02  1.250000000E+02  0.00000E+00  9.000E+00
      21     1     1     2   501   511  2.116595945E+01 -1.073267323E+01  2.810478691E+02  2.820480329E+02  3.814697266E-06  0.00000E+00  9.000E+00
#rwgt            1           1   5.5472968567020352E-002           4      410717           0
</event>
<event>
      5   9999  3.79277E-02  3.70677E+01 -1.00000E+00  1.46921E-01
      21    -1     0     0   512   501  0.000000000E+00  0.000000000E+00  8.335785333E+01  8.335785333E+01  0.000000000E+00  0.00000E+00  9.000E+00
      21    -1     0     0   501   502  0.000000000E+00  0.000000000E+00 -5.301846945E+02  5.301846945E+02  0.000000000E+00  0.00000E+00  9.000E+00
      25     1     1     2     0     0 -9.917702088E+01 -9.276481083E+01 -1.324006084E+02  2.271482175E+02  1.250000000E+02  0.00000E+00  9.000E+00
      25     1     1     2     0     0  7.481679469E+01  6.482564953E+01 -3.105894893E+02  3.491285558E+02  1.250000000E+02  0.00000E+00  9.000E+00
      21     1     1     2   512   502  2.436022620E+01  2.793916130E+01 -3.836743484E+00  3.726577458E+01  6.122183378E-07  0.00000E+00  9.000E+00
#rwgt            1           1   3.3389435182930707E-002           4      410880           0
</event>
<event>
      5   9999  3.79277E-02  1.37089E+01 -1.00000E+00  1.81147E-01
      21    -1     0     0   511   501  0.000000000E+00  0.000000000E+00  8.549684504E+01  8.549684504E+01  0.000000000E+00  0.00000E+00  9.000E+00
      21    -1     0     0   501   502  0.000000000E+00  0.000000000E+00 -4.910223205E+02  4.910223205E+02  0.000000000E+00  0.00000E+00  9.000E+00
      25     1     1     2     0     0  1.026128985E+02  8.628415308E+01 -1.391951272E+02  2.301622155E+02  1.250000000E+02  0.00000E+00  9.000E+00
      25     1     1     2     0     0 -9.142977223E+01 -9.421333429E+01 -2.755538511E+02  3.298340196E+02  1.250000000E+02  0.00000E+00  9.000E+00
      21     1     1     2   511   502 -1.118312623E+01  7.929181214E+00  9.223502848E+00  1.652293048E+01  3.576278687E-07  0.00000E+00  9.000E+00
#rwgt            1           1   3.3801994875747393E-002           4      411001           0
</event>
<event>
      5   9999  3.79277E-02  1.79592E+01 -1.00000E+00  1.70320E-01
      21    -1     0     0   502   512  0.000000000E+00  0.000000000E+00  7.658939691E+01  7.658939691E+01  0.000000000E+00  0.00000E+00  9.000E+00
      21    -1     0     0   501   502  0.000000000E+00  0.000000000E+00 -7.630151063E+02  7.630151063E+02  0.000000000E+00  0.00000E+00  9.000E+00
      25     1     1     2     0     0 -1.201601823E+02 -9.324547108E+00 -7.141891719E+01  1.877527052E+02  1.250000000E+02  0.00000E+00  9.000E+00
      25     1     1     2     0     0  1.381191241E+02  9.423601007E+00 -6.003900016E+02  6.286961513E+02  1.250000000E+02  0.00000E+00  9.000E+00
      21     1     1     2   501   512 -1.795894184E+01 -9.905389949E-02 -1.461679062E+01  2.315564665E+01  4.129530925E-07  0.00000E+00  9.000E+00
#rwgt            1           1   4.0673471976754492E-002           4      411252           0
</event>
<event>
      5   9999  3.79277E-02  1.12485E+02 -1.00000E+00  1.21573E-01
      21    -1     0     0   502   501  0.000000000E+00  0.000000000E+00  1.068884028E+03  1.068884028E+03  0.000000000E+00  0.00000E+00  9.000E+00
      21    -1     0     0   511   502  0.000000000E+00  0.000000000E+00 -8.434527711E+01  8.434527711E+01  0.000000000E+00  0.00000E+00  9.000E+00
      25     1     1     2     0     0 -1.020486579E+02 -1.134508805E+02  1.681984245E+02  2.592310569E+02  1.250000000E+02  0.00000E+00  9.000E+00
      25     1     1     2     0     0  3.265557150E+00  1.672541907E+02  7.067391294E+02  7.369462838E+02  1.250000000E+02  0.00000E+00  9.000E+00
      21     1     1     2   511   501  9.878310075E+01 -5.380331024E+01  1.096011975E+02  1.570519649E+02  1.348699152E-06  0.00000E+00  9.000E+00
#rwgt            1           1   2.9187443012693444E-002           4      411629           0
</event>
<event>
      5   9999  3.79277E-02  1.80553E+01 -1.00000E+00  1.70120E-01
      21    -1     0     0   502   512  0.000000000E+00  0.000000000E+00  1.212734114E+03  1.212734114E+03  0.000000000E+00  0.00000E+00  9.000E+00
      21    -1     0     0   501   502  0.000000000E+00  0.000000000E+00 -5.312952490E+01  5.312952490E+01  0.000000000E+00  0.00000E+00  9.000E+00
      25     1     1     2     0     0 -9.279071355E+01 -8.046207788E+01  1.561243319E+02  2.346999563E+02  1.250000000E+02  0.00000E+00  9.000E+00
      25     1     1     2     0     0  1.023094998E+02  6.511981919E+01  5.412521014E+02  5.685830299E+02  1.250000000E+02  0.00000E+00  9.000E+00
      21     1     1     2   501   512 -9.518786281E+00  1.534225869E+01  4.622281562E+02  4.625806530E+02  5.394796609E-06  0.00000E+00  9.000E+00
#rwgt            1           1   4.1617623943560861E-002           4      411805           0
</event>
<event>
      5   9999  3.79277E-02  1.96387E+01 -1.00000E+00  1.67025E-01
      21    -1     0     0   502   501  0.000000000E+00  0.000000000E+00  1.172515240E+03  1.172515240E+03  0.000000000E+00  0.00000E+00  9.000E+00
      21    -1     0     0   511   502  0.000000000E+00  0.000000000E+00 -4.125845547E+02  4.125845547E+02  0.000000000E+00  0.00000E+00  9.000E+00
      25     1     1     2     0     0 -9.356419538E+00  1.376724551E+02  8.264546846E+02  8.471679840E+02  1.250000000E+02  0.00000E+00  9.000E+00
      25     1     1     2     0     0 -1.018102318E+01 -1.356804211E+02  3.100060360E+02  3.608899725E+02  1.250000000E+02  0.00000E+00  9.000E+00
      21     1     1     2   511   501  1.953744271E+01 -1.992034028E+00 -3.765300355E+02  3.770418379E+02  5.394796609E-06  0.00000E+00  9.000E+00
#rwgt            1           1   5.0560183584387589E-002           4      412027           0
</event>
<event>
      5   9999  3.79277E-02  5.41715E+01 -1.00000E+00  1.37119E-01
      21    -1     0     0   512   501  0.000000000E+00  0.000000000E+00  8.196570636E+02  8.196570636E+02  0.000000000E+00  0.00000E+00  9.000E+00
      21    -1     0     0   501   502  0.000000000E+00  0.000000000E+00 -1.247883183E+02  1.247883183E+02  0.000000000E+00  0.00000E+00  9.000E+00
      25     1     1     2     0     0  1.620938551E+02 -8.470189533E+01  5.408416824E+02  5.844514987E+02  1.250000000E+02  0.00000E+00  9.000E+00
      25     1     1     2     0     0 -2.157584308E+02  7.730845262E+01  9.003462708E+01  2.761512835E+02  1.250000000E+02  0.00000E+00  9.000E+00
      21     1     1     2   512   502  5.366457568E+01  7.393442709E+00  6.399243578E+01  8.384259965E+01  0.000000000E+00  0.00000E+00  9.000E+00
#rwgt            1           1   5.1090715612170066E-002           4      412166           0
</event>
<event>
      5   9999  3.79277E-02  9.90471E+01 -1.00000E+00  1.24015E-01
      21    -1     0     0   502   501  0.000000000E+00  0.000000000E+00  3.038009000E+01  3.038009000E+01  0.000000000E+00  0.00000E+00  9.000E+00
       2    -1     0     0   501     0  0.000000000E+00  0.000000000E+00 -2.718852505E+03  2.718852505E+03  0.000000000E+00  0.00000E+00  9.000E+00
      25     1     1     2     0     0  1.100190145E+02  8.065706147E+01 -4.183111333E+02  4.574045796E+02  1.250000000E+02  0.00000E+00  9.000E+00
      25     1     1     2     0     0 -3.256658350E+01 -1.423940386E+02 -1.035192576E+03  1.052893781E+03  1.250000000E+02  0.00000E+00  9.000E+00
       2     1     1     2   502     0 -7.745243102E+01  6.173697714E+01 -1.234968706E+03  1.238934235E+03  0.000000000E+00  0.00000E+00  9.000E+00
#rwgt            1           1   3.9978173204788366E-002           4      412400           0
</event>
<event>
      5   9999  3.79277E-02  1.72573E+01 -1.00000E+00  1.71834E-01
      21    -1     0     0   502   501  0.000000000E+00  0.000000000E+00  3.114253523E+02  3.114253523E+02  0.000000000E+00  0.00000E+00  9.000E+00
      21    -1     0     0   511   502  0.000000000E+00  0.000000000E+00 -1.503294803E+02  1.503294803E+02  0.000000000E+00  0.00000E+00  9.000E+00
      25     1     1     2     0     0 -1.321833806E+02 -4.944389886E+01  1.211909477E+02  2.241191448E+02  1.250000000E+02  0.00000E+00  9.000E+00
      25     1     1     2     0     0  1.390943483E+02  3.363082263E+01  7.037121436E+01  2.026212669E+02  1.250000000E+02  0.00000E+00  9.000E+00
      21     1     1     2   511   501 -6.910967707E+00  1.581307623E+01 -3.046628996E+01  3.501442100E+01  7.539457465E-07  0.00000E+00  9.000E+00
#rwgt            1           1   4.6548555765293979E-002           4      412477           0
</event>
<event>
      5   9999  3.79277E-02  3.93930E+01 -1.00000E+00  1.45253E-01
      21    -1     0     0   502   512  0.000000000E+00  0.000000000E+00  2.581545370E+02  2.581545370E+02  0.000000000E+00  0.00000E+00  9.000E+00
      21    -1     0     0   501   502  0.000000000E+00  0.000000000E+00 -1.290366949E+02  1.290366949E+02  0.000000000E+00  0.00000E+00  9.000E+00
      25     1     1     2     0     0  1.066985656E+02  2.915348006E+01  1.965406020E+01  1.680648428E+02  1.250000000E+02  0.00000E+00  9.000E+00
      25     1     1     2     0     0 -7.093090612E+01 -1.264640189E+01  6.092578149E+01  1.566144175E+02  1.250000000E+02  0.00000E+00  9.000E+00
      21     1     1     2   501   512 -3.576765951E+01 -1.650707817E+01  4.853800044E+01  6.251197152E+01  0.000000000E+00  0.00000E+00  9.000E+00
#rwgt            1           1   3.8273525973185535E-002           4      412633           0
</event>
<event>
      5   9999  3.79277E-02  7.58929E+01 -1.00000E+00  1.29467E-01
      21    -1     0     0   502   501  0.000000000E+00  0.000000000E+00  1.204192871E+02  1.204192871E+02  0.000000000E+00  0.00000E+00  9.000E+00
       2    -1     0     0   501     0  0.000000000E+00  0.000000000E+00 -2.360192443E+03  2.360192443E+03  0.000000000E+00  0.00000E+00  9.000E+00
      25     1     1     2     0     0 -4.215367349E+01 -8.595033368E+01 -1.794869116E+01  1.584662348E+02  1.250000000E+02  0.00000E+00  9.000E+00
      25     1     1     2     0     0  1.076050151E+02  1.243671971E+02 -1.662231876E+02  2.651437102E+02  1.250000000E+02  0.00000E+00  9.000E+00
       2     1     1     2   502     0 -6.545134159E+01 -3.841686346E+01 -2.055601278E+03  2.057001786E+03  4.315837288E-05  0.00000E+00  9.000E+00
#rwgt            1           1   4.7686121974430402E-002           4      412697           0
</event>
<event>
      5   9999  3.79277E-02  4.79057E+01 -1.00000E+00  1.40144E-01
      21    -1     0     0   502   501  0.000000000E+00  0.000000000E+00  3.900859273E+01  3.900859273E+01  0.000000000E+00  0.00000E+00  9.000E+00
       2    -1     0     0   501     0  0.000000000E+00  0.000000000E+00 -2.876985870E+03  2.876985870E+03  0.000000000E+00  0.00000E+00  9.000E+00
      25     1     1     2     0     0 -4.115900299E+01  6.968114575E+01 -9.791765721E+02  9.904348969E+02  1.250000000E+02  0.00000E+00  9.000E+00
      25     1     1     2     0     0  2.382709822E+01 -2.502065731E+01 -9.415096949E+01  1.602596922E+02  1.250000000E+02  0.00000E+00  9.000E+00
       2     1     1     2   502     0  1.733190476E+01 -4.466048844E+01 -1.764649735E+03  1.765299873E+03  2.157918644E-05  0.00000E+00  9.000E+00
#rwgt            1           1   3.7476181573594412E-002           4      412778           0
</event>
<event>
      5   9999  3.79277E-02  1.65375E+01 -1.00000E+00  1.73482E-01
      21    -1     0     0   502   501  0.000000000E+00  0.000000000E+00  5.250391566E+01  5.250391566E+01  0.000000000E+00  0.00000E+00  9.000E+00
      21    -1     0     0   511   502  0.000000000E+00  0.000000000E+00 -9.200459053E+02  9.200459053E+02  0.000000000E+00  0.00000E+00  9.000E+00
      25     1     1     2     0     0 -9.721311842E+01 -1.453240429E+02 -3.758256487E+02  4.329427053E+02  1.250000000E+02  0.00000E+00  9.000E+00
      25     1     1     2     0     0  8.146367286E+01  1.402797765E+02 -4.402937104E+02  4.855906683E+02  1.250000000E+02  0.00000E+00  9.000E+00
      21     1     1     2   511   501  1.574944556E+01  5.044266342E+00 -5.142263051E+01  5.401644737E+01  0.000000000E+00  0.00000E+00  9.000E+00
#rwgt            1           1   4.0917722191904135E-002           4      412881           0
</event>
<event>
      5   9999  3.79277E-02  2.47371E+01 -1.00000E+00  1.59096E-01
      21    -1     0     0   502   512  0.000000000E+00  0.000000000E+00  8.419954816E+01  8.419954816E+01  0.000000000E+00  0.00000E+00  9.000E+00
      21    -1     0     0   501   502  0.000000000E+00  0.000000000E+00 -3.833729540E+02  3.833729540E+02  0.000000000E+00  0.00000E+00  9.000E+00
      25     1     1     2     0     0 -3.461811993E+01  8.448785560E+01 -1.825999031E+02  2.393832421E+02  1.250000000E+02  0.00000E+00  9.000E+00
      25     1     1     2     0     0  4.669285681E+01 -1.060777391E+02 -1.089413601E+02  2.023015807E+02  1.250000000E+02  0.00000E+00  9.000E+00
      21     1     1     2   501   512 -1.207473688E+01  2.158988353E+01 -7.632142608E+00  2.588767935E+01  6.419616708E-07  0.00000E+00  9.000E+00
#rwgt            1           1   3.1437212393410734E-002           4      413069           0
</event>
<event>
      5   9999  3.79277E-02  2.83365E+01 -1.00000E+00  1.54781E-01
      21    -1     0     0   502   501  0.000000000E+00  0.000000000E+00  5.392958344E+02  5.392958344E+02  0.000000000E+00  0.00000E+00  9.000E+00
      21    -1     0     0   511   502  0.000000000E+00  0.000000000E+00 -8.905876072E+02  8.905876072E+02  0.000000000E+00  0.00000E+00  9.000E+00
      25     1     1     2     0     0 -8.083991498E+01  3.079333889E+02  2.244329308E+02  4.090882597E+02  1.250000000E+02  0.00000E+00  9.000E+00
      25     1     1     2     0     0  1.005958260E+02 -3.282474008E+02  7.205047527E+01  3.724005200E+02  1.250000000E+02  0.00000E+00  9.000E+00
      21     1     1     2   511   501 -1.975591103E+01  2.031401192E+01 -6.477751789E+02  6.483946618E+02  7.629394531E-06  0.00000E+00  9.000E+00
#rwgt            1           1  0.33298396900279298                4      413176           0
</event>
<event>
      5   9999  3.79277E-02  1.06329E+02 -1.00000E+00  1.22641E-01
      21    -1     0     0   502   501  0.000000000E+00  0.000000000E+00  2.153246171E+02  2.153246171E+02  0.000000000E+00  0.00000E+00  9.000E+00
      21    -1     0     0   512   502  0.000000000E+00  0.000000000E+00 -1.575473364E+03  1.575473364E+03  0.000000000E+00  0.00000E+00  9.000E+00
      25     1     1     2     0     0 -2.046049811E+02  2.928822522E+01 -7.472088317E+01  2.528422607E+02  1.250000000E+02  0.00000E+00  9.000E+00
      25     1     1     2     0     0  2.947300038E+02  2.713201673E+01 -8.434581437E+01  3.321763656E+02  1.250000000E+02  0.00000E+00  9.000E+00
      21     1     1     2   512   501 -9.012502266E+01 -5.642024195E+01 -1.201082050E+03  1.205779355E+03  2.642899792E-05  0.00000E+00  9.000E+00
#rwgt            2          11   8.7002265614037199E-004           4      413365           0
</event>
<event>
      5   9999  3.79277E-02  7.31059E+01 -1.00000E+00  1.30273E-01
      21    -1     0     0   502   511  0.000000000E+00  0.000000000E+00  1.303040193E+02  1.303040193E+02  0.000000000E+00  0.00000E+00  9.000E+00
      21    -1     0     0   501   502  0.000000000E+00  0.000000000E+00 -4.660143252E+02  4.660143252E+02  0.000000000E+00  0.00000E+00  9.000E+00
      25     1     1     2     0     0 -6.138847222E+01  5.806903658E+00 -3.378894852E+02  3.655086440E+02  1.250000000E+02  0.00000E+00  9.000E+00
      25     1     1     2     0     0  5.450146883E+01 -7.858767027E+01 -4.026253995E+00  1.574409183E+02  1.250000000E+02  0.00000E+00  9.000E+00
      21     1     1     2   501   511  6.887003388E+00  7.278076661E+01  6.205433318E+00  7.336878224E+01  1.272806913E-06  0.00000E+00  9.000E+00
#rwgt            1           1   4.4054515058267803E-002           4      413400           0
</event>
<event>
      5   9999  3.79277E-02  6.71463E+01 -1.00000E+00  1.32143E-01
      21    -1     0     0   512   501  0.000000000E+00  0.000000000E+00  8.425688124E+01  8.425688124E+01  0.000000000E+00  0.00000E+00  9.000E+00
      21    -1     0     0   501   502  0.000000000E+00  0.000000000E+00 -1.071663287E+03  1.071663287E+03  0.000000000E+00  0.00000E+00  9.000E+00
      25     1     1     2     0     0 -2.322669451E+02 -1.042094868E+02 -6.457317619E+02  7.052673672E+02  1.250000000E+02  0.00000E+00  9.000E+00
      25     1     1     2     0     0  1.774417816E+02  6.544314453E+01 -2.634200482E+02  3.475392249E+02  1.250000000E+02  0.00000E+00  9.000E+00
      21     1     1     2   512   502  5.482516351E+01  3.876634227E+01 -7.825459580E+01  1.031135763E+02  9.536743164E-07  0.00000E+00  9.000E+00
#rwgt            1           1   3.2332259012812330E-002           4      413460           0
</event>
<event>
      5   9999  3.79277E-02  3.06291E+02 -1.00000E+00  1.05300E-01
       5    -1     0     0   502     0  0.000000000E+00  0.000000000E+00  4.284212361E+02  4.284212361E+02  0.000000000E+00  0.00000E+00  9.000E+00
      21    -1     0     0   501   502  0.000000000E+00  0.000000000E+00 -1.421323562E+03  1.421323562E+03  0.000000000E+00  0.00000E+00  9.000E+00
      25     1     1     2     0     0  1.028246415E+01 -2.479765796E+02 -6.935132517E+02  7.471169543E+02  1.250000000E+02  0.00000E+00  9.000E+00
      25     1     1     2     0     0 -2.541821318E+02  6.270002807E+01 -6.043688415E+02  6.703928298E+02  1.250000000E+02  0.00000E+00  9.000E+00
       5     1     1     2   501     0  2.438996676E+02  1.852765515E+02  3.049797676E+02  4.322350137E+02  8.529922400E-06  0.00000E+00  9.000E+00
#rwgt            1           1   3.6887615590644685E-002           4      413631           0
</event>
<event>
      5   9999  3.79277E-02  1.49754E+02 -1.00000E+00  1.16422E-01
      21    -1     0     0   502   511  0.000000000E+00  0.000000000E+00  1.823646128E+02  1.823646128E+02  0.000000000E+00  0.00000E+00  9.000E+00
      21    -1     0     0   501   502  0.000000000E+00  0.000000000E+00 -9.989029266E+02  9.989029266E+02  0.000000000E+00  0.00000E+00  9.000E+00
      25     1     1     2     0     0 -5.915321850E+01  1.344653349E+01 -8.558257568E+02  8.670309329E+02  1.250000000E+02  0.00000E+00  9.000E+00
      25     1     1     2     0     0 -8.800800298E+01 -4.119256363E+01 -3.917106845E+00  1.583748074E+02  1.250000000E+02  0.00000E+00  9.000E+00
      21     1     1     2   501   511  1.471612215E+02  2.774603014E+01  4.320454990E+01  1.558617991E+02  3.234066955E-06  0.00000E+00  9.000E+00
#rwgt            1           1   4.1272802596763337E-002           4      413840           0
</event>
<event>
      5   9999  3.79277E-02  2.64477E+01 -1.00000E+00  1.56941E-01
      21    -1     0     0   512   501  0.000000000E+00  0.000000000E+00  3.047820245E+02  3.047820245E+02  0.000000000E+00  0.00000E+00  9.000E+00
      21    -1     0     0   501   502  0.000000000E+00  0.000000000E+00 -1.477161237E+02  1.477161237E+02  0.000000000E+00  0.00000E+00  9.000E+00
      25     1     1     2     0     0 -9.521260094E+01 -8.907839758E+01  1.716252849E+02  2.491598657E+02  1.250000000E+02  0.00000E+00  9.000E+00
      25     1     1     2     0     0  6.948937938E+01  8.293041140E+01 -3.611340855E+01  1.692199907E+02  1.250000000E+02  0.00000E+00  9.000E+00
      21     1     1     2   512   502  2.572322156E+01  6.147986178E+00  2.155402445E+01  3.411829174E+01  8.259061849E-07  0.00000E+00  9.000E+00
#rwgt            1           1   5.0507812585224590E-002           4      413898           0
</event>
<event>
      5   9999  3.79277E-02  3.23945E+01 -1.00000E+00  1.50759E-01
      21    -1     0     0   511   501  0.000000000E+00  0.000000000E+00  2.245722374E+02  2.245722374E+02  0.000000000E+00  0.00000E+00  9.000E+00
      21    -1     0     0   501   502  0.000000000E+00  0.000000000E+00 -1.406164735E+02  1.406164735E+02  0.000000000E+00  0.00000E+00  9.000E+00
      25     1     1     2     0     0 -5.375224494E+01  6.637232494E+01  3.483777568E+00  1.514322491E+02  1.250000000E+02  0.00000E+00  9.000E+00
      25     1     1     2     0     0  8.189199488E+01 -5.032362905E+01  4.144824676E+01  1.630390249E+02  1.250000000E+02  0.00000E+00  9.000E+00
      21     1     1     2   511   502 -2.813974994E+01 -1.604869589E+01  3.902373957E+01  5.071743701E+01  4.768371582E-07  0.00000E+00  9.000E+00
#rwgt            1           1   1.4706312036855556E-002           4      414053           0
</event>
<event>
      5   9999  3.79277E-02  4.32347E+01 -1.00000E+00  1.42776E-01
      21    -1     0     0   502   512  0.000000000E+00  0.000000000E+00  9.470626660E+02  9.470626660E+02  0.000000000E+00  0.00000E+00  9.000E+00
      21    -1     0     0   501   502  0.000000000E+00  0.000000000E+00 -8.137350423E+01  8.137350423E+01  0.000000000E+00  0.00000E+00  9.000E+00
      25     1     1     2     0     0  1.501201583E+02 -3.810879225E+00  4.581445530E+02  4.980682846E+02  1.250000000E+02  0.00000E+00  9.000E+00
      25     1     1     2     0     0 -1.931174462E+02  8.335722386E+00  1.630717325E+02  2.821014396E+02  1.250000000E+02  0.00000E+00  9.000E+00
      21     1     1     2   501   512  4.299728784E+01 -4.524843161E+00  2.444728763E+02  2.482664460E+02  2.697398305E-06  0.00000E+00  9.000E+00
#rwgt            1           1   3.6185549053198748E-002           4      414237           0
</event>
<event>
      5   9999  3.79277E-02  4.46768E+01 -1.00000E+00  1.41923E-01
      21    -1     0     0   502   501  0.000000000E+00  0.000000000E+00  2.973388336E+02  2.973388336E+02  0.000000000E+00  0.00000E+00  9.000E+00
      21    -1     0     0   501   511  0.000000000E+00  0.000000000E+00 -3.902032003E+02  3.902032003E+02  0.000000000E+00  0.00000E+00  9.000E+00
      25     1     1     2     0     0 -6.410664911E+01 -8.193571783E+01 -2.768940497E+02  3.211205990E+02  1.250000000E+02  0.00000E+00  9.000E+00
      25     1     1     2     0     0  1.011683901E+02  5.698690557E+01  2.402160442E+02  2.946375713E+02  1.250000000E+02  0.00000E+00  9.000E+00
      21     1     1     2   502   511 -3.706174104E+01  2.494881226E+01 -5.618636117E+01  7.178386353E+01  6.743495762E-07  0.00000E+00  9.000E+00
#rwgt            1           1   4.4580557746057736E-002           4      414447           0
</event>
<event>
      5   9999  3.79277E-02  2.50343E+01 -1.00000E+00  1.58706E-01
      21    -1     0     0   502   512  0.000000000E+00  0.000000000E+00  1.788296486E+02  1.788296486E+02  0.000000000E+00  0.00000E+00  9.000E+00
      21    -1     0     0   501   502  0.000000000E+00  0.000000000E+00 -8.363658199E+02  8.363658199E+02  0.000000000E+00  0.00000E+00  9.000E+00
      25     1     1     2     0     0  1.236778801E+02  1.844598241E+02 -6.567975688E+02  7.045067005E+02  1.250000000E+02  0.00000E+00  9.000E+00
      25     1     1     2     0     0 -1.412307755E+02 -1.666101776E+02 -4.894442380E+01  2.563701227E+02  1.250000000E+02  0.00000E+00  9.000E+00
      21     1     1     2   501   512  1.755289534E+01 -1.784964650E+01  4.820582128E+01  5.431864524E+01  1.348699152E-06  0.00000E+00  9.000E+00
#rwgt            1           1   3.8922706313978872E-002           4      414851           0
</event>
<event>
      5   9999  3.79277E-02  1.34660E+01 -1.00000E+00  1.81914E-01
      21    -1     0     0   511   501  0.000000000E+00  0.000000000E+00  7.778075376E+01  7.778075376E+01  0.000000000E+00  0.00000E+00  9.000E+00
      21    -1     0     0   501   502  0.000000000E+00  0.000000000E+00 -1.360456742E+03  1.360456742E+03  0.000000000E+00  0.00000E+00  9.000E+00
      25     1     1     2     0     0 -1.236160408E+02 -2.123171846E+02 -2.908025775E+02  4.006877232E+02  1.250000000E+02  0.00000E+00  9.000E+00
      25     1     1     2     0     0  1.231089049E+02  2.257735980E+02 -9.744270024E+02  1.015510957E+03  1.250000000E+02  0.00000E+00  9.000E+00
      21     1     1     2   511   502  5.071358914E-01 -1.345641336E+01 -1.744640869E+01  2.203881629E+01  3.371747881E-07  0.00000E+00  9.000E+00
#rwgt            1           1   3.9166022983570116E-002           4      415211           0
</event>
<event>
      5   9999  3.79277E-02  9.72386E+01 -1.00000E+00  1.24377E-01
      21    -1     0     0   502   501  0.000000000E+00  0.000000000E+00  1.063768022E+03  1.063768022E+03  0.000000000E+00  0.00000E+00  9.000E+00
      21    -1     0     0   501   512  0.000000000E+00  0.000000000E+00 -9.752969561E+01  9.752969561E+01  0.000000000E+00  0.00000E+00  9.000E+00
      25     1     1     2     0     0  1.198589003E+02 -7.030741941E+00  6.748397531E+02  6.967419032E+02  1.250000000E+02  0.00000E+00  9.000E+00
      25     1     1     2     0     0 -1.216510736E+02 -9.019134794E+01  3.086304542E+02  3.658021600E+02  1.250000000E+02  0.00000E+00  9.000E+00
      21     1     1     2   502   512  1.792173305E+00  9.722208988E+01 -1.723188054E+01  9.875365488E+01  3.260325034E-06  0.00000E+00  9.000E+00
#rwgt            1           1   1.7113458978573446E-002           4      415614           0
</event>
<event>
      5   9999  3.79277E-02  7.10665E+01 -1.00000E+00  1.30889E-01
      21    -1     0     0   502   501  0.000000000E+00  0.000000000E+00  4.415177852E+02  4.415177852E+02  0.000000000E+00  0.00000E+00  9.000E+00
      21    -1     0     0   501   511  0.000000000E+00  0.000000000E+00 -1.873134087E+02  1.873134087E+02  0.000000000E+00  0.00000E+00  9.000E+00
      25     1     1     2     0     0  5.041711766E+01  1.103418104E+02  3.010044650E+02  3.477727546E+02  1.250000000E+02  0.00000E+00  9.000E+00
      25     1     1     2     0     0  1.411443192E+00 -1.589653807E+02 -1.379031727E+01  2.026996726E+02  1.250000000E+02  0.00000E+00  9.000E+00
      21     1     1     2   502   511 -5.182856086E+01  4.862357032E+01 -3.300977133E+01  7.835876667E+01  8.259061849E-07  0.00000E+00  9.000E+00
#rwgt            1           1   4.3817748116542668E-002           4      415814           0
</event>
<event>
      5   9999  3.79277E-02  1.62130E+01 -1.00000E+00  1.74260E-01
      21    -1     0     0   502   512  0.000000000E+00  0.000000000E+00  1.356073435E+02  1.356073435E+02  0.000000000E+00  0.00000E+00  9.000E+00
      21    -1     0     0   501   502  0.000000000E+00  0.000000000E+00 -3.059036438E+02  3.059036438E+02  0.000000000E+00  0.00000E+00  9.000E+00
      25     1     1     2     0     0 -6.612550516E+01  1.084678533E+01 -2.195669594E+02  2.613902922E+02  1.250000000E+02  0.00000E+00  9.000E+00
      25     1     1     2     0     0  7.444580469E+01 -2.476208570E+01  2.316282541E+01  1.493882700E+02  1.250000000E+02  0.00000E+00  9.000E+00
      21     1     1     2   501   512 -8.320299524E+00  1.391530037E+01  2.610783379E+01  3.073242513E+01  0.000000000E+00  0.00000E+00  9.000E+00
#rwgt            1           1   9.1796714867262416E-002           4      415906           0
</event>
<event>
      5   9999  3.79277E-02  8.46447E+01 -1.00000E+00  1.27174E-01
      21    -1     0     0   511   501  0.000000000E+00  0.000000000E+00  5.319736521E+02  5.319736521E+02  0.000000000E+00  0.00000E+00  9.000E+00
      21    -1     0     0   501   502  0.000000000E+00  0.000000000E+00 -7.745197712E+01  7.745197712E+01  0.000000000E+00  0.00000E+00  9.000E+00
      25     1     1     2     0     0 -5.664111745E+01  3.155151899E+01  8.994584458E+01  1.670897049E+02  1.250000000E+02  0.00000E+00  9.000E+00
      25     1     1     2     0     0  1.861302150E+01 -1.071728357E+02  2.483121139E+02  2.985236459E+02  1.250000000E+02  0.00000E+00  9.000E+00
      21     1     1     2   511   502  3.802809595E+01  7.562131674E+01  1.162637166E+02  1.438122784E+02  1.907348633E-06  0.00000E+00  9.000E+00
#rwgt            1           1   3.2704752035486492E-002           4      416048           0
</event>
<event>
      5   9999  3.79277E-02  4.14349E+01 -1.00000E+00  1.43897E-01
      21    -1     0     0   512   501  0.000000000E+00  0.000000000E+00  3.415045562E+02  3.415045562E+02  0.000000000E+00  0.00000E+00  9.000E+00
      21    -1     0     0   501   502  0.000000000E+00  0.000000000E+00 -2.644004016E+02  2.644004016E+02  0.000000000E+00  0.00000E+00  9.000E+00
      25     1     1     2     0     0 -1.666989588E+02  7.306645582E+00 -4.876174528E+01  2.141136094E+02  1.250000000E+02  0.00000E+00  9.000E+00
      25     1     1     2     0     0  1.484039552E+02  2.987054180E+01 -5.689147791E+01  2.043957521E+02  1.250000000E+02  0.00000E+00  9.000E+00
      21     1     1     2   512   502  1.829500354E+01 -3.717718738E+01  1.827573778E+02  1.873955964E+02  2.697398305E-06  0.00000E+00  9.000E+00
#rwgt            1           1   4.1895522589600012E-002           4      416256           0
</event>
<event>
      5   9999  3.79277E-02  5.89027E+01 -1.00000E+00  1.35133E-01
      21    -1     0     0   502   501  0.000000000E+00  0.000000000E+00  4.762633448E+01  4.762633448E+01  0.000000000E+00  0.00000E+00  9.000E+00
      21    -1     0     0   511   502  0.000000000E+00  0.000000000E+00 -6.945296839E+02  6.945296839E+02  0.000000000E+00  0.00000E+00  9.000E+00
      25     1     1     2     0     0 -1.783240806E+01  1.025046219E+02 -2.503713614E+02  2.985565455E+02  1.250000000E+02  0.00000E+00  9.000E+00
      25     1     1     2     0     0  1.853106824E+01 -4.360603501E+01 -2.192550461E+02  2.567930334E+02  1.250000000E+02  0.00000E+00  9.000E+00
      21     1     1     2   511   501 -6.986601730E-01 -5.889858688E+01 -1.772769420E+02  1.868064394E+02  4.264961200E-06  0.00000E+00  9.000E+00
#rwgt            1           1   6.3538616738741061E-002           4      416384           0
</event>
<event>
      5   9999  3.79277E-02  1.28292E+02 -1.00000E+00  1.19149E-01
      21    -1     0     0   502   501  0.000000000E+00  0.000000000E+00  2.183486634E+02  2.183486634E+02  0.000000000E+00  0.00000E+00  9.000E+00
      21    -1     0     0   501   512  0.000000000E+00  0.000000000E+00 -1.335984876E+03  1.335984876E+03  0.000000000E+00  0.00000E+00  9.000E+00
      25     1     1     2     0     0  6.151234186E+00 -1.559488386E+01  1.677240083E+02  2.098508543E+02  1.250000000E+02  0.00000E+00  9.000E+00
      25     1     1     2     0     0  1.139326695E+02  6.074673646E+01 -2.919833980E+02  3.428558354E+02  1.250000000E+02  0.00000E+00  9.000E+00
      21     1     1     2   502   512 -1.200839037E+02 -4.515185260E+01 -9.933768231E+02  1.001626850E+03  1.525878906E-05  0.00000E+00  9.000E+00
#rwgt            1           1   3.2217203602254239E-002           4      416553           0
</event>
<event>
      5   9999  3.79277E-02  2.02387E+01 -1.00000E+00  1.65945E-01
      21    -1     0     0   502   501  0.000000000E+00  0.000000000E+00  9.803664821E+02  9.803664821E+02  0.000000000E+00  0.00000E+00  9.000E+00
      -3    -1     0     0     0   502  0.000000000E+00  0.000000000E+00 -1.229145078E+02  1.229145078E+02  0.000000000E+00  0.00000E+00  9.000E+00
      25     1     1     2     0     0  5.549700792E+01  1.157304669E+02 -1.840461794E+01  1.801032727E+02  1.250000000E+02  0.00000E+00  9.000E+00
      25     1     1     2     0     0 -3.530138051E+01 -1.144106269E+02  8.844220711E+02  9.012010757E+02  1.250000000E+02  0.00000E+00  9.000E+00
      -3     1     1     2     0   501 -2.019562741E+01 -1.319840042E+00 -8.565478812E+00  2.197664150E+01  1.192092896E-07  0.00000E+00  9.000E+00
#rwgt            1           1   3.9910631229962017E-002           4      416647           0
</event>
<event>
      5   9999  3.79277E-02  3.51556E+01 -1.00000E+00  1.48405E-01
       2    -1     0     0   502     0  0.000000000E+00  0.000000000E+00  4.915826661E+02  4.915826661E+02  0.000000000E+00  0.00000E+00  9.000E+00
      21    -1     0     0   501   502  0.000000000E+00  0.000000000E+00 -2.739768596E+02  2.739768596E+02  0.000000000E+00  0.00000E+00  9.000E+00
      25     1     1     2     0     0 -1.263228702E+02 -4.914774084E+01 -7.461916583E+01  1.989120104E+02  1.250000000E+02  0.00000E+00  9.000E+00
      25     1     1     2     0     0  1.060096618E+02  7.784079046E+01 -7.602132288E+01  1.967269137E+02  1.250000000E+02  0.00000E+00  9.000E+00
       2     1     1     2   501     0  2.031320842E+01 -2.869304961E+01  3.682462952E+02  3.699206015E+02  5.394796609E-06  0.00000E+00  9.000E+00
#rwgt            1           1   3.1956100086229032E-002           4      416821           0
</event>
<event>
      5   9999 -3.79277E-02  4.82678E+01 -1.00000E+00  1.39955E-01
      21    -1     0     0   502   501  0.000000000E+00  0.000000000E+00  2.398911850E+03  2.398911850E+03  0.000000000E+00  0.00000E+00  9.000E+00
      21    -1     0     0   511   502  0.000000000E+00  0.000000000E+00 -4.030513197E+01  4.030513197E+01  0.000000000E+00  0.00000E+00  9.000E+00
      25     1     1     2     0     0  1.651529654E+02  9.519370371E+01  1.843254046E+03  1.857295836E+03  1.250000000E+02  0.00000E+00  9.000E+00
      25     1     1     2     0     0 -1.224917871E+02 -1.177726343E+02  4.721941823E+02  5.171720962E+02  1.250000000E+02  0.00000E+00  9.000E+00
      21     1     1     2   511   501 -4.266117834E+01  2.257893056E+01  4.315848959E+01  6.474904992E+01  1.261592536E-06  0.00000E+00  9.000E+00
#rwgt            1           1  -3.8569872822224668E-002           4      416952           0
</event>
<event>
      5   9999  3.79277E-02  7.84652E+01 -1.00000E+00  1.28758E-01
      21    -1     0     0   502   512  0.000000000E+00  0.000000000E+00  3.479371808E+02  3.479371808E+02  0.000000000E+00  0.00000E+00  9.000E+00
      21    -1     0     0   501   502  0.000000000E+00  0.000000000E+00 -1.200228852E+03  1.200228852E+03  0.000000000E+00  0.00000E+00  9.000E+00
      25     1     1     2     0     0 -1.424012525E+02  1.886247630E+02 -4.551352610E+02  5.278546426E+02  1.250000000E+02  0.00000E+00  9.000E+00
      25     1     1     2     0     0  7.433863465E+01 -1.495828457E+02 -6.880688826E+02  7.190028147E+02  1.250000000E+02  0.00000E+00  9.000E+00
      21     1     1     2   501   512  6.806261785E+01 -3.904191739E+01  2.909124723E+02  3.013085757E+02  7.629394531E-06  0.00000E+00  9.000E+00
#rwgt            1           1   4.6017195637550572E-002           4      417215           0
</event>
<event>
      5   9999  3.79277E-02  4.44125E+01 -1.00000E+00  1.42077E-01
      21    -1     0     0   502   501  0.000000000E+00  0.000000000E+00  3.070236711E+02  3.070236711E+02  0.000000000E+00  0.00000E+00  9.000E+00
      21    -1     0     0   511   502  0.000000000E+00  0.000000000E+00 -8.231574339E+02  8.231574339E+02  0.000000000E+00  0.00000E+00  9.000E+00
      25     1     1     2     0     0  9.597961797E+01  8.223229193E+01  1.479581951E+02  2.312809210E+02  1.250000000E+02  0.00000E+00  9.000E+00
      25     1     1     2     0     0 -1.022917915E+02 -3.827063017E+01  5.770667409E+01  1.757364845E+02  1.250000000E+02  0.00000E+00  9.000E+00
      21     1     1     2   511   501  6.312173527E+00 -4.396166176E+01 -7.217986320E+02  7.231636995E+02  1.078959322E-05  0.00000E+00  9.000E+00
#rwgt            1           1   4.1739930062152077E-002           4      417334           0
</event>
<event>
      5   9999  3.79277E-02  1.93623E+02 -1.00000E+00  1.12163E-01
      21    -1     0     0   502   512  0.000000000E+00  0.000000000E+00  4.579431253E+02  4.579431253E+02  0.000000000E+00  0.00000E+00  9.000E+00
      21    -1     0     0   501   502  0.000000000E+00  0.000000000E+00 -3.849129346E+02  3.849129346E+02  0.000000000E+00  0.00000E+00  9.000E+00
      25     1     1     2     0     0  2.446896652E+02 -2.711503566E+01 -1.798620454E+02  3.295202768E+02  1.250000000E+02  0.00000E+00  9.000E+00
      25     1     1     2     0     0 -1.625450583E+02 -1.482193931E+02  1.382698274E+02  2.883286834E+02  1.250000000E+02  0.00000E+00  9.000E+00
      21     1     1     2   501   512 -8.214460688E+01  1.753344288E+02  1.146224087E+02  2.250070998E+02  3.015782986E-06  0.00000E+00  9.000E+00
#rwgt            2          11   2.4326012394025316E-003           4      417472           0
</event>
<event>
      5   9999  3.79277E-02  1.14732E+01 -1.00000E+00  1.89102E-01
      21    -1     0     0   511   501  0.000000000E+00  0.000000000E+00  4.405041983E+02  4.405041983E+02  0.000000000E+00  0.00000E+00  9.000E+00
      21    -1     0     0   501   502  0.000000000E+00  0.000000000E+00 -1.033600608E+02  1.033600608E+02  0.000000000E+00  0.00000E+00  9.000E+00
      25     1     1     2     0     0  7.676870429E+01  1.858521570E+01 -2.210451717E+01  1.495073707E+02  1.250000000E+02  0.00000E+00  9.000E+00
      25     1     1     2     0     0 -8.426275891E+01 -9.897674709E+00  3.299278471E+02  3.628712730E+02  1.250000000E+02  0.00000E+00  9.000E+00
      21     1     1     2   511   502  7.494054623E+00 -8.687540991E+00  2.932080757E+01  3.148561544E+01  5.840038640E-07  0.00000E+00  9.000E+00
#rwgt            1           1   1.4451815770633767E-002           4      417522           0
</event>
<event>
      5   9999  3.79277E-02  7.67978E+01 -1.00000E+00  1.29214E-01
      21    -1     0     0   502   501  0.000000000E+00  0.000000000E+00  1.828613527E+02  1.828613527E+02  0.000000000E+00  0.00000E+00  9.000E+00
      21    -1     0     0   512   502  0.000000000E+00  0.000000000E+00 -2.141847497E+02  2.141847497E+02  0.000000000E+00  0.00000E+00  9.000E+00
      25     1     1     2     0     0  1.680208078E+01  3.583141779E+01 -1.963045492E+01  1.325766012E+02  1.250000000E+02  0.00000E+00  9.000E+00
      25     1     1     2     0     0 -1.470680899E+01 -1.126006302E+02  3.786208091E+01  1.730714573E+02  1.250000000E+02  0.00000E+00  9.000E+00
      21     1     1     2   512   501 -2.095271787E+00  7.676921242E+01 -4.955502293E+01  9.139804394E+01  1.168007728E-06  0.00000E+00  9.000E+00
#rwgt            1           1   8.9506133755659592E-002           4      417863           0
</event>
<event>
      5   9999  3.79277E-02  1.00689E+01 -1.00000E+00  1.95413E-01
      21    -1     0     0   502   501  0.000000000E+00  0.000000000E+00  3.168114930E+02  3.168114930E+02  0.000000000E+00  0.00000E+00  9.000E+00
      21    -1     0     0   511   502  0.000000000E+00  0.000000000E+00 -1.164299840E+02  1.164299840E+02  0.000000000E+00  0.00000E+00  9.000E+00
      25     1     1     2     0     0  1.072178516E+02  7.006444289E+01  1.403147939E+02  2.274157761E+02  1.250000000E+02  0.00000E+00  9.000E+00
      25     1     1     2     0     0 -1.157259528E+02 -7.544908084E+01  6.008883408E+01  1.957568081E+02  1.250000000E+02  0.00000E+00  9.000E+00
      21     1     1     2   511   501  8.508101217E+00  5.384637949E+00 -2.211902912E-02  1.006889276E+01  1.248341423E-07  0.00000E+00  9.000E+00
#rwgt            1           1   3.5060987759959861E-002           4      418005           0
</event>
<event>
      5   9999  3.79277E-02  2.67742E+01 -1.00000E+00  1.56552E-01
      21    -1     0     0   502   501  0.000000000E+00  0.000000000E+00  1.319487052E+03  1.319487052E+03  0.000000000E+00  0.00000E+00  9.000E+00
      21    -1     0     0   512   502  0.000000000E+00  0.000000000E+00 -6.819062107E+01  6.819062107E+01  0.000000000E+00  0.00000E+00  9.000E+00
      25     1     1     2     0     0  1.001969759E+01 -3.050941048E+01  1.078285289E+03  1.085981300E+03  1.250000000E+02  0.00000E+00  9.000E+00
      25     1     1     2     0     0 -2.184466466E+00  4.907290184E+00  2.168341517E+02  2.503415721E+02  1.250000000E+02  0.00000E+00  9.000E+00
      21     1     1     2   512   501 -7.835231128E+00  2.560212029E+01 -4.382300993E+01  5.135480123E+01  1.846782373E-06  0.00000E+00  9.000E+00
#rwgt            1           1   5.5967701322692409E-002           4      418370           0
</event>
<event>
      5   9999  3.79277E-02  9.59951E+01 -1.00000E+00  1.24632E-01
      21    -1     0     0   502   511  0.000000000E+00  0.000000000E+00  3.806543817E+02  3.806543817E+02  0.000000000E+00  0.00000E+00  9.000E+00
      21    -1     0     0   501   502  0.000000000E+00  0.000000000E+00 -7.367287620E+02  7.367287620E+02  0.000000000E+00  0.00000E+00  9.000E+00
      25     1     1     2     0     0  3.534763506E+01  1.143043531E+02 -1.046499157E+02  2.022165802E+02  1.250000000E+02  0.00000E+00  9.000E+00
      25     1     1     2     0     0  4.472705987E+01 -1.672486578E+02 -5.561198792E+02  5.957070953E+02  1.250000000E+02  0.00000E+00  9.000E+00
      21     1     1     2   501   511 -8.007469493E+01  5.294430475E+01  3.046954146E+02  3.194594682E+02  6.607249480E-06  0.00000E+00  9.000E+00
#rwgt            1           1   2.3013856340719761E-002           4      418458           0
</event>
<event>
      5   9999  3.79277E-02  1.20011E+02 -1.00000E+00  1.20367E-01
      21    -1     0     0   502   501  0.000000000E+00  0.000000000E+00  5.609145020E+02  5.609145020E+02  0.000000000E+00  0.00000E+00  9.000E+00
      21    -1     0     0   512   502  0.000000000E+00  0.000000000E+00 -2.139813220E+02  2.139813220E+02  0.000000000E+00  0.00000E+00  9.000E+00
      25     1     1     2     0     0 -5.959605153E+01 -7.442216646E+01 -1.062272687E+02  1.897355550E+02  1.250000000E+02  0.00000E+00  9.000E+00
      25     1     1     2     0     0  3.353084996E+01 -4.272385872E+01  4.444013226E+02  4.648302718E+02  1.250000000E+02  0.00000E+00  9.000E+00
      21     1     1     2   512   501  2.606520157E+01  1.171460252E+02  8.759126084E+00  1.203299973E+02  2.895583582E-06  0.00000E+00  9.000E+00
#rwgt            1           1   5.3324541809603228E-002           4      418546           0
</event>
<event>
      5   9999  3.79277E-02  6.08234E+01 -1.00000E+00  1.34388E-01
      21    -1     0     0   502   501  0.000000000E+00  0.000000000E+00  4.572626607E+02  4.572626607E+02  0.000000000E+00  0.00000E+00  9.000E+00
      21    -1     0     0   501   511  0.000000000E+00  0.000000000E+00 -4.670391408E+02  4.670391408E+02  0.000000000E+00  0.00000E+00  9.000E+00
      25     1     1     2     0     0  1.627932971E+01  3.364548751E+02  2.074744218E+02  4.148946074E+02  1.250000000E+02  0.00000E+00  9.000E+00
      25     1     1     2     0     0 -6.740514153E+01 -3.694039486E+02 -2.103580963E+02  4.481944433E+02  1.250000000E+02  0.00000E+00  9.000E+00
      21     1     1     2   502   511  5.112581182E+01  3.294907353E+01 -6.892805653E+00  6.121275071E+01  1.004475328E-06  0.00000E+00  9.000E+00
#rwgt            2          11   7.6524247613018988E-003           4      418624           0
</event>
<event>
      5   9999  3.79277E-02  3.37803E+01 -1.00000E+00  1.49544E-01
       1    -1     0     0   502     0  0.000000000E+00  0.000000000E+00  3.888776310E+02  3.888776310E+02  0.000000000E+00  0.00000E+00  9.000E+00
      21    -1     0     0   501   502  0.000000000E+00  0.000000000E+00 -4.026886783E+02  4.026886783E+02  0.000000000E+00  0.00000E+00  9.000E+00
      25     1     1     2     0     0 -1.008763613E+02 -6.712507356E+01 -2.125994555E+02  2.747823579E+02  1.250000000E+02  0.00000E+00  9.000E+00
      25     1     1     2     0     0  1.346110799E+02  6.887969114E+01 -9.714994690E+01  2.189238837E+02  1.250000000E+02  0.00000E+00  9.000E+00
       1     1     1     2   501     0 -3.373471860E+01 -1.754617579E+00  2.959383550E+02  2.978600676E+02  5.394796609E-06  0.00000E+00  9.000E+00
#rwgt            1           1  0.16951017399130353                4      418809           0
</event>
<event>
      5   9999 -3.79277E-02  3.39653E+01 -1.00000E+00  1.49387E-01
      21    -1     0     0   511   501  0.000000000E+00  0.000000000E+00  2.031688060E+02  2.031688060E+02  0.000000000E+00  0.00000E+00  9.000E+00
      21    -1     0     0   501   502  0.000000000E+00  0.000000000E+00 -6.993004993E+02  6.993004993E+02  0.000000000E+00  0.00000E+00  9.000E+00
      25     1     1     2     0     0 -2.427168257E+02 -1.455527693E+02 -1.620609233E+02  3.492646689E+02  1.250000000E+02  0.00000E+00  9.000E+00
      25     1     1     2     0     0  2.627985715E+02  1.181599874E+02 -3.819474722E+02  4.945035322E+02  1.250000000E+02  0.00000E+00  9.000E+00
      21     1     1     2   511   502 -2.008174589E+01  2.739278188E+01  4.787670216E+01  5.870110414E+01  9.536743164E-07  0.00000E+00  9.000E+00
#rwgt            1           1 -0.52307027641066028                4      418923           0
</event>
<event>
      5   9999  3.79277E-02  2.16124E+01 -1.00000E+00  1.63638E-01
      21    -1     0     0   502   501  0.000000000E+00  0.000000000E+00  2.106023249E+02  2.106023249E+02  0.000000000E+00  0.00000E+00  9.000E+00
      21    -1     0     0   512   502  0.000000000E+00  0.000000000E+00 -3.789725952E+02  3.789725952E+02  0.000000000E+00  0.00000E+00  9.000E+00
      25     1     1     2     0     0  1.362040557E+02 -1.361127202E+02 -8.897869348E+01  2.462121550E+02  1.250000000E+02  0.00000E+00  9.000E+00
      25     1     1     2     0     0 -1.537782373E+02  1.486922886E+02  1.337198225E+01  2.481147977E+02  1.250000000E+02  0.00000E+00  9.000E+00
      21     1     1     2   512   501  1.757418160E+01 -1.257956834E+01 -9.276355900E+01  9.524796731E+01  1.348699152E-06  0.00000E+00  9.000E+00
#rwgt            1           1   3.2336188081857516E-002           4      419166           0
</event>
<event>
      5   9999  3.79277E-02  1.28441E+02 -1.00000E+00  1.19128E-01
      21    -1     0     0   511   501  0.000000000E+00  0.000000000E+00  1.694498786E+02  1.694498786E+02  0.000000000E+00  0.00000E+00  9.000E+00
      21    -1     0     0   501   502  0.000000000E+00  0.000000000E+00 -2.233622060E+03  2.233622060E+03  0.000000000E+00  0.00000E+00  9.000E+00
      25     1     1     2     0     0  3.594048615E+02  1.419689534E+02 -1.003806597E+03  1.082857203E+03  1.250000000E+02  0.00000E+00  9.000E+00
      25     1     1     2     0     0 -4.337981435E+02 -2.466721027E+02 -1.074198196E+03  1.191030948E+03  1.250000000E+02  0.00000E+00  9.000E+00
      21     1     1     2   511   502  7.439328200E+01  1.047031493E+02  1.383261093E+01  1.291837877E+02  3.001613214E-06  0.00000E+00  9.000E+00
#rwgt            1           1  0.17289006922056060                4      419356           0
</event>
<event>
      5   9999  3.79277E-02  4.75710E+01 -1.00000E+00  1.40321E-01
       2    -1     0     0   502     0  0.000000000E+00  0.000000000E+00  1.141972572E+03  1.141972572E+03  0.000000000E+00  0.00000E+00  9.000E+00
      21    -1     0     0   501   502  0.000000000E+00  0.000000000E+00 -8.964284222E+01  8.964284222E+01  0.000000000E+00  0.00000E+00  9.000E+00
      25     1     1     2     0     0  1.670756013E+02  1.836136319E+02  3.577223098E+02  4.530104561E+02  1.250000000E+02  0.00000E+00  9.000E+00
      25     1     1     2     0     0 -1.546300330E+02 -2.295277584E+02  5.851273917E+02  6.592363033E+02  1.250000000E+02  0.00000E+00  9.000E+00
       2     1     1     2   501     0 -1.244556834E+01  4.591412651E+01  1.094800278E+02  1.193686545E+02  0.000000000E+00  0.00000E+00  9.000E+00
#rwgt            1           1   3.8926466868815769E-002           4      419506           0
</event>
<event>
      5   9999  3.79277E-02  1.80778E+01 -1.00000E+00  1.70073E-01
      21    -1     0     0   502   501  0.000000000E+00  0.000000000E+00  6.280542740E+01  6.280542740E+01  0.000000000E+00  0.00000E+00  9.000E+00
      21    -1     0     0   511   502  0.000000000E+00  0.000000000E+00 -6.024004813E+02  6.024004813E+02  0.000000000E+00  0.00000E+00  9.000E+00
      25     1     1     2     0     0 -1.786224402E+01  4.803779715E+01 -4.733975815E+02  4.922976334E+02  1.250000000E+02  0.00000E+00  9.000E+00
      25     1     1     2     0     0  3.402375331E+01 -3.993771172E+01 -4.049153899E+01  1.414821591E+02  1.250000000E+02  0.00000E+00  9.000E+00
      21     1     1     2   511   501 -1.616150928E+01 -8.100085425E+00 -2.570593345E+01  3.142611622E+01  0.000000000E+00  0.00000E+00  9.000E+00
#rwgt            1           1   5.4270692331969315E-002           4      419643           0
</event>
<event>
      5   9999  3.79277E-02  2.23696E+01 -1.00000E+00  1.62454E-01
      21    -1     0     0   502   501  0.000000000E+00  0.000000000E+00  1.230702893E+03  1.230702893E+03  0.000000000E+00  0.00000E+00  9.000E+00
      21    -1     0     0   501   512  0.000000000E+00  0.000000000E+00 -5.003400651E+01  5.003400651E+01  0.000000000E+00  0.00000E+00  9.000E+00
      25     1     1     2     0     0  4.256086693E+00 -1.297276648E+02  2.207338570E+02  2.849487970E+02  1.250000000E+02  0.00000E+00  9.000E+00
      25     1     1     2     0     0 -2.445945532E+01  1.201244944E+02  9.573982402E+02  9.732751664E+02  1.250000000E+02  0.00000E+00  9.000E+00
      21     1     1     2   502   512  2.020336862E+01  9.603170416E+00  2.536789101E+00  2.251293594E+01  4.712160915E-07  0.00000E+00  9.000E+00
#rwgt            1           1   5.2375084081044264E-002           4      419858           0
</event>
<event>
      5   9999  3.79277E-02  4.04710E+01 -1.00000E+00  1.44526E-01
       1    -1     0     0   502     0  0.000000000E+00  0.000000000E+00  1.243044193E+03  1.243044193E+03  0.000000000E+00  0.00000E+00  9.000E+00
      21    -1     0     0   501   502  0.000000000E+00  0.000000000E+00 -1.825758156E+02  1.825758156E+02  0.000000000E+00  0.00000E+00  9.000E+00
      25     1     1     2     0     0 -1.057205113E+01  1.101307776E+02  1.495206324E+02  2.241026014E+02  1.250000000E+02  0.00000E+00  9.000E+00
      25     1     1     2     0     0  4.577755294E+01 -1.300926981E+02 -8.508966976E+01  2.046581207E+02  1.250000000E+02  0.00000E+00  9.000E+00
       1     1     1     2   501     0 -3.520550182E+01  1.996192052E+01  9.960374150E+02  9.968592868E+02  1.868812365E-05  0.00000E+00  9.000E+00
#rwgt            1           1   4.4286835144189719E-002           4      420048           0
</event>
<event>
      5   9999  3.79277E-02  6.40388E+01 -1.00000E+00  1.33209E-01
      21    -1     0     0   502   511  0.000000000E+00  0.000000000E+00  8.573190625E+02  8.573190625E+02  0.000000000E+00  0.00000E+00  9.000E+00
      21    -1     0     0   501   502  0.000000000E+00  0.000000000E+00 -7.179984781E+01  7.179984781E+01  0.000000000E+00  0.00000E+00  9.000E+00
      25     1     1     2     0     0  2.982224803E+01  1.926992573E+02  3.330082647E+02  4.056376149E+02  1.250000000E+02  0.00000E+00  9.000E+00
      25     1     1     2     0     0 -5.940820292E+01 -1.359045911E+02  2.908353977E+02  3.495849268E+02  1.250000000E+02  0.00000E+00  9.000E+00
      21     1     1     2   501   511  2.958595489E+01 -5.679466619E+01  1.616755522E+02  1.738963686E+02  3.814697266E-06  0.00000E+00  9.000E+00
#rwgt            1           1   4.1785789976158012E-002           4      420224           0
</event>
<event>
      5   9999  3.79277E-02  2.43267E+01 -1.00000E+00  1.59644E-01
      21    -1     0     0   502   501  0.000000000E+00  0.000000000E+00  1.393304228E+02  1.393304228E+02  0.000000000E+00  0.00000E+00  9.000E+00
       2    -1     0     0   501     0  0.000000000E+00  0.000000000E+00 -3.048461376E+03  3.048461376E+03  0.000000000E+00  0.00000E+00  9.000E+00
      25     1     1     2     0     0 -2.699044410E+02 -2.087749996E+02 -4.371184942E+02  5.684478742E+02  1.250000000E+02  0.00000E+00  9.000E+00
      25     1     1     2     0     0  2.942281308E+02  2.083914364E+02 -4.210899982E+02  5.682771949E+02  1.250000000E+02  0.00000E+00  9.000E+00
       2     1     1     2   502     0 -2.432368985E+01  3.835632120E-01 -2.050922461E+03  2.051066730E+03  3.051757812E-05  0.00000E+00  9.000E+00
#rwgt            1           1   4.3605458359950354E-002           4      420334           0
</event>
<event>
      5   9999  3.79277E-02  6.19674E+01 -1.00000E+00  1.33959E-01
      21    -1     0     0   511   501  0.000000000E+00  0.000000000E+00  2.784095731E+02  2.784095731E+02  0.000000000E+00  0.00000E+00  9.000E+00
      21    -1     0     0   501   502  0.000000000E+00  0.000000000E+00 -2.561855966E+02  2.561855966E+02  0.000000000E+00  0.00000E+00  9.000E+00
      25     1     1     2     0     0 -1.639228916E+02  1.536217849E+01  1.232811509E+02  2.406864207E+02  1.250000000E+02  0.00000E+00  9.000E+00
      25     1     1     2     0     0  1.101543363E+02  1.544197563E+01 -1.421501256E+02  2.195543000E+02  1.250000000E+02  0.00000E+00  9.000E+00
      21     1     1     2   511   502  5.376855528E+01 -3.080415412E+01  4.109295123E+01  7.435444902E+01  1.261592536E-06  0.00000E+00  9.000E+00
#rwgt            1           1   3.1856227907877656E-002           4      420566           0
</event>
<event>
      5   9999  3.79277E-02  3.15740E+02 -1.00000E+00  1.04875E-01
      21    -1     0     0   502   501  0.000000000E+00  0.000000000E+00  4.000356299E+02  4.000356299E+02  0.000000000E+00  0.00000E+00  9.000E+00
      21    -1     0     0   501   512  0.000000000E+00  0.000000000E+00 -5.302557756E+02  5.302557756E+02  0.000000000E+00  0.00000E+00  9.000E+00
      25     1     1     2     0     0 -3.079643781E+01 -6.166256288E+01  1.983306977E+02  2.443578480E+02  1.250000000E+02  0.00000E+00  9.000E+00
      25     1     1     2     0     0 -3.948935139E+01 -2.461552335E+02 -2.082208390E+02  3.480412701E+02  1.250000000E+02  0.00000E+00  9.000E+00
      21     1     1     2   502   512  7.028578920E+01  3.078177964E+02 -1.203300044E+02  3.378922874E+02  4.672030912E-06  0.00000E+00  9.000E+00
#rwgt            1           1   4.0344556268616480E-002           4      420702           0
</event>
<event>
      5   9999  3.79277E-02  7.54807E+00 -1.00000E+00  2.11028E-01
      21    -1     0     0   511   501  0.000000000E+00  0.000000000E+00  1.015587575E+02  1.015587575E+02  0.000000000E+00  0.00000E+00  9.000E+00
      21    -1     0     0   501   502  0.000000000E+00  0.000000000E+00 -5.532312616E+02  5.532312616E+02  0.000000000E+00  0.00000E+00  9.000E+00
      25     1     1     2     0     0  4.487911222E+01  1.788345130E+01 -3.647914801E+02  3.886280696E+02  1.250000000E+02  0.00000E+00  9.000E+00
      25     1     1     2     0     0 -4.615447250E+01 -2.532299282E+01 -1.502100702E+02  2.023846696E+02  1.250000000E+02  0.00000E+00  9.000E+00
      21     1     1     2   511   502  1.275360277E+00  7.439541516E+00  6.332904625E+01  6.377727982E+01  6.743495762E-07  0.00000E+00  9.000E+00
#rwgt            1           1   8.1130194910076406E-002           4      420747           0
</event>
<event>
      5   9999  3.79277E-02  1.09495E+02 -1.00000E+00  1.22082E-01
      21    -1     0     0   512   501  0.000000000E+00  0.000000000E+00  7.123254116E+02  7.123254116E+02  0.000000000E+00  0.00000E+00  9.000E+00
      21    -1     0     0   501   502  0.000000000E+00  0.000000000E+00 -6.441140474E+02  6.441140474E+02  0.000000000E+00  0.00000E+00  9.000E+00
      25     1     1     2     0     0 -3.732948544E+02 -4.279678148E+02 -1.126877402E+02  5.923082185E+02  1.250000000E+02  0.00000E+00  9.000E+00
      25     1     1     2     0     0  3.260443482E+02  5.267427121E+02  1.677038966E+02  6.538443229E+02  1.250000000E+02  0.00000E+00  9.000E+00
      21     1     1     2   512   502  4.725050625E+01 -9.877489726E+01  1.319520780E+01  1.102869175E+02  9.078709013E-07  0.00000E+00  9.000E+00
#rwgt            1           1   3.4718165022389683E-002           4      421048           0
</event>
<event>
      5   9999  3.79277E-02  3.26652E+01 -1.00000E+00  1.50516E-01
      21    -1     0     0   511   501  0.000000000E+00  0.000000000E+00  6.849501185E+01  6.849501185E+01  0.000000000E+00  0.00000E+00  9.000E+00
      21    -1     0     0   501   502  0.000000000E+00  0.000000000E+00 -1.462256794E+03  1.462256794E+03  0.000000000E+00  0.00000E+00  9.000E+00
      25     1     1     2     0     0 -1.682019141E+02 -8.128501439E+00 -1.076303576E+03  1.096545642E+03  1.250000000E+02  0.00000E+00  9.000E+00
      25     1     1     2     0     0  1.488470438E+02 -1.818504641E+01 -3.416953081E+02  3.935312210E+02  1.250000000E+02  0.00000E+00  9.000E+00
      21     1     1     2   511   502  1.935487026E+01  2.631354785E+01  2.423710264E+01  4.067494251E+01  1.877309769E-06  0.00000E+00  9.000E+00
#rwgt            1           1   6.1118478404698726E-003           4      421170           0
</event>
<event>
      5   9999  3.79277E-02  8.95589E+01 -1.00000E+00  1.26021E-01
      21    -1     0     0   502   501  0.000000000E+00  0.000000000E+00  6.969264318E+01  6.969264318E+01  0.000000000E+00  0.00000E+00  9.000E+00
       2    -1     0     0   501     0  0.000000000E+00  0.000000000E+00 -1.648359959E+03  1.648359959E+03  0.000000000E+00  0.00000E+00  9.000E+00
      25     1     1     2     0     0  4.230141481E+00 -1.839912091E+01 -4.938665800E+02  5.097897808E+02  1.250000000E+02  0.00000E+00  9.000E+00
      25     1     1     2     0     0 -3.779024424E+01 -6.463409924E+01 -2.886891835E+01  1.485398391E+02  1.250000000E+02  0.00000E+00  9.000E+00
       2     1     1     2   502     0  3.356010276E+01  8.303322015E+01 -1.055931818E+03  1.059722983E+03  1.525878906E-05  0.00000E+00  9.000E+00
#rwgt            2          13   6.1845983222166953E-004           4      421396           0
</event>
<event>
      5   9999  3.79277E-02  7.83662E+01 -1.00000E+00  1.28785E-01
      21    -1     0     0   502   501  0.000000000E+00  0.000000000E+00  2.161621075E+02  2.161621075E+02  0.000000000E+00  0.00000E+00  9.000E+00
       4    -1     0     0   501     0  0.000000000E+00  0.000000000E+00 -5.958225949E+02  5.958225949E+02  0.000000000E+00  0.00000E+00  9.000E+00
      25     1     1     2     0     0 -2.165637845E+02  4.511114934E+01  1.763741847E+01  2.546977956E+02  1.250000000E+02  0.00000E+00  9.000E+00
      25     1     1     2     0     0  1.592718629E+02  8.357550843E+00 -6.047850523E+01  2.114710963E+02  1.250000000E+02  0.00000E+00  9.000E+00
       4     1     1     2   502     0  5.729192162E+01 -5.346870018E+01 -3.368194006E+02  3.458158105E+02  5.394796609E-06  0.00000E+00  9.000E+00
#rwgt            1           1   3.9751940811932701E-002           4      421535           0
</event>
<event>
      5   9999  3.79277E-02  2.85660E+01 -1.00000E+00  1.54532E-01
      21    -1     0     0   502   501  0.000000000E+00  0.000000000E+00  1.193013153E+03  1.193013153E+03  0.000000000E+00  0.00000E+00  9.000E+00
      21    -1     0     0   511   502  0.000000000E+00  0.000000000E+00 -5.609456092E+01  5.609456092E+01  0.000000000E+00  0.00000E+00  9.000E+00
      25     1     1     2     0     0 -1.073081820E+02 -1.242479191E+02  2.237601226E+02  3.043783563E+02  1.250000000E+02  0.00000E+00  9.000E+00
      25     1     1     2     0     0  1.041745684E+02  9.585431133E+01  8.838560266E+02  9.038068740E+02  1.250000000E+02  0.00000E+00  9.000E+00
      21     1     1     2   511   501  3.133613613E+00  2.839360780E+01  2.930244260E+01  4.092248331E+01  5.840038640E-07  0.00000E+00  9.000E+00
#rwgt            1           1   3.4038000950471575E-002           4      421651           0
</event>
<event>
      5   9999  3.79277E-02  2.17000E+01 -1.00000E+00  1.63498E-01
      21    -1     0     0   502   512  0.000000000E+00  0.000000000E+00  3.812646100E+02  3.812646100E+02  0.000000000E+00  0.00000E+00  9.000E+00
      21    -1     0     0   501   502  0.000000000E+00  0.000000000E+00 -2.193351143E+02  2.193351143E+02  0.000000000E+00  0.00000E+00  9.000E+00
      25     1     1     2     0     0 -1.863480230E+02  9.231110580E+01  9.625932078E+01  2.610321489E+02  1.250000000E+02  0.00000E+00  9.000E+00
      25     1     1     2     0     0  1.783012597E+02 -1.124640159E+02 -2.498552850E+01  2.463509097E+02  1.250000000E+02  0.00000E+00  9.000E+00
      21     1     1     2   501   512  8.046763227E+00  2.015291008E+01  9.065570349E+01  9.321666566E+01  1.907348633E-06  0.00000E+00  9.000E+00
#rwgt            1           1   1.6684211214071043E-002           4      421910           0
</event>
<event>
      5   9999  3.79277E-02  8.93691E+01 -1.00000E+00  1.26064E-01
      21    -1     0     0   502   501  0.000000000E+00  0.000000000E+00  7.394540892E+01  7.394540892E+01  0.000000000E+00  0.00000E+00  9.000E+00
      21    -1     0     0   501   511  0.000000000E+00  0.000000000E+00 -2.260454773E+03  2.260454773E+03  0.000000000E+00  0.00000E+00  9.000E+00
      25     1     1     2     0     0 -2.500134400E+01 -1.431474495E+02 -1.602860349E+03  1.614280818E+03  1.250000000E+02  0.00000E+00  9.000E+00
      25     1     1     2     0     0  8.176305299E+01  2.121760561E+02 -2.039283577E+02  3.300237123E+02  1.250000000E+02  0.00000E+00  9.000E+00
      21     1     1     2   502   511 -5.676170899E+01 -6.902860654E+01 -3.797206569E+02  3.900956516E+02  7.629394531E-06  0.00000E+00  9.000E+00
#rwgt            1           1   4.5836230601929137E-002           4      422076           0
</event>
<event>
      5   9999 -3.79277E-02  7.87395E+01 -1.00000E+00  1.28684E-01
      21    -1     0     0   502   501  0.000000000E+00  0.000000000E+00  4.629019549E+02  4.629019549E+02  0.000000000E+00  0.00000E+00  9.000E+00
      21    -1     0     0   512   502  0.000000000E+00  0.000000000E+00 -1.511737541E+02  1.511737541E+02  0.000000000E+00  0.00000E+00  9.000E+00
      25     1     1     2     0     0 -1.271440360E+02 -1.440145453E+02  9.633782619E+01  2.486197335E+02  1.250000000E+02  0.00000E+00  9.000E+00
      25     1     1     2     0     0  4.844368355E+01  1.415324825E+02  2.099933511E+02  2.865317462E+02  1.250000000E+02  0.00000E+00  9.000E+00
      21     1     1     2   512   501  7.870035242E+01  2.482062849E+00  5.397023526E+00  7.892422930E+01  1.132488251E-06  0.00000E+00  9.000E+00
#rwgt            1           1  -3.5798636023174117E-002           4      422230           0
</event>
<event>
      5   9999  3.79277E-02  5.54862E+01 -1.00000E+00  1.36544E-01
      21    -1     0     0   511   501  0.000000000E+00  0.000000000E+00  6.500391166E+02  6.500391166E+02  0.000000000E+00  0.00000E+00  9.000E+00
      21    -1     0     0   501   502  0.000000000E+00  0.000000000E+00 -9.287358980E+01  9.287358980E+01  0.000000000E+00  0.00000E+00  9.000E+00
      25     1     1     2     0     0 -7.399443472E+01 -5.445707302E+01  9.473549633E-01  1.551342859E+02  1.250000000E+02  0.00000E+00  9.000E+00
      25     1     1     2     0     0  3.780570838E+01  1.239646582E+01  4.373195877E+02  4.565702200E+02  1.250000000E+02  0.00000E+00  9.000E+00
      21     1     1     2   511   502  3.618872633E+01  4.206060720E+01  1.188985841E+02  1.312082006E+02  1.907348633E-06  0.00000E+00  9.000E+00
#rwgt            1           1   4.2260554323720655E-003           4      422364           0
</event>
<event>
      5   9999  3.79277E-02  2.58651E+01 -1.00000E+00  1.57652E-01
      21    -1     0     0   502   501  0.000000000E+00  0.000000000E+00  2.327804433E+02  2.327804433E+02  0.000000000E+00  0.00000E+00  9.000E+00
      21    -1     0     0   501   512  0.000000000E+00  0.000000000E+00 -4.511421685E+02  4.511421685E+02  0.000000000E+00  0.00000E+00  9.000E+00
      25     1     1     2     0     0  4.678575133E+01 -2.771375377E+02 -1.105820113E+01  3.078009180E+02  1.250000000E+02  0.00000E+00  9.000E+00
      25     1     1     2     0     0 -3.166452946E+01  2.561529245E+02 -1.803979647E+02  3.387999245E+02  1.250000000E+02  0.00000E+00  9.000E+00
      21     1     1     2   502   512 -1.512122187E+01  2.098461318E+01 -2.690555932E+01  3.732176930E+01  4.768371582E-07  0.00000E+00  9.000E+00
#rwgt            1           1   4.2042691811076373E-002           4      422478           0
</event>
<event>
      5   9999  3.79277E-02  2.65269E+01 -1.00000E+00  1.56846E-01
      21    -1     0     0   502   501  0.000000000E+00  0.000000000E+00  1.655141602E+03  1.655141602E+03  0.000000000E+00  0.00000E+00  9.000E+00
      21    -1     0     0   501   511  0.000000000E+00  0.000000000E+00 -3.997359519E+01  3.997359519E+01  0.000000000E+00  0.00000E+00  9.000E+00
      25     1     1     2     0     0 -1.954119426E+02 -1.787787866E+01  5.866496653E+02  6.311008442E+02  1.250000000E+02  0.00000E+00  9.000E+00
      25     1     1     2     0     0  2.023407239E+02  4.348389467E+01  9.713917840E+02  1.001029278E+03  1.250000000E+02  0.00000E+00  9.000E+00
      21     1     1     2   502   511 -6.928781375E+00 -2.560601601E+01  5.712655714E+01  6.298507441E+01  6.743495762E-07  0.00000E+00  9.000E+00
#rwgt            1           1   2.8500353303216833E-002           4      422728           0
</event>
<event>
      5   9999  3.79277E-02  2.80244E+01 -1.00000E+00  1.55123E-01
      21    -1     0     0   502   501  0.000000000E+00  0.000000000E+00  3.495377616E+02  3.495377616E+02  0.000000000E+00  0.00000E+00  9.000E+00
      21    -1     0     0   501   512  0.000000000E+00  0.000000000E+00 -4.131999883E+02  4.131999883E+02  0.000000000E+00  0.00000E+00  9.000E+00
      25     1     1     2     0     0 -6.896199808E+01  3.040408732E+02 -4.839401034E+01  3.393576137E+02  1.250000000E+02  0.00000E+00  9.000E+00
      25     1     1     2     0     0  5.179313871E+01 -2.818914174E+02  8.109267431E+01  3.230268135E+02  1.250000000E+02  0.00000E+00  9.000E+00
      21     1     1     2   502   512  1.716885937E+01 -2.214945581E+01 -9.636089067E+01  1.003533227E+02  1.348699152E-06  0.00000E+00  9.000E+00
#rwgt            1           1   4.2737203575884203E-002           4      422912           0
</event>
<event>
      5   9999  3.79277E-02  4.33438E+01 -1.00000E+00  1.42710E-01
      21    -1     0     0   511   501  0.000000000E+00  0.000000000E+00  4.970834997E+02  4.970834997E+02  0.000000000E+00  0.00000E+00  9.000E+00
      21    -1     0     0   501   502  0.000000000E+00  0.000000000E+00 -9.611511338E+01  9.611511338E+01  0.000000000E+00  0.00000E+00  9.000E+00
      25     1     1     2     0     0 -8.723362341E+01 -1.053269389E+02  8.935066052E+01  2.056988324E+02  1.250000000E+02  0.00000E+00  9.000E+00
      25     1     1     2     0     0  8.881278063E+01  6.201195605E+01  1.612027189E+02  2.309643030E+02  1.250000000E+02  0.00000E+00  9.000E+00
      21     1     1     2   511   502 -1.579157226E+00  4.331498280E+01  1.504150069E+02  1.565354777E+02  0.000000000E+00  0.00000E+00  9.000E+00
#rwgt            1           1   6.3295932567428589E-002           4      423154           0
</event>
<event>
      5   9999  3.79277E-02  1.39464E+02 -1.00000E+00  1.17661E-01
      21    -1     0     0   502   512  0.000000000E+00  0.000000000E+00  2.231937336E+03  2.231937336E+03  0.000000000E+00  0.00000E+00  9.000E+00
      21    -1     0     0   501   502  0.000000000E+00  0.000000000E+00 -1.301231969E+02  1.301231969E+02  0.000000000E+00  0.00000E+00  9.000E+00
      25     1     1     2     0     0  1.271524657E+02  1.074689928E+02  2.352548525E+02  3.141451568E+02  1.250000000E+02  0.00000E+00  9.000E+00
      25     1     1     2     0     0 -2.652109667E+02 -8.771884379E+01  1.788684473E+02  3.544719648E+02  1.250000000E+02  0.00000E+00  9.000E+00
      21     1     1     2   501   512  1.380585010E+02 -1.975014900E+01  1.687690839E+03  1.693443411E+03  3.051757812E-05  0.00000E+00  9.000E+00
#rwgt            1           1   2.3521871263882988E-002           4      423433           0
</event>
<event>
      5   9999  3.79277E-02  5.94703E+01 -1.00000E+00  1.34910E-01
      21    -1     0     0   502   501  0.000000000E+00  0.000000000E+00  2.091300765E+02  2.091300765E+02  0.000000000E+00  0.00000E+00  9.000E+00
      21    -1     0     0   501   511  0.000000000E+00  0.000000000E+00 -5.000596814E+02  5.000596814E+02  0.000000000E+00  0.00000E+00  9.000E+00
      25     1     1     2     0     0 -6.250169899E+01 -7.788514800E+01  1.533689979E+02  2.216294388E+02  1.250000000E+02  0.00000E+00  9.000E+00
      25     1     1     2     0     0  5.620617906E+00  6.052839066E+01 -2.752289715E+02  3.083362842E+02  1.250000000E+02  0.00000E+00  9.000E+00
      21     1     1     2   502   511  5.688108108E+01  1.735675734E+01 -1.690696313E+02  1.792240348E+02  0.000000000E+00  0.00000E+00  9.000E+00
#rwgt            1           1   4.5008432000514215E-002           4      423661           0
</event>
<event>
      5   9999  3.79277E-02  1.02909E+02 -1.00000E+00  1.23270E-01
      21    -1     0     0   502   501  0.000000000E+00  0.000000000E+00  3.486841600E+02  3.486841600E+02  0.000000000E+00  0.00000E+00  9.000E+00
      21    -1     0     0   501   512  0.000000000E+00  0.000000000E+00 -7.101004993E+02  7.101004993E+02  0.000000000E+00  0.00000E+00  9.000E+00
      25     1     1     2     0     0  1.122530330E+02  4.978341287E+01  5.439838450E+00  1.753103632E+02  1.250000000E+02  0.00000E+00  9.000E+00
      25     1     1     2     0     0 -1.557708064E+01 -8.505360323E+01  2.311685499E+02  2.766598260E+02  1.250000000E+02  0.00000E+00  9.000E+00
      21     1     1     2   502   512 -9.667595238E+01  3.527019036E+01 -5.980247276E+02  6.068144700E+02  1.078959322E-05  0.00000E+00  9.000E+00
#rwgt            1           1   4.3136507646566458E-002           4      423731           0
</event>
<event>
      5   9999  3.79277E-02  6.39978E+01 -1.00000E+00  1.33223E-01
      21    -1     0     0   502   501  0.000000000E+00  0.000000000E+00  1.354892218E+02  1.354892218E+02  0.000000000E+00  0.00000E+00  9.000E+00
      21    -1     0     0   511   502  0.000000000E+00  0.000000000E+00 -3.737076569E+02  3.737076569E+02  0.000000000E+00  0.00000E+00  9.000E+00
      25     1     1     2     0     0  1.206562484E+02  6.492762134E+01 -1.733266697E+02  2.538516510E+02  1.250000000E+02  0.00000E+00  9.000E+00
      25     1     1     2     0     0 -1.292649004E+02 -1.511491779E+00 -2.954515276E+01  1.822350546E+02  1.250000000E+02  0.00000E+00  9.000E+00
      21     1     1     2   511   501  8.608652001E+00 -6.341612956E+01 -3.534661259E+01  7.311017302E+01  1.168007728E-06  0.00000E+00  9.000E+00
#rwgt            1           1   3.8015754282843747E-002           4      423813           0
</event>
<event>
      5   9999  3.79277E-02  6.46119E+01 -1.00000E+00  1.33007E-01
      21    -1     0     0   502   501  0.000000000E+00  0.000000000E+00  1.154288259E+02  1.154288259E+02  0.000000000E+00  0.00000E+00  9.000E+00
       2    -1     0     0   501     0  0.000000000E+00  0.000000000E+00 -1.542303185E+03  1.542303185E+03  0.000000000E+00  0.00000E+00  9.000E+00
      25     1     1     2     0     0 -1.845855339E+01 -9.933459623E+01 -4.401813138E+02  4.686071587E+02  1.250000000E+02  0.00000E+00  9.000E+00
      25     1     1     2     0     0  3.135797279E+01  3.602343529E+01  5.554671658E+01  1.448842575E+02  1.250000000E+02  0.00000E+00  9.000E+00
       2     1     1     2   502     0 -1.289941941E+01  6.331116094E+01 -1.042239762E+03  1.044240594E+03  2.642899792E-05  0.00000E+00  9.000E+00
#rwgt            1           1   3.8050171141804083E-002           4      423952           0
</event>
<event>
      5   9999  3.79277E-02  8.21085E+01 -1.00000E+00  1.27805E-01
      21    -1     0     0   511   501  0.000000000E+00  0.000000000E+00  5.071044596E+02  5.071044596E+02  0.000000000E+00  0.00000E+00  9.000E+00
      21    -1     0     0   501   502  0.000000000E+00  0.000000000E+00 -1.914836375E+02  1.914836375E+02  0.000000000E+00  0.00000E+00  9.000E+00
      25     1     1     2     0     0 -2.388271019E+02  2.914853558E+01  1.287839505E+02  3.001638347E+02  1.250000000E+02  0.00000E+00  9.000E+00
      25     1     1     2     0     0  1.742858776E+02 -7.990521422E+01  4.311879319E+01  2.329047889E+02  1.250000000E+02  0.00000E+00  9.000E+00
      21     1     1     2   511   502  6.454122437E+01  5.075667864E+01  1.437180784E+02  1.655194736E+02  1.907348633E-06  0.00000E+00  9.000E+00
#rwgt            1           1   4.0188131767736800E-002           4      424102           0
</event>
<event>
      5   9999  3.79277E-02  2.80945E+01 -1.00000E+00  1.55046E-01
      21    -1     0     0   512   501  0.000000000E+00  0.000000000E+00  2.649689255E+02  2.649689255E+02  0.000000000E+00  0.00000E+00  9.000E+00
      21    -1     0     0   501   502  0.000000000E+00  0.000000000E+00 -4.258700696E+02  4.258700696E+02  0.000000000E+00  0.00000E+00  9.000E+00
      25     1     1     2     0     0  8.098455998E+01  1.878562844E+02 -2.481884485E+02  3.450666436E+02  1.250000000E+02  0.00000E+00  9.000E+00
      25     1     1     2     0     0 -1.075700859E+02 -1.969397490E+02  2.957521239E+00  2.568858405E+02  1.250000000E+02  0.00000E+00  9.000E+00
      21     1     1     2   512   502  2.658552596E+01  9.083464604E+00  8.432978315E+01  8.888651104E+01  1.907348633E-06  0.00000E+00  9.000E+00
#rwgt            1           1   3.5787000203753118E-002           4      424442           0
</event>
<event>
      5   9999 -3.79277E-02  1.79853E+01 -1.00000E+00  1.70266E-01
      21    -1     0     0   511   501  0.000000000E+00  0.000000000E+00  1.557402988E+02  1.557402988E+02  0.000000000E+00  0.00000E+00  9.000E+00
      21    -1     0     0   501   502  0.000000000E+00  0.000000000E+00 -2.903960137E+02  2.903960137E+02  0.000000000E+00  0.00000E+00  9.000E+00
      25     1     1     2     0     0 -4.692312316E+01 -7.948473590E+01 -1.162602303E+02  1.940645354E+02  1.250000000E+02  0.00000E+00  9.000E+00
      25     1     1     2     0     0  4.723230784E+01  9.746733932E+01 -8.296959959E+01  1.850398000E+02  1.250000000E+02  0.00000E+00  9.000E+00
      21     1     1     2   511   502 -3.091846844E-01 -1.798260342E+01  6.457411502E+01  6.703197708E+01  9.536743164E-07  0.00000E+00  9.000E+00
#rwgt            1           1 -0.21792671020876800                4      424728           0
</event>
<event>
      5   9999  3.79277E-02  2.35213E+02 -1.00000E+00  1.09143E-01
      21    -1     0     0   502   501  0.000000000E+00  0.000000000E+00  2.104754010E+02  2.104754010E+02  0.000000000E+00  0.00000E+00  9.000E+00
       1    -1     0     0   501     0  0.000000000E+00  0.000000000E+00 -3.589242729E+03  3.589242729E+03  0.000000000E+00  0.00000E+00  9.000E+00
      25     1     1     2     0     0 -3.499128716E+01 -1.113624792E+02 -2.033120475E+02  2.656817280E+02  1.250000000E+02  0.00000E+00  9.000E+00
      25     1     1     2     0     0 -1.878807516E+02  1.865517573E+02  5.255411455E+01  2.974687714E+02  1.250000000E+02  0.00000E+00  9.000E+00
       1     1     1     2   502     0  2.228720388E+02 -7.518927814E+01 -3.228009396E+03  3.236567631E+03  0.000000000E+00  0.00000E+00  9.000E+00
#rwgt            1           1   3.1577717227717426E-002           4      424907           0
</event>
<event>
      5   9999  3.79277E-02  3.87910E+01 -1.00000E+00  1.45672E-01
      21    -1     0     0   502   501  0.000000000E+00  0.000000000E+00  4.145969591E+02  4.145969591E+02  0.000000000E+00  0.00000E+00  9.000E+00
      21    -1     0     0   501   511  0.000000000E+00  0.000000000E+00 -1.177533260E+02  1.177533260E+02  0.000000000E+00  0.00000E+00  9.000E+00
      25     1     1     2     0     0 -7.004129243E+01  2.872635461E+01 -2.099507259E+01  1.476373231E+02  1.250000000E+02  0.00000E+00  9.000E+00
      25     1     1     2     0     0  4.034976545E+01 -5.368937454E+01  3.153935926E+02  3.458450097E+02  1.250000000E+02  0.00000E+00  9.000E+00
      21     1     1     2   502   511  2.969152697E+01  2.496301993E+01  2.445113168E+00  3.886795230E+01  6.314998895E-07  0.00000E+00  9.000E+00
#rwgt            1           1   5.3513879078477933E-002           4      424938           0
</event>
<event>
      5   9999  3.79277E-02  4.04238E+01 -1.00000E+00  1.44557E-01
      21    -1     0     0   502   501  0.000000000E+00  0.000000000E+00  5.684346777E+02  5.684346777E+02  0.000000000E+00  0.00000E+00  9.000E+00
      21    -1     0     0   501   512  0.000000000E+00  0.000000000E+00 -1.721953453E+02  1.721953453E+02  0.000000000E+00  0.00000E+00  9.000E+00
      25     1     1     2     0     0 -9.107543524E+01 -1.076419038E+02  3.957455086E+02  4.383161210E+02  1.250000000E+02  0.00000E+00  9.000E+00
      25     1     1     2     0     0  5.856654179E+01  1.316680337E+02  8.484048688E+01  2.087807921E+02  1.250000000E+02  0.00000E+00  9.000E+00
      21     1     1     2   502   512  3.250889345E+01 -2.402612992E+01 -8.434666306E+01  9.353310987E+01  1.651812370E-06  0.00000E+00  9.000E+00
#rwgt            1           1   3.3895547027401961E-002           4      425051           0
</event>
<event>
      5   9999  3.79277E-02  1.89607E+02 -1.00000E+00  1.12498E-01
      21    -1     0     0   511   501  0.000000000E+00  0.000000000E+00  3.410360897E+02  3.410360897E+02  0.000000000E+00  0.00000E+00  9.000E+00
      21    -1     0     0   501   502  0.000000000E+00  0.000000000E+00 -2.684673954E+02  2.684673954E+02  0.000000000E+00  0.00000E+00  9.000E+00
      25     1     1     2     0     0  2.483268507E+01  9.151849023E+00  1.113910247E+02  1.695092297E+02  1.250000000E+02  0.00000E+00  9.000E+00
      25     1     1     2     0     0  1.558149092E+02  4.844308839E+01 -1.151456759E+02  2.356025157E+02  1.250000000E+02  0.00000E+00  9.000E+00
      21     1     1     2   511   502 -1.806475943E+02 -5.759493741E+01  7.632334552E+01  2.043917396E+02  9.536743164E-07  0.00000E+00  9.000E+00
#rwgt            1           1   4.0814901943529630E-002           4      425317           0
</event>
<event>
      5   9999  3.79277E-02  5.92533E+01 -1.00000E+00  1.34995E-01
      21    -1     0     0   502   501  0.000000000E+00  0.000000000E+00  2.387314916E+02  2.387314916E+02  0.000000000E+00  0.00000E+00  9.000E+00
      21    -1     0     0   501   512  0.000000000E+00  0.000000000E+00 -3.974108156E+02  3.974108156E+02  0.000000000E+00  0.00000E+00  9.000E+00
      25     1     1     2     0     0 -2.498329133E+01  6.024619240E+01  1.440626412E+02  2.015758248E+02  1.250000000E+02  0.00000E+00  9.000E+00
      25     1     1     2     0     0  2.429150915E+01 -1.194954788E+02 -5.992113361E+01  1.846206628E+02  1.250000000E+02  0.00000E+00  9.000E+00
      21     1     1     2   502   512  6.917821825E-01  5.924928639E+01 -2.428208316E+02  2.499458196E+02  0.000000000E+00  0.00000E+00  9.000E+00
#rwgt            1           1   4.7525571219528821E-002           4      425368           0
</event>
<event>
      5   9999  3.79277E-02  2.86802E+01 -1.00000E+00  1.54409E-01
      21    -1     0     0   502   501  0.000000000E+00  0.000000000E+00  4.565965052E+02  4.565965052E+02  0.000000000E+00  0.00000E+00  9.000E+00
      21    -1     0     0   511   502  0.000000000E+00  0.000000000E+00 -1.678854411E+02  1.678854411E+02  0.000000000E+00  0.00000E+00  9.000E+00
      25     1     1     2     0     0 -1.242912280E+02 -2.045964534E+02  1.555778244E+02  3.116688588E+02  1.250000000E+02  0.00000E+00  9.000E+00
      25     1     1     2     0     0  1.040830256E+02  1.842450397E+02  1.406383767E+02  2.831672013E+02  1.250000000E+02  0.00000E+00  9.000E+00
      21     1     1     2   511   501  2.020820245E+01  2.035141369E+01 -7.505136944E+00  2.964588616E+01  7.633118912E-07  0.00000E+00  9.000E+00
#rwgt            1           1   2.8826511126888173E-002           4      425552           0
</event>
<event>
      5   9999  3.79277E-02  3.06795E+02 -1.00000E+00  1.05277E-01
       1    -1     0     0   502     0  0.000000000E+00  0.000000000E+00  1.011965476E+03  1.011965476E+03  0.000000000E+00  0.00000E+00  9.000E+00
      21    -1     0     0   501   502  0.000000000E+00  0.000000000E+00 -4.167111758E+02  4.167111758E+02  0.000000000E+00  0.00000E+00  9.000E+00
      25     1     1     2     0     0 -8.095591035E+01  3.781246158E+00 -1.946840888E+02  2.451429209E+02  1.250000000E+02  0.00000E+00  9.000E+00
      25     1     1     2     0     0  2.485279578E+02  2.532063144E+02  4.619308383E+01  3.789965494E+02  1.250000000E+02  0.00000E+00  9.000E+00
       1     1     1     2   501     0 -1.675720474E+02 -2.569875606E+02  7.437453049E+02  8.045371812E+02  1.078959322E-05  0.00000E+00  9.000E+00
#rwgt            1           1   3.2831002871142274E-002           4      425727           0
</event>
<event>
      5   9999  3.79277E-02  3.66403E+01 -1.00000E+00  1.47243E-01
      21    -1     0     0   502   511  0.000000000E+00  0.000000000E+00  5.812330433E+01  5.812330433E+01  0.000000000E+00  0.00000E+00  9.000E+00
      21    -1     0     0   501   502  0.000000000E+00  0.000000000E+00 -8.156928095E+02  8.156928095E+02  0.000000000E+00  0.00000E+00  9.000E+00
      25     1     1     2     0     0  9.502642026E+01  9.453516958E+00 -5.586134193E+02  5.803389886E+02  1.250000000E+02  0.00000E+00  9.000E+00
      25     1     1     2     0     0 -1.277700398E+02  6.989251807E+00 -1.699859942E+02  2.467676456E+02  1.250000000E+02  0.00000E+00  9.000E+00
      21     1     1     2   501   511  3.274361956E+01 -1.644276877E+01 -2.897009171E+01  4.670947955E+01  3.371747881E-07  0.00000E+00  9.000E+00
#rwgt            1           1   2.8953226336205718E-002           4      425832           0
</event>
<event>
      5   9999  3.79277E-02  1.56149E+02 -1.00000E+00  1.15706E-01
       2    -1     0     0   502     0  0.000000000E+00  0.000000000E+00  1.740764153E+03  1.740764153E+03  0.000000000E+00  0.00000E+00  9.000E+00
      21    -1     0     0   501   502  0.000000000E+00  0.000000000E+00 -7.891815255E+01  7.891815255E+01  0.000000000E+00  0.00000E+00  9.000E+00
      25     1     1     2     0     0  5.078073662E+01  9.712204249E+01  1.109792650E+03  1.122174719E+03  1.250000000E+02  0.00000E+00  9.000E+00
      25     1     1     2     0     0 -1.771834928E+02 -5.443229994E+00  1.433636430E+02  2.600033711E+02  1.250000000E+02  0.00000E+00  9.000E+00
       2     1     1     2   501     0  1.264027562E+02 -9.167881249E+01  4.086897082E+02  4.375042160E+02  0.000000000E+00  0.00000E+00  9.000E+00
#rwgt            1           1   3.9030718009031920E-002           4      426123           0
</event>
<event>
      5   9999  3.79277E-02  5.06991E+01 -1.00000E+00  1.38732E-01
      21    -1     0     0   502   501  0.000000000E+00  0.000000000E+00  2.839923681E+02  2.839923681E+02  0.000000000E+00  0.00000E+00  9.000E+00
      21    -1     0     0   501   511  0.000000000E+00  0.000000000E+00 -2.266225704E+02  2.266225704E+02  0.000000000E+00  0.00000E+00  9.000E+00
      25     1     1     2     0     0 -8.008829163E+01 -1.319673277E+02 -5.546235310E+01  2.062294417E+02  1.250000000E+02  0.00000E+00  9.000E+00
      25     1     1     2     0     0  1.230190254E+02  1.049978088E+02  1.391358152E+02  2.472690752E+02  1.250000000E+02  0.00000E+00  9.000E+00
      21     1     1     2   502   511 -4.293073380E+01  2.696951888E+01 -2.630366436E+01  5.711642156E+01  1.168007728E-06  0.00000E+00  9.000E+00
#rwgt            1           1   4.0718444843638880E-002           4      426188           0
</event>
<event>
      5   9999  3.79277E-02  1.23260E+02 -1.00000E+00  1.19876E-01
      21    -1     0     0   512   501  0.000000000E+00  0.000000000E+00  5.004131841E+02  5.004131841E+02  0.000000000E+00  0.00000E+00  9.000E+00
      21    -1     0     0   501   502  0.000000000E+00  0.000000000E+00 -2.944103453E+02  2.944103453E+02  0.000000000E+00  0.00000E+00  9.000E+00
      25     1     1     2     0     0  3.781626882E+00 -1.788458387E+02 -1.139559316E+02  2.461931946E+02  1.250000000E+02  0.00000E+00  9.000E+00
      25     1     1     2     0     0  8.732164352E+01  2.618712792E+02  1.484872724E+02  3.374538581E+02  1.250000000E+02  0.00000E+00  9.000E+00
      21     1     1     2   512   502 -9.110327040E+01 -8.302544053E+01  1.714714980E+02  2.111764767E+02  2.697398305E-06  0.00000E+00  9.000E+00
#rwgt            1           1   4.5322072105198147E-002           4      426328           0
</event>
<event>
      5   9999  3.79277E-02  5.23403E+00 -1.00000E+00  2.35097E-01
      21    -1     0     0   511   501  0.000000000E+00  0.000000000E+00  3.539977693E+02  3.539977693E+02  0.000000000E+00  0.00000E+00  9.000E+00
      21    -1     0     0   501   502  0.000000000E+00  0.000000000E+00 -4.270185936E+02  4.270185936E+02  0.000000000E+00  0.00000E+00  9.000E+00
      25     1     1     2     0     0 -4.522822124E+01 -5.559603121E+01  5.883040612E+01  1.556358807E+02  1.250000000E+02  0.00000E+00  9.000E+00
      25     1     1     2     0     0  4.057996173E+01  5.319004028E+01 -3.653128652E+02  3.918601832E+02  1.250000000E+02  0.00000E+00  9.000E+00
      21     1     1     2   511   502  4.648259507E+00  2.405990932E+00  2.334616348E+02  2.335202989E+02  0.000000000E+00  0.00000E+00  9.000E+00
#rwgt            1           1   4.6218539848313790E-002           4      426425           0
</event>
<event>
      5   9999  3.79277E-02  1.14880E+02 -1.00000E+00  1.21178E-01
      21    -1     0     0   512   501  0.000000000E+00  0.000000000E+00  2.256718985E+02  2.256718985E+02  0.000000000E+00  0.00000E+00  9.000E+00
      21    -1     0     0   501   502  0.000000000E+00  0.000000000E+00 -3.830093294E+02  3.830093294E+02  0.000000000E+00  0.00000E+00  9.000E+00
      25     1     1     2     0     0  2.015191463E+02  6.925697019E+01 -1.928027326E+02  3.133757935E+02  1.250000000E+02  0.00000E+00  9.000E+00
      25     1     1     2     0     0 -8.674245546E+01 -6.437951163E+01 -2.232145114E+01  1.667099945E+02  1.250000000E+02  0.00000E+00  9.000E+00
      21     1     1     2   512   502 -1.147766909E+02 -4.877458560E+00  5.778675283E+01  1.285954399E+02  1.784161275E-06  0.00000E+00  9.000E+00
#rwgt            1           1   4.4320586371087947E-002           4      426819           0
</event>
<event>
      5   9999  3.79277E-02  4.30649E+01 -1.00000E+00  1.42879E-01
      21    -1     0     0   502   511  0.000000000E+00  0.000000000E+00  8.175851077E+02  8.175851077E+02  0.000000000E+00  0.00000E+00  9.000E+00
      21    -1     0     0   501   502  0.000000000E+00  0.000000000E+00 -6.982293622E+01  6.982293622E+01  0.000000000E+00  0.00000E+00  9.000E+00
      25     1     1     2     0     0 -7.958305597E+01  6.705530165E+01  8.402360492E+01  1.830705942E+02  1.250000000E+02  0.00000E+00  9.000E+00
      25     1     1     2     0     0  1.171766378E+02 -4.604803117E+01  4.066443913E+02  4.436614099E+02  1.250000000E+02  0.00000E+00  9.000E+00
      21     1     1     2   501   511 -3.759358185E+01 -2.100727048E+01  2.570941753E+02  2.606760399E+02  6.607249480E-06  0.00000E+00  9.000E+00
#rwgt            1           1   4.1957419147279892E-002           4      426935           0
</event>
<event>
      5   9999  3.79277E-02  2.52617E+01 -1.00000E+00  1.58413E-01
      21    -1     0     0   502   501  0.000000000E+00  0.000000000E+00  6.101793523E+01  6.101793523E+01  0.000000000E+00  0.00000E+00  9.000E+00
       1    -1     0     0   501     0  0.000000000E+00  0.000000000E+00 -1.727042325E+03  1.727042325E+03  0.000000000E+00  0.00000E+00  9.000E+00
      25     1     1     2     0     0 -1.654058607E+02  7.709004393E+01 -2.023188091E+02  2.997663660E+02  1.250000000E+02  0.00000E+00  9.000E+00
      25     1     1     2     0     0  1.408265648E+02 -8.292205075E+01 -8.679734660E+02  8.920264153E+02  1.250000000E+02  0.00000E+00  9.000E+00
       1     1     1     2   502     0  2.457929594E+01  5.832006813E+00 -5.957321146E+02  5.962674789E+02  1.078959322E-05  0.00000E+00  9.000E+00
#rwgt            1           1   3.4120007859871918E-002           4      427046           0
</event>
<event>
      5   9999 -3.79277E-02  2.23683E+01 -1.00000E+00  1.62456E-01
      21    -1     0     0   502   501  0.000000000E+00  0.000000000E+00  5.555493239E+02  5.555493239E+02  0.000000000E+00  0.00000E+00  9.000E+00
      21    -1     0     0   511   502  0.000000000E+00  0.000000000E+00 -1.118058178E+03  1.118058178E+03  0.000000000E+00  0.00000E+00  9.000E+00
      25     1     1     2     0     0  3.181646337E+01 -2.489665975E+02  2.674114555E+02  3.874668251E+02  1.250000000E+02  0.00000E+00  9.000E+00
      25     1     1     2     0     0 -3.487071382E+01  2.711254060E+02  1.289030119E+02  3.270564766E+02  1.250000000E+02  0.00000E+00  9.000E+00
      21     1     1     2   511   501  3.054250458E+00 -2.215880842E+01 -9.588233217E+02  9.590842004E+02  1.078959322E-05  0.00000E+00  9.000E+00
#rwgt            1           1 -0.29187202882328334                4      427217           0
</event>
<event>
      5   9999  3.79277E-02  1.25614E+01 -1.00000E+00  1.84964E-01
      21    -1     0     0   502   501  0.000000000E+00  0.000000000E+00  3.194843452E+02  3.194843452E+02  0.000000000E+00  0.00000E+00  9.000E+00
       2    -1     0     0   501     0  0.000000000E+00  0.000000000E+00 -6.252334961E+02  6.252334961E+02  0.000000000E+00  0.00000E+00  9.000E+00
      25     1     1     2     0     0  7.461331515E+01  4.905212761E+01  2.341067306E+02  2.800075344E+02  1.250000000E+02  0.00000E+00  9.000E+00
      25     1     1     2     0     0 -7.696800890E+01 -6.139087004E+01 -3.916939326E+01  1.638662707E+02  1.250000000E+02  0.00000E+00  9.000E+00
       2     1     1     2   502     0  2.354693744E+00  1.233874243E+01 -5.006864881E+02  5.008440362E+02  5.394796609E-06  0.00000E+00  9.000E+00
#rwgt            1           1   4.7180001332399940E-002           4      427388           0
</event>
<event>
      5   9999  3.79277E-02  4.90845E+01 -1.00000E+00  1.39535E-01
      21    -1     0     0   502   501  0.000000000E+00  0.000000000E+00  2.763121297E+02  2.763121297E+02  0.000000000E+00  0.00000E+00  9.000E+00
      21    -1     0     0   511   502  0.000000000E+00  0.000000000E+00 -3.194705909E+02  3.194705909E+02  0.000000000E+00  0.00000E+00  9.000E+00
      25     1     1     2     0     0  4.745150332E+01  1.570820489E+02  1.795591362E+02  2.734829038E+02  1.250000000E+02  0.00000E+00  9.000E+00
      25     1     1     2     0     0 -7.152446028E+01 -1.143061265E+02 -1.741638846E+02  2.532581641E+02  1.250000000E+02  0.00000E+00  9.000E+00
      21     1     1     2   511   501  2.407295696E+01 -4.277592234E+01 -4.855371288E+01  6.904165281E+01  0.000000000E+00  0.00000E+00  9.000E+00
#rwgt            1           1   4.7702746503220664E-002           4      427623           0
</event>
<event>
      5   9999  3.79277E-02  2.68867E+01 -1.00000E+00  1.56420E-01
      21    -1     0     0   502   501  0.000000000E+00  0.000000000E+00  9.909460214E+01  9.909460214E+01  0.000000000E+00  0.00000E+00  9.000E+00
      21    -1     0     0   512   502  0.000000000E+00  0.000000000E+00 -5.447185675E+02  5.447185675E+02  0.000000000E+00  0.00000E+00  9.000E+00
      25     1     1     2     0     0 -8.494999581E+01 -1.084184154E+01  7.057119001E+00  1.516866845E+02  1.250000000E+02  0.00000E+00  9.000E+00
      25     1     1     2     0     0  9.617842662E+01  3.527168069E+01 -3.425509071E+02  3.787618053E+02  1.250000000E+02  0.00000E+00  9.000E+00
      21     1     1     2   512   501 -1.122843081E+01 -2.442983915E+01 -1.101301773E+02  1.133646799E+02  1.348699152E-06  0.00000E+00  9.000E+00
#rwgt            1           1   3.8279111866024347E-002           4      427737           0
</event>
<event>
      5   9999  3.79277E-02  1.47577E+01 -1.00000E+00  1.78053E-01
      21    -1     0     0   502   501  0.000000000E+00  0.000000000E+00  5.373767180E+02  5.373767180E+02  0.000000000E+00  0.00000E+00  9.000E+00
      21    -1     0     0   501   511  0.000000000E+00  0.000000000E+00 -3.947788734E+02  3.947788734E+02  0.000000000E+00  0.00000E+00  9.000E+00
      25     1     1     2     0     0 -7.411014717E+01 -3.119210151E+01  4.417507986E+02  4.660837148E+02  1.250000000E+02  0.00000E+00  9.000E+00
      25     1     1     2     0     0  6.152530357E+01  3.889988984E+01  2.048526745E+01  1.460931572E+02  1.250000000E+02  0.00000E+00  9.000E+00
      21     1     1     2   502   511  1.258484360E+01 -7.707788337E+00 -3.196382215E+02  3.199787195E+02  6.607249480E-06  0.00000E+00  9.000E+00
#rwgt            1           1   4.6618761216454203E-002           4      427955           0
</event>
<event>
      5   9999  3.79277E-02  1.02773E+01 -1.00000E+00  1.94394E-01
      21    -1     0     0   502   501  0.000000000E+00  0.000000000E+00  1.342989017E+03  1.342989017E+03  0.000000000E+00  0.00000E+00  9.000E+00
      21    -1     0     0   501   512  0.000000000E+00  0.000000000E+00 -1.285271811E+02  1.285271811E+02  0.000000000E+00  0.00000E+00  9.000E+00
      25     1     1     2     0     0  5.042762257E+01 -3.395492009E+01  1.268167942E+02  1.881578620E+02  1.250000000E+02  0.00000E+00  9.000E+00
      25     1     1     2     0     0 -5.465914763E+01  4.332062712E+01  1.180897544E+03  1.189541218E+03  1.250000000E+02  0.00000E+00  9.000E+00
      21     1     1     2   502   512  4.231525062E+00 -9.365707028E+00 -9.325250298E+01  9.381711775E+01  3.568322551E-06  0.00000E+00  9.000E+00
#rwgt            1           1   3.4177577610440303E-002           4      428194           0
</event>
<event>
      5   9999 -3.79277E-02  9.25978E+00 -1.00000E+00  1.99699E-01
      21    -1     0     0   502   501  0.000000000E+00  0.000000000E+00  4.046081213E+01  4.046081213E+01  0.000000000E+00  0.00000E+00  9.000E+00
      21    -1     0     0   511   502  0.000000000E+00  0.000000000E+00 -1.146223110E+03  1.146223110E+03  0.000000000E+00  0.00000E+00  9.000E+00
      25     1     1     2     0     0  6.292259161E+01 -1.577892262E+02 -5.538817136E+02  5.926775220E+02  1.250000000E+02  0.00000E+00  9.000E+00
      25     1     1     2     0     0 -5.404618783E+01  1.604260667E+02 -5.272546469E+02  5.676970812E+02  1.250000000E+02  0.00000E+00  9.000E+00
      21     1     1     2   511   501 -8.876403772E+00 -2.636840478E+00 -2.462593719E+01  2.630931877E+01  3.371747881E-07  0.00000E+00  9.000E+00
#rwgt            1           1 -0.11470041647159789                4      428449           0
</event>
<event>
      5   9999  3.79277E-02  1.11662E+02 -1.00000E+00  1.21711E-01
      21    -1     0     0   502   501  0.000000000E+00  0.000000000E+00  2.635490354E+02  2.635490354E+02  0.000000000E+00  0.00000E+00  9.000E+00
      21    -1     0     0   512   502  0.000000000E+00  0.000000000E+00 -3.821238702E+02  3.821238702E+02  0.000000000E+00  0.00000E+00  9.000E+00
      25     1     1     2     0     0  1.932806613E+02 -2.968668053E+01  8.891295764E+01  2.485341567E+02  1.250000000E+02  0.00000E+00  9.000E+00
      25     1     1     2     0     0 -1.029601481E+02 -3.596908942E+01 -5.073524443E+00  1.659677925E+02  1.250000000E+02  0.00000E+00  9.000E+00
      21     1     1     2   512   501 -9.032051318E+01  6.565576995E+01 -2.024142679E+02  2.311709564E+02  2.697398305E-06  0.00000E+00  9.000E+00
#rwgt            1           1   2.1662347021711232E-002           4      428731           0
</event>
<event>
      5   9999  3.79277E-02  7.30207E+01 -1.00000E+00  1.30298E-01
      21    -1     0     0   502   501  0.000000000E+00  0.000000000E+00  1.499547028E+03  1.499547028E+03  0.000000000E+00  0.00000E+00  9.000E+00
      21    -1     0     0   511   502  0.000000000E+00  0.000000000E+00 -1.611415209E+02  1.611415209E+02  0.000000000E+00  0.00000E+00  9.000E+00
      25     1     1     2     0     0  1.156830259E+02 -3.105640554E+01  8.431313024E+02  8.607220550E+02  1.250000000E+02  0.00000E+00  9.000E+00
      25     1     1     2     0     0 -5.197985065E+01 -4.635734893E+00  6.312525342E+02  6.456223020E+02  1.250000000E+02  0.00000E+00  9.000E+00
      21     1     1     2   511   501 -6.370317526E+01  3.569214044E+01 -1.359783296E+02  1.543441918E+02  4.672030912E-06  0.00000E+00  9.000E+00
#rwgt            1           1   5.0248061861641748E-002           4      428843           0
</event>
<event>
      5   9999  3.79277E-02  2.27774E+02 -1.00000E+00  1.09630E-01
      21    -1     0     0   502   501  0.000000000E+00  0.000000000E+00  2.017557638E+03  2.017557638E+03  0.000000000E+00  0.00000E+00  9.000E+00
      21    -1     0     0   512   502  0.000000000E+00  0.000000000E+00 -6.730295683E+01  6.730295683E+01  0.000000000E+00  0.00000E+00  9.000E+00
      25     1     1     2     0     0 -9.781097634E+01 -3.241637955E+01  2.580951602E+02  3.047226944E+02  1.250000000E+02  0.00000E+00  9.000E+00
      25     1     1     2     0     0 -1.026460661E+02  1.405729856E+02  1.363671375E+03  1.380406317E+03  1.250000000E+02  0.00000E+00  9.000E+00
      21     1     1     2   512   501  2.004570425E+02 -1.081566061E+02  3.284881462E+02  3.997315843E+02  3.814697266E-06  0.00000E+00  9.000E+00
#rwgt            1           1   4.7030917689915415E-002           4      428929           0
</event>
<event>
      5   9999  3.79277E-02  7.46598E+01 -1.00000E+00  1.29819E-01
      21    -1     0     0   502   501  0.000000000E+00  0.000000000E+00  1.759153683E+03  1.759153683E+03  0.000000000E+00  0.00000E+00  9.000E+00
      21    -1     0     0   511   502  0.000000000E+00  0.000000000E+00 -1.356677572E+03  1.356677572E+03  0.000000000E+00  0.00000E+00  9.000E+00
      25     1     1     2     0     0 -2.008865298E+02  2.678836899E+02  3.875251883E+02  5.271791354E+02  1.250000000E+02  0.00000E+00  9.000E+00
      25     1     1     2     0     0  1.271759413E+02 -2.797510617E+02  1.279546664E+03  1.321854395E+03  1.250000000E+02  0.00000E+00  9.000E+00
      21     1     1     2   511   501  7.371058844E+01  1.186737173E+01 -1.264595741E+03  1.266797724E+03  2.642899792E-05  0.00000E+00  9.000E+00
#rwgt            1           1   3.4140691771111689E-002           4      429024           0
</event>
<event>
      5   9999  3.79277E-02  5.88853E+01 -1.00000E+00  1.35140E-01
      21    -1     0     0   502   512  0.000000000E+00  0.000000000E+00  2.761342368E+02  2.761342368E+02  0.000000000E+00  0.00000E+00  9.000E+00
      21    -1     0     0   501   502  0.000000000E+00  0.000000000E+00 -4.072010751E+02  4.072010751E+02  0.000000000E+00  0.00000E+00  9.000E+00
      25     1     1     2     0     0  5.822831271E+01  4.271332400E+01 -1.448199098E+01  1.450851216E+02  1.250000000E+02  0.00000E+00  9.000E+00
      25     1     1     2     0     0 -2.260540363E+00 -6.101883377E+01 -3.080115681E+02  3.379712032E+02  1.250000000E+02  0.00000E+00  9.000E+00
      21     1     1     2   501   512 -5.596777235E+01  1.830550977E+01  1.914267208E+02  2.002789871E+02  4.672030912E-06  0.00000E+00  9.000E+00
#rwgt            1           1   5.2335545579101493E-002           4      429137           0
</event>
<event>
      5   9999  3.79277E-02  1.44880E+01 -1.00000E+00  1.78816E-01
      21    -1     0     0   502   501  0.000000000E+00  0.000000000E+00  7.913665100E+02  7.913665100E+02  0.000000000E+00  0.00000E+00  9.000E+00
      21    -1     0     0   501   511  0.000000000E+00  0.000000000E+00 -9.128178260E+01  9.128178260E+01  0.000000000E+00  0.00000E+00  9.000E+00
      25     1     1     2     0     0 -5.639950664E+01 -2.188566917E+01 -1.848672661E+01  1.400951317E+02  1.250000000E+02  0.00000E+00  9.000E+00
      25     1     1     2     0     0  6.864312903E+01  2.963138387E+01  7.118203767E+02  7.265694369E+02  1.250000000E+02  0.00000E+00  9.000E+00
      21     1     1     2   502   511 -1.224362239E+01 -7.745714702E+00  6.751077314E+00  1.598372392E+01  2.064765462E-07  0.00000E+00  9.000E+00
#rwgt            1           1   3.2068101231278845E-002           4      429384           0
</event>
<event>
      5   9999  3.79277E-02  1.27720E+01 -1.00000E+00  1.84225E-01
      21    -1     0     0   502   501  0.000000000E+00  0.000000000E+00  1.190641820E+02  1.190641820E+02  0.000000000E+00  0.00000E+00  9.000E+00
      21    -1     0     0   501   512  0.000000000E+00  0.000000000E+00 -4.070243034E+02  4.070243034E+02  0.000000000E+00  0.00000E+00  9.000E+00
      25     1     1     2     0     0 -5.725838970E+01  5.388291291E+01 -2.778807956E+02  3.146817885E+02  1.250000000E+02  0.00000E+00  9.000E+00
      25     1     1     2     0     0  7.003035272E+01 -5.389765150E+01  4.122529710E+01  1.585362175E+02  1.250000000E+02  0.00000E+00  9.000E+00
      21     1     1     2   502   512 -1.277196302E+01  1.473858297E-02 -5.130462289E+01  5.287047934E+01  0.000000000E+00  0.00000E+00  9.000E+00
#rwgt            1           1   4.5135117053042365E-002           4      429527           0
</event>
<event>
      5   9999  3.79277E-02  1.29908E+02 -1.00000E+00  1.18924E-01
      21    -1     0     0   502   501  0.000000000E+00  0.000000000E+00  2.950322989E+02  2.950322989E+02  0.000000000E+00  0.00000E+00  9.000E+00
      21    -1     0     0   511   502  0.000000000E+00  0.000000000E+00 -2.895051571E+02  2.895051571E+02  0.000000000E+00  0.00000E+00  9.000E+00
      25     1     1     2     0     0 -1.310248419E+01  2.350475288E+01 -5.424033986E+01  1.388926311E+02  1.250000000E+02  0.00000E+00  9.000E+00
      25     1     1     2     0     0  8.057951164E+01  8.750403212E+01  1.934591809E+02  2.592324594E+02  1.250000000E+02  0.00000E+00  9.000E+00
      21     1     1     2   511   501 -6.747702745E+01 -1.110087850E+02 -1.336916992E+02  1.864123655E+02  4.672030912E-06  0.00000E+00  9.000E+00
#rwgt            2          11   1.7007769388563976E-003           4      430094           0
</event>
<event>
      5   9999  3.79277E-02  1.48405E+02 -1.00000E+00  1.16578E-01
       2    -1     0     0   502     0  0.000000000E+00  0.000000000E+00  2.456519022E+03  2.456519022E+03  0.000000000E+00  0.00000E+00  9.000E+00
      21    -1     0     0   501   502  0.000000000E+00  0.000000000E+00 -1.621257705E+02  1.621257705E+02  0.000000000E+00  0.00000E+00  9.000E+00
      25     1     1     2     0     0  2.883635242E+02 -2.444729660E+02  6.446762183E+02  7.577288299E+02  1.250000000E+02  0.00000E+00  9.000E+00
      25     1     1     2     0     0 -1.445238926E+02  2.079472080E+02  9.327213472E+01  2.974119835E+02  1.250000000E+02  0.00000E+00  9.000E+00
       2     1     1     2   501     0 -1.438396317E+02  3.652575805E+01  1.556444898E+03  1.563503979E+03  2.157918644E-05  0.00000E+00  9.000E+00
#rwgt            1           1   9.0258652983408599E-002           4      430174           0
</event>
<event>
      5   9999  3.79277E-02  8.97178E+01 -1.00000E+00  1.25985E-01
      21    -1     0     0   502   501  0.000000000E+00  0.000000000E+00  1.097567305E+02  1.097567305E+02  0.000000000E+00  0.00000E+00  9.000E+00
      21    -1     0     0   501   511  0.000000000E+00  0.000000000E+00 -6.858617382E+02  6.858617382E+02  0.000000000E+00  0.00000E+00  9.000E+00
      25     1     1     2     0     0 -3.309903589E+01 -1.312128185E+02 -8.594095361E+01  2.032810798E+02  1.250000000E+02  0.00000E+00  9.000E+00
      25     1     1     2     0     0  1.133721329E+02  1.712815946E+02 -3.870398270E+02  4.556483873E+02  1.250000000E+02  0.00000E+00  9.000E+00
      21     1     1     2   502   511 -8.027309702E+01 -4.006877607E+01 -1.031242271E+02  1.366890015E+02  1.907348633E-06  0.00000E+00  9.000E+00
#rwgt            1           1   4.3519967680670971E-002           4      430229           0
</event>
<event>
      5   9999  3.79277E-02  3.71404E+01 -1.00000E+00  1.46867E-01
      21    -1     0     0   512   501  0.000000000E+00  0.000000000E+00  1.056182407E+03  1.056182407E+03  0.000000000E+00  0.00000E+00  9.000E+00
      21    -1     0     0   501   502  0.000000000E+00  0.000000000E+00 -3.820399000E+02  3.820399000E+02  0.000000000E+00  0.00000E+00  9.000E+00
      25     1     1     2     0     0  7.834421370E+01  2.987882719E+02  4.084605547E+01  3.357166179E+02  1.250000000E+02  0.00000E+00  9.000E+00
      25     1     1     2     0     0 -1.042555618E+02 -2.721798442E+02 -1.267674631E+02  3.415348876E+02  1.250000000E+02  0.00000E+00  9.000E+00
      21     1     1     2   512   502  2.591134808E+01 -2.660842771E+01  7.600639148E+02  7.609708017E+02  1.078959322E-05  0.00000E+00  9.000E+00
#rwgt            1           1   3.2573999409321951E-002           4      430307           0
</event>
<event>
      5   9999  3.79277E-02  5.79967E+01 -1.00000E+00  1.35496E-01
      21    -1     0     0   502   501  0.000000000E+00  0.000000000E+00  2.448940734E+02  2.448940734E+02  0.000000000E+00  0.00000E+00  9.000E+00
      21    -1     0     0   501   511  0.000000000E+00  0.000000000E+00 -3.450476240E+02  3.450476240E+02  0.000000000E+00  0.00000E+00  9.000E+00
      25     1     1     2     0     0 -9.914616432E+01 -1.591709624E+02 -1.183316544E+02  2.545441762E+02  1.250000000E+02  0.00000E+00  9.000E+00
      25     1     1     2     0     0  1.099121949E+02  2.161596034E+02  3.488828185E+01  2.750415549E+02  1.250000000E+02  0.00000E+00  9.000E+00
      21     1     1     2   502   511 -1.076603062E+01 -5.698864094E+01 -1.671017802E+01  6.035596624E+01  6.307962682E-07  0.00000E+00  9.000E+00
#rwgt            1           1   3.5321976322486640E-002           4      430395           0
</event>
<event>
      5   9999  3.79277E-02  7.03519E+01 -1.00000E+00  1.31110E-01
      21    -1     0     0   512   501  0.000000000E+00  0.000000000E+00  1.183073658E+03  1.183073658E+03  0.000000000E+00  0.00000E+00  9.000E+00
      21    -1     0     0   501   502  0.000000000E+00  0.000000000E+00 -7.997852464E+01  7.997852464E+01  0.000000000E+00  0.00000E+00  9.000E+00
      25     1     1     2     0     0 -1.470714201E+02 -1.339343040E+02  3.202473507E+02  3.971797654E+02  1.250000000E+02  0.00000E+00  9.000E+00
      25     1     1     2     0     0  1.156009210E+02  1.968548179E+02  4.042202726E+02  4.807644133E+02  1.250000000E+02  0.00000E+00  9.000E+00
      21     1     1     2   512   502  3.147049905E+01 -6.292051386E+01  3.786275098E+02  3.851080037E+02  9.344061824E-06  0.00000E+00  9.000E+00
#rwgt            1           1   3.4793848123219590E-002           4      430652           0
</event>
<event>
      5   9999  3.79277E-02  1.40558E+01 -1.00000E+00  1.80086E-01
      21    -1     0     0   502   501  0.000000000E+00  0.000000000E+00  2.193997835E+03  2.193997835E+03  0.000000000E+00  0.00000E+00  9.000E+00
      21    -1     0     0   501   511  0.000000000E+00  0.000000000E+00 -3.503159048E+01  3.503159048E+01  0.000000000E+00  0.00000E+00  9.000E+00
      25     1     1     2     0     0  6.477645604E+00 -9.899261799E+00  1.866143488E+03  1.870362658E+03  1.250000000E+02  0.00000E+00  9.000E+00
      25     1     1     2     0     0 -7.714272565E+00 -4.101998233E+00  3.112293611E+02  3.355071558E+02  1.250000000E+02  0.00000E+00  9.000E+00
      21     1     1     2   502   511  1.236626961E+00  1.400126003E+01 -1.840660438E+01  2.315961169E+01  2.158972058E-06  0.00000E+00  9.000E+00
#rwgt            1           1   8.7472668607416759E-002           4      430767           0
</event>
<event>
      5   9999  3.79277E-02  7.30776E+01 -1.00000E+00  1.30281E-01
      21    -1     0     0   502   501  0.000000000E+00  0.000000000E+00  1.233388877E+03  1.233388877E+03  0.000000000E+00  0.00000E+00  9.000E+00
      21    -1     0     0   501   512  0.000000000E+00  0.000000000E+00 -2.213439092E+03  2.213439092E+03  0.000000000E+00  0.00000E+00  9.000E+00
      25     1     1     2     0     0 -1.329999321E+02 -2.787845009E+01  5.483292874E+02  5.785811934E+02  1.250000000E+02  0.00000E+00  9.000E+00
      25     1     1     2     0     0  1.052993311E+02  9.550252618E+01  6.559382845E+02  6.827069025E+02  1.250000000E+02  0.00000E+00  9.000E+00
      21     1     1     2   502   512  2.770060102E+01 -6.762407609E+01 -2.184317787E+03  2.185539873E+03  3.051757812E-05  0.00000E+00  9.000E+00
#rwgt            1           1   3.7162324468717693E-002           4      430987           0
</event>
<event>
      5   9999  3.79277E-02  6.38604E+01 -1.00000E+00  1.33272E-01
      21    -1     0     0   502   501  0.000000000E+00  0.000000000E+00  9.410411937E+02  9.410411937E+02  0.000000000E+00  0.00000E+00  9.000E+00
      21    -1     0     0   501   511  0.000000000E+00  0.000000000E+00 -2.526279100E+02  2.526279100E+02  0.000000000E+00  0.00000E+00  9.000E+00
      25     1     1     2     0     0 -1.586292415E+02 -4.674926279E+01  4.554185142E+02  5.003796088E+02  1.250000000E+02  0.00000E+00  9.000E+00
      25     1     1     2     0     0  1.202079968E+02  9.775861509E+01  4.366317938E+02  4.798739758E+02  1.250000000E+02  0.00000E+00  9.000E+00
      21     1     1     2   502   511  3.842124465E+01 -5.100935230E+01 -2.036370244E+02  2.134155191E+02  3.814697266E-06  0.00000E+00  9.000E+00
#rwgt            1           1   4.0110400254790728E-002           4      431110           0
</event>
<event>
      5   9999  3.79277E-02  5.49650E+01 -1.00000E+00  1.36770E-01
      21    -1     0     0   502   501  0.000000000E+00  0.000000000E+00  2.357411365E+02  2.357411365E+02  0.000000000E+00  0.00000E+00  9.000E+00
      21    -1     0     0   501   512  0.000000000E+00  0.000000000E+00 -4.825842101E+02  4.825842101E+02  0.000000000E+00  0.00000E+00  9.000E+00
      25     1     1     2     0     0  2.319071065E+02  1.217335102E+02 -2.039010787E+02  3.546838077E+02  1.250000000E+02  0.00000E+00  9.000E+00
      25     1     1     2     0     0 -2.583115783E+02 -7.352612155E+01 -3.971152197E+00  2.962629441E+02  1.250000000E+02  0.00000E+00  9.000E+00
      21     1     1     2   502   512  2.640447181E+01 -4.820738862E+01 -3.897084275E+01  6.737859477E+01  6.743495762E-07  0.00000E+00  9.000E+00
#rwgt            1           1   2.2885562292528451E-002           4      431220           0
</event>
<event>
      5   9999  3.79277E-02  1.56704E+02 -1.00000E+00  1.15646E-01
      21    -1     0     0   502   501  0.000000000E+00  0.000000000E+00  6.981560082E+01  6.981560082E+01  0.000000000E+00  0.00000E+00  9.000E+00
      21    -1     0     0   501   511  0.000000000E+00  0.000000000E+00 -2.262840435E+03  2.262840435E+03  0.000000000E+00  0.00000E+00  9.000E+00
      25     1     1     2     0     0 -3.049159566E+02  4.111535082E+00 -9.844335728E+02  1.038135398E+03  1.250000000E+02  0.00000E+00  9.000E+00
      25     1     1     2     0     0  1.650622894E+02 -7.480070037E+01 -2.977521453E+02  3.702999381E+02  1.250000000E+02  0.00000E+00  9.000E+00
      21     1     1     2   502   511  1.398536673E+02  7.068916529E+01 -9.108391158E+02  9.242206994E+02  0.000000000E+00  0.00000E+00  9.000E+00
#rwgt            1           1   2.8610338554062451E-002           4      431305           0
</event>
<event>
      5   9999  3.79277E-02  2.33604E+01 -1.00000E+00  1.60990E-01
      21    -1     0     0   512   501  0.000000000E+00  0.000000000E+00  5.439703740E+01  5.439703740E+01  0.000000000E+00  0.00000E+00  9.000E+00
      21    -1     0     0   501   502  0.000000000E+00  0.000000000E+00 -8.809259180E+02  8.809259180E+02  0.000000000E+00  0.00000E+00  9.000E+00
      25     1     1     2     0     0 -1.654246971E+01  6.784404022E+01 -7.025691948E+02  7.170111161E+02  1.250000000E+02  0.00000E+00  9.000E+00
      25     1     1     2     0     0  9.681969298E+00 -9.017432330E+01 -1.175652333E+02  1.940920740E+02  1.250000000E+02  0.00000E+00  9.000E+00
      21     1     1     2   512   502  6.860500410E+00  2.233028308E+01 -6.394452436E+00  2.421976528E+01  5.960464478E-07  0.00000E+00  9.000E+00
#rwgt            1           1   3.6638617913336669E-002           4      431406           0
</event>
<event>
      5   9999  3.79277E-02  4.81538E+01 -1.00000E+00  1.40014E-01
      21    -1     0     0   511   501  0.000000000E+00  0.000000000E+00  5.385226126E+02  5.385226126E+02  0.000000000E+00  0.00000E+00  9.000E+00
      21    -1     0     0   501   502  0.000000000E+00  0.000000000E+00 -4.247176421E+02  4.247176421E+02  0.000000000E+00  0.00000E+00  9.000E+00
      25     1     1     2     0     0 -1.073168161E+02 -3.420490433E+01  7.961832226E+01  1.861476611E+02  1.250000000E+02  0.00000E+00  9.000E+00
      25     1     1     2     0     0  6.797094781E+01  6.196621978E+01 -3.536890113E+02  3.862392767E+02  1.250000000E+02  0.00000E+00  9.000E+00
      21     1     1     2   511   502  3.934586831E+01 -2.776131545E+01  3.878756596E+02  3.908533168E+02  0.000000000E+00  0.00000E+00  9.000E+00
#rwgt            1           1   3.3566234059886721E-002           4      431577           0
</event>
<event>
      5   9999  3.79277E-02  5.35753E+01 -1.00000E+00  1.37385E-01
      21    -1     0     0   502   501  0.000000000E+00  0.000000000E+00  2.501297990E+02  2.501297990E+02  0.000000000E+00  0.00000E+00  9.000E+00
      21    -1     0     0   512   502  0.000000000E+00  0.000000000E+00 -1.058701694E+03  1.058701694E+03  0.000000000E+00  0.00000E+00  9.000E+00
      25     1     1     2     0     0 -5.574428258E+01  2.044557837E+02  3.448591547E+01  2.484428926E+02  1.250000000E+02  0.00000E+00  9.000E+00
      25     1     1     2     0     0  1.676087966E+01 -2.412064417E+02 -6.415680254E+01  2.796472241E+02  1.250000000E+02  0.00000E+00  9.000E+00
      21     1     1     2   512   501  3.898340292E+01  3.675065807E+01 -7.789010077E+02  7.807413761E+02  1.078959322E-05  0.00000E+00  9.000E+00
#rwgt            1           1   4.3084663062723773E-002           4      431671           0
</event>
<event>
      5   9999  3.79277E-02  1.58406E+02 -1.00000E+00  1.15463E-01
      21    -1     0     0   502   501  0.000000000E+00  0.000000000E+00  2.999212967E+02  2.999212967E+02  0.000000000E+00  0.00000E+00  9.000E+00
      21    -1     0     0   511   502  0.000000000E+00  0.000000000E+00 -5.122416464E+02  5.122416464E+02  0.000000000E+00  0.00000E+00  9.000E+00
      25     1     1     2     0     0  1.884961626E+02  1.234081542E+02  1.195512941E+02  2.840385321E+02  1.250000000E+02  0.00000E+00  9.000E+00
      25     1     1     2     0     0 -1.845251965E+02  3.494801593E+01 -9.872748397E+01  2.462580518E+02  1.250000000E+02  0.00000E+00  9.000E+00
      21     1     1     2   511   501 -3.970966028E+00 -1.583561701E+02 -2.331441598E+02  2.818663592E+02  3.814697266E-06  0.00000E+00  9.000E+00
#rwgt            1           1   2.8009773329136903E-002           4      431862           0
</event>
<event>
      5   9999  3.79277E-02  4.77104E+01 -1.00000E+00  1.40247E-01
      21    -1     0     0   502   501  0.000000000E+00  0.000000000E+00  5.470621695E+02  5.470621695E+02  0.000000000E+00  0.00000E+00  9.000E+00
      21    -1     0     0   512   502  0.000000000E+00  0.000000000E+00 -1.656776711E+02  1.656776711E+02  0.000000000E+00  0.00000E+00  9.000E+00
      25     1     1     2     0     0 -9.860937879E+01 -1.259038267E+02 -3.209547767E+01  2.055011018E+02  1.250000000E+02  0.00000E+00  9.000E+00
      25     1     1     2     0     0  6.548707860E+01  9.156434529E+01  4.259175417E+02  4.579337715E+02  1.250000000E+02  0.00000E+00  9.000E+00
      21     1     1     2   512   501  3.312230019E+01  3.433948142E+01 -1.243756570E+01  4.930496724E+01  7.539457465E-07  0.00000E+00  9.000E+00
#rwgt            1           1   4.2566719492214224E-002           4      432042           0
</event>
<event>
      5   9999  3.79277E-02  1.08339E+02 -1.00000E+00  1.22283E-01
      21    -1     0     0   502   511  0.000000000E+00  0.000000000E+00  1.181692533E+02  1.181692533E+02  0.000000000E+00  0.00000E+00  9.000E+00
      21    -1     0     0   501   502  0.000000000E+00  0.000000000E+00 -7.100149671E+02  7.100149671E+02  0.000000000E+00  0.00000E+00  9.000E+00
      25     1     1     2     0     0  1.330252438E+01 -1.388304278E+02 -3.415670569E+02  3.895431930E+02  1.250000000E+02  0.00000E+00  9.000E+00
      25     1     1     2     0     0  9.469748459E+01  1.473914190E+02 -2.505643192E+02  3.303018650E+02  1.250000000E+02  0.00000E+00  9.000E+00
      21     1     1     2   501   511 -1.080000090E+02 -8.560991169E+00  2.856622484E-01  1.083391624E+02  2.237262471E-06  0.00000E+00  9.000E+00
#rwgt            1           1   4.2436632023427054E-002           4      432266           0
</event>
<event>
      5   9999  3.79277E-02  1.38209E+01 -1.00000E+00  1.80800E-01
      21    -1     0     0   502   501  0.000000000E+00  0.000000000E+00  1.117554495E+03  1.117554495E+03  0.000000000E+00  0.00000E+00  9.000E+00
      21    -1     0     0   501   512  0.000000000E+00  0.000000000E+00 -9.720232193E+01  9.720232193E+01  0.000000000E+00  0.00000E+00  9.000E+00
      25     1     1     2     0     0 -2.709874266E+01  1.720799368E+02  7.212805131E+02  7.524735378E+02  1.250000000E+02  0.00000E+00  9.000E+00
      25     1     1     2     0     0  3.801335680E+01 -1.636012032E+02  3.509158032E+02  4.086285231E+02  1.250000000E+02  0.00000E+00  9.000E+00
      21     1     1     2   502   512 -1.091461414E+01 -8.478733629E+00 -5.184414290E+01  5.365475635E+01  2.336015456E-06  0.00000E+00  9.000E+00
#rwgt            1           1   2.3466050157921265E-002           4      432333           0
</event>
<event>
      5   9999  3.79277E-02  1.08103E+02 -1.00000E+00  1.22325E-01
      -1    -1     0     0     0   501  0.000000000E+00  0.000000000E+00  1.176142610E+02  1.176142610E+02  0.000000000E+00  0.00000E+00  9.000E+00
      21    -1     0     0   501   502  0.000000000E+00  0.000000000E+00 -1.505295937E+03  1.505295937E+03  0.000000000E+00  0.00000E+00  9.000E+00
      25     1     1     2     0     0 -1.075002181E+02 -6.943330317E+01 -1.200912119E+03  1.214163168E+03  1.250000000E+02  0.00000E+00  9.000E+00
      25     1     1     2     0     0  6.387169821E+01 -2.947450985E+01 -2.465343313E+02  2.852236264E+02  1.250000000E+02  0.00000E+00  9.000E+00
      -1     1     1     2     0   502  4.362851984E+01  9.890781303E+01  5.976477384E+01  1.235234043E+02  4.156969970E-06  0.00000E+00  9.000E+00
#rwgt            1           1   3.3435082669537070E-002           4      432667           0
</event>
<event>
      5   9999  3.79277E-02  1.50989E+02 -1.00000E+00  1.16281E-01
      21    -1     0     0   502   511  0.000000000E+00  0.000000000E+00  2.079114433E+02  2.079114433E+02  0.000000000E+00  0.00000E+00  9.000E+00
      21    -1     0     0   501   502  0.000000000E+00  0.000000000E+00 -5.778940117E+02  5.778940117E+02  0.000000000E+00  0.00000E+00  9.000E+00
      25     1     1     2     0     0 -1.045633784E+02 -1.446027401E+02 -4.250070483E+02  4.775975750E+02  1.250000000E+02  0.00000E+00  9.000E+00
      25     1     1     2     0     0  1.964126955E+01  1.975968218E+01 -3.455324428E+01  1.326467158E+02  1.250000000E+02  0.00000E+00  9.000E+00
      21     1     1     2   501   511  8.492210887E+01  1.248430579E+02  8.957772429E+01  1.755611642E+02  9.536743164E-07  0.00000E+00  9.000E+00
#rwgt            2          11   2.1363828685984089E-003           4      432831           0
</event>
<event>
      5   9999  3.79277E-02  5.17018E+01 -1.00000E+00  1.38251E-01
      21    -1     0     0   512   501  0.000000000E+00  0.000000000E+00  1.637992917E+02  1.637992917E+02  0.000000000E+00  0.00000E+00  9.000E+00
      21    -1     0     0   501   502  0.000000000E+00  0.000000000E+00 -1.146012140E+03  1.146012140E+03  0.000000000E+00  0.00000E+00  9.000E+00
      25     1     1     2     0     0  7.725533742E+01 -1.099758154E+02 -7.842326278E+02  8.054246592E+02  1.250000000E+02  0.00000E+00  9.000E+00
      25     1     1     2     0     0 -9.964634263E+01  6.337406738E+01 -3.247558678E+02  3.674738626E+02  1.250000000E+02  0.00000E+00  9.000E+00
      21     1     1     2   512   502  2.239100520E+01  4.660174797E+01  1.267756476E+02  1.369129097E+02  0.000000000E+00  0.00000E+00  9.000E+00
#rwgt            1           1   4.8065074167926880E-002           4      432896           0
</event>
<event>
      5   9999  3.79277E-02  1.72832E+02 -1.00000E+00  1.14006E-01
      21    -1     0     0   502   511  0.000000000E+00  0.000000000E+00  2.844134815E+02  2.844134815E+02  0.000000000E+00  0.00000E+00  9.000E+00
      21    -1     0     0   501   502  0.000000000E+00  0.000000000E+00 -1.016932221E+03  1.016932221E+03  0.000000000E+00  0.00000E+00  9.000E+00
      25     1     1     2     0     0  3.058747088E+02 -3.610586334E+02 -6.197295417E+02  7.896913188E+02  1.250000000E+02  0.00000E+00  9.000E+00
      25     1     1     2     0     0 -1.834809058E+02  2.390312404E+02 -7.488222182E+01  3.347140927E+02  1.250000000E+02  0.00000E+00  9.000E+00
      21     1     1     2   501   511 -1.223938030E+02  1.220273929E+02 -3.790697550E+01  1.769402906E+02  4.291534424E-06  0.00000E+00  9.000E+00
#rwgt            1           1   2.9807386332628655E-002           4      433031           0
</event>
<event>
      5   9999  3.79277E-02  2.48820E+02 -1.00000E+00  1.08301E-01
      21    -1     0     0   502   501  0.000000000E+00  0.000000000E+00  4.765469296E+02  4.765469296E+02  0.000000000E+00  0.00000E+00  9.000E+00
      21    -1     0     0   512   502  0.000000000E+00  0.000000000E+00 -8.523845103E+02  8.523845103E+02  0.000000000E+00  0.00000E+00  9.000E+00
      25     1     1     2     0     0  4.425217600E+01 -7.200805558E+01  4.631501499E+01  1.578400955E+02  1.250000000E+02  0.00000E+00  9.000E+00
      25     1     1     2     0     0  2.014931019E+02  1.110032161E+02  3.053440283E+02  4.022202876E+02  1.250000000E+02  0.00000E+00  9.000E+00
      21     1     1     2   512   501 -2.457452779E+02 -3.899516055E+01 -7.274966240E+02  7.688710569E+02  1.078959322E-05  0.00000E+00  9.000E+00
#rwgt            1           1   4.7535810320008857E-002           4      433186           0
</event>
<event>
      5   9999  3.79277E-02  5.21024E+01 -1.00000E+00  1.38063E-01
      21    -1     0     0   502   501  0.000000000E+00  0.000000000E+00  5.494473997E+02  5.494473997E+02  0.000000000E+00  0.00000E+00  9.000E+00
      21    -1     0     0   511   502  0.000000000E+00  0.000000000E+00 -1.014637352E+02  1.014637352E+02  0.000000000E+00  0.00000E+00  9.000E+00
      25     1     1     2     0     0  9.752510497E+01 -7.323723788E-01  2.268681466E+02  2.767775974E+02  1.250000000E+02  0.00000E+00  9.000E+00
      25     1     1     2     0     0 -1.302044669E+02  4.131216837E+01  2.526462856E+02  3.132332103E+02  1.250000000E+02  0.00000E+00  9.000E+00
      21     1     1     2   511   501  3.267936189E+01 -4.057979599E+01 -3.153076765E+01  6.090032713E+01  0.000000000E+00  0.00000E+00  9.000E+00
#rwgt            1           1   4.2783306273558031E-002           4      433284           0
</event>
<event>
      5   9999  3.79277E-02  3.33824E+01 -1.00000E+00  1.49886E-01
      21    -1     0     0   502   501  0.000000000E+00  0.000000000E+00  2.547404592E+02  2.547404592E+02  0.000000000E+00  0.00000E+00  9.000E+00
      21    -1     0     0   512   502  0.000000000E+00  0.000000000E+00 -1.637248233E+02  1.637248233E+02  0.000000000E+00  0.00000E+00  9.000E+00
      25     1     1     2     0     0 -3.226523300E+01  7.893566648E+01 -1.318494508E+01  1.518905115E+02  1.250000000E+02  0.00000E+00  9.000E+00
      25     1     1     2     0     0  4.103656028E+01 -1.111450932E+02  1.367763642E+02  2.199318186E+02  1.250000000E+02  0.00000E+00  9.000E+00
      21     1     1     2   512   501 -8.771327275E+00  3.220942671E+01 -3.257578330E+01  4.664295240E+01  4.768371582E-07  0.00000E+00  9.000E+00
#rwgt            1           1   2.5425156429906230E-002           4      433406           0
</event>
<event>
      5   9999  3.79277E-02  2.65016E+01 -1.00000E+00  1.56877E-01
      21    -1     0     0   502   511  0.000000000E+00  0.000000000E+00  5.995479648E+02  5.995479648E+02  0.000000000E+00  0.00000E+00  9.000E+00
      21    -1     0     0   501   502  0.000000000E+00  0.000000000E+00 -4.130769104E+02  4.130769104E+02  0.000000000E+00  0.00000E+00  9.000E+00
      25     1     1     2     0     0  2.845329573E+02 -2.055694226E+01  3.261547148E+02  4.509805868E+02  1.250000000E+02  0.00000E+00  9.000E+00
      25     1     1     2     0     0 -3.093008718E+02  1.112902364E+01 -2.695898382E+02  4.290624259E+02  1.250000000E+02  0.00000E+00  9.000E+00
      21     1     1     2   501   511  2.476791444E+01  9.427918620E+00  1.299061777E+02  1.325818625E+02  0.000000000E+00  0.00000E+00  9.000E+00
#rwgt            1           1   2.3499451201226880E-002           4      433510           0
</event>
<event>
      5   9999  3.79277E-02  2.19761E+02 -1.00000E+00  1.10178E-01
      21    -1     0     0   502   501  0.000000000E+00  0.000000000E+00  9.154556717E+02  9.154556717E+02  0.000000000E+00  0.00000E+00  9.000E+00
      21    -1     0     0   501   512  0.000000000E+00  0.000000000E+00 -2.766476868E+02  2.766476868E+02  0.000000000E+00  0.00000E+00  9.000E+00
      25     1     1     2     0     0  5.356788150E+01  3.032878881E+02  4.932029550E+02  5.947497085E+02  1.250000000E+02  0.00000E+00  9.000E+00
      25     1     1     2     0     0  1.511374844E+02 -2.233463651E+02  2.150564405E+02  3.668792861E+02  1.250000000E+02  0.00000E+00  9.000E+00
      21     1     1     2   502   512 -2.047053660E+02 -7.994152301E+01 -6.945141052E+01  2.304743638E+02  4.862803949E-06  0.00000E+00  9.000E+00
#rwgt            1           1  0.20495590971165223                4      433756           0
</event>
<event>
      5   9999  3.79277E-02  2.78594E+01 -1.00000E+00  1.55307E-01
      21    -1     0     0   502   501  0.000000000E+00  0.000000000E+00  1.247072045E+03  1.247072045E+03  0.000000000E+00  0.00000E+00  9.000E+00
      21    -1     0     0   511   502  0.000000000E+00  0.000000000E+00 -2.135767267E+02  2.135767267E+02  0.000000000E+00  0.00000E+00  9.000E+00
      25     1     1     2     0     0  2.435026387E+02 -2.497095596E+02  4.069402581E+02  5.503396886E+02  1.250000000E+02  0.00000E+00  9.000E+00
      25     1     1     2     0     0 -2.175629089E+02  2.395470428E+02  7.272932332E+02  8.057895830E+02  1.250000000E+02  0.00000E+00  9.000E+00
      21     1     1     2   511   501 -2.593972982E+01  1.016251684E+01 -1.007381731E+02  1.045194999E+02  1.348699152E-06  0.00000E+00  9.000E+00
#rwgt            1           1   4.2825712893128816E-002           4      433839           0
</event>
<event>
      5   9999  3.79277E-02  2.14541E+01 -1.00000E+00  1.63893E-01
      21    -1     0     0   502   501  0.000000000E+00  0.000000000E+00  5.796121056E+01  5.796121056E+01  0.000000000E+00  0.00000E+00  9.000E+00
      21    -1     0     0   501   512  0.000000000E+00  0.000000000E+00 -7.748910633E+02  7.748910633E+02  0.000000000E+00  0.00000E+00  9.000E+00
      25     1     1     2     0     0  9.091580081E+00 -8.919916312E+01 -5.941124209E+02  6.137049097E+02  1.250000000E+02  0.00000E+00  9.000E+00
      25     1     1     2     0     0 -2.831671674E+01  7.967697872E+01 -7.895853629E+01  1.703223645E+02  1.250000000E+02  0.00000E+00  9.000E+00
      21     1     1     2   502   512  1.922513666E+01  9.522184401E+00 -4.385889552E+01  4.882499966E+01  6.743495762E-07  0.00000E+00  9.000E+00
#rwgt            1           1   3.5124309428703329E-002           4      433977           0
</event>
<event>
      5   9999  3.79277E-02  9.27617E+00 -1.00000E+00  1.99606E-01
      21    -1     0     0   511   501  0.000000000E+00  0.000000000E+00  5.636526370E+02  5.636526370E+02  0.000000000E+00  0.00000E+00  9.000E+00
      21    -1     0     0   501   502  0.000000000E+00  0.000000000E+00 -1.360439827E+03  1.360439827E+03  0.000000000E+00  0.00000E+00  9.000E+00
      25     1     1     2     0     0  1.118455515E+02  4.491831753E+01 -4.266964540E+02  4.606755328E+02  1.250000000E+02  0.00000E+00  9.000E+00
      25     1     1     2     0     0 -1.082703306E+02 -3.635881036E+01 -9.088953794E+02  9.245324431E+02  1.250000000E+02  0.00000E+00  9.000E+00
      21     1     1     2   511   502 -3.575220908E+00 -8.559507176E+00  5.388046436E+02  5.388844879E+02  1.078959322E-05  0.00000E+00  9.000E+00
#rwgt            1           1   4.6797069243519923E-002           4      434293           0
</event>
<event>
      5   9999  3.79277E-02  5.37284E+01 -1.00000E+00  1.37317E-01
      21    -1     0     0   502   512  0.000000000E+00  0.000000000E+00  1.179572522E+02  1.179572522E+02  0.000000000E+00  0.00000E+00  9.000E+00
      21    -1     0     0   501   502  0.000000000E+00  0.000000000E+00 -4.536953602E+02  4.536953602E+02  0.000000000E+00  0.00000E+00  9.000E+00
      25     1     1     2     0     0 -8.024394147E+01  8.652571770E+01 -1.086491944E+02  2.033603634E+02  1.250000000E+02  0.00000E+00  9.000E+00
      25     1     1     2     0     0  1.274794193E+02 -1.121294997E+02 -2.330159337E+02  3.142378914E+02  1.250000000E+02  0.00000E+00  9.000E+00
      21     1     1     2   501   512 -4.723547780E+01  2.560378200E+01  5.927020048E+00  5.405435766E+01  1.464868275E-06  0.00000E+00  9.000E+00
#rwgt            1           1   3.6358565670760477E-002           4      434551           0
</event>
<event>
      5   9999  3.79277E-02  8.04547E+01 -1.00000E+00  1.28230E-01
      21    -1     0     0   502   501  0.000000000E+00  0.000000000E+00  1.811429514E+02  1.811429514E+02  0.000000000E+00  0.00000E+00  9.000E+00
      21    -1     0     0   501   511  0.000000000E+00  0.000000000E+00 -4.741747166E+02  4.741747166E+02  0.000000000E+00  0.00000E+00  9.000E+00
      25     1     1     2     0     0 -1.457184564E+02 -9.834252069E+01 -1.737919759E+02  2.770086115E+02  1.250000000E+02  0.00000E+00  9.000E+00
      25     1     1     2     0     0  2.261105036E+02  9.516882770E+01 -7.039943254E+01  2.841903336E+02  1.250000000E+02  0.00000E+00  9.000E+00
      21     1     1     2   502   511 -8.039204715E+01  3.173692987E+00 -4.884035668E+01  9.411872297E+01  9.536743164E-07  0.00000E+00  9.000E+00
#rwgt            1           1   3.2926660771862883E-002           4      434652           0
</event>
<event>
      5   9999  3.79277E-02  1.54020E+01 -1.00000E+00  1.76308E-01
      21    -1     0     0   502   512  0.000000000E+00  0.000000000E+00  1.007773583E+03  1.007773583E+03  0.000000000E+00  0.00000E+00  9.000E+00
      21    -1     0     0   501   502  0.000000000E+00  0.000000000E+00 -5.689169211E+01  5.689169211E+01  0.000000000E+00  0.00000E+00  9.000E+00
      25     1     1     2     0     0 -1.933069477E+02 -1.280349819E+01  3.435895948E+02  4.137756823E+02  1.250000000E+02  0.00000E+00  9.000E+00
      25     1     1     2     0     0  1.784534301E+02  1.687720767E+01  5.588311114E+02  6.000397303E+02  1.250000000E+02  0.00000E+00  9.000E+00
      21     1     1     2   501   512  1.485351762E+01 -4.073709480E+00  4.846118450E+01  5.084986231E+01  6.743495762E-07  0.00000E+00  9.000E+00
#rwgt            1           1   8.7038944467208584E-002           4      434707           0
</event>
<event>
      5   9999  3.79277E-02  2.74708E+01 -1.00000E+00  1.55745E-01
      21    -1     0     0   502   511  0.000000000E+00  0.000000000E+00  2.183519615E+02  2.183519615E+02  0.000000000E+00  0.00000E+00  9.000E+00
      21    -1     0     0   501   502  0.000000000E+00  0.000000000E+00 -2.377605998E+02  2.377605998E+02  0.000000000E+00  0.00000E+00  9.000E+00
      25     1     1     2     0     0 -1.999627398E+01 -1.723725543E+02 -1.772273432E+01  2.145955353E+02  1.250000000E+02  0.00000E+00  9.000E+00
      25     1     1     2     0     0  4.369496943E+01  1.584795083E+02 -2.151617210E+01  2.076365829E+02  1.250000000E+02  0.00000E+00  9.000E+00
      21     1     1     2   501   511 -2.369869545E+01  1.389304597E+01  1.983026806E+01  3.388044308E+01  5.331201500E-07  0.00000E+00  9.000E+00
#rwgt            1           1   4.1651920268825263E-002           4      434846           0
</event>
<event>
      5   9999  3.79277E-02  3.76176E+01 -1.00000E+00  1.46514E-01
      21    -1     0     0   502   501  0.000000000E+00  0.000000000E+00  3.341898494E+02  3.341898494E+02  0.000000000E+00  0.00000E+00  9.000E+00
      21    -1     0     0   512   502  0.000000000E+00  0.000000000E+00 -3.113446764E+02  3.113446764E+02  0.000000000E+00  0.00000E+00  9.000E+00
      25     1     1     2     0     0  1.106316432E+02 -1.339769513E+02  1.850685126E+02  2.829567782E+02  1.250000000E+02  0.00000E+00  9.000E+00
      25     1     1     2     0     0 -1.468753691E+02  1.239032394E+02 -3.747307264E+01  2.322791811E+02  1.250000000E+02  0.00000E+00  9.000E+00
      21     1     1     2   512   501  3.624372589E+01  1.007371185E+01 -1.247502670E+02  1.302985666E+02  1.907348633E-06  0.00000E+00  9.000E+00
#rwgt            1           1   4.0177138525937239E-002           4      435062           0
</event>
<event>
      5   9999  3.79277E-02  8.09656E+00 -1.00000E+00  2.06992E-01
      21    -1     0     0   502   501  0.000000000E+00  0.000000000E+00  5.001717602E+02  5.001717602E+02  0.000000000E+00  0.00000E+00  9.000E+00
      21    -1     0     0   501   511  0.000000000E+00  0.000000000E+00 -1.373699355E+02  1.373699355E+02  0.000000000E+00  0.00000E+00  9.000E+00
      25     1     1     2     0     0 -1.653108493E+02 -1.286533578E+02  1.041718053E+02  2.652472967E+02  1.250000000E+02  0.00000E+00  9.000E+00
      25     1     1     2     0     0  1.673598909E+02  1.208203735E+02  2.675159097E+02  3.602730321E+02  1.250000000E+02  0.00000E+00  9.000E+00
      21     1     1     2   502   511 -2.049041626E+00  7.832984316E+00 -8.885890356E+00  1.202136691E+01  2.384185791E-07  0.00000E+00  9.000E+00
#rwgt            1           1   4.5761375299892992E-002           4      435459           0
</event>
<event>
      5   9999  3.79277E-02  2.70991E+01 -1.00000E+00  1.56172E-01
      21    -1     0     0   502   512  0.000000000E+00  0.000000000E+00  6.024700126E+01  6.024700126E+01  0.000000000E+00  0.00000E+00  9.000E+00
      21    -1     0     0   501   502  0.000000000E+00  0.000000000E+00 -1.052594744E+03  1.052594744E+03  0.000000000E+00  0.00000E+00  9.000E+00
      25     1     1     2     0     0 -3.602484514E+01  9.825188029E+01 -4.829982137E+02  5.097680805E+02  1.250000000E+02  0.00000E+00  9.000E+00
      25     1     1     2     0     0  3.361869453E+01 -1.252439013E+02 -5.357648237E+02  5.652302166E+02  1.250000000E+02  0.00000E+00  9.000E+00
      21     1     1     2   501   512  2.406150603E+00  2.699202097E+01  2.641529484E+01  3.784344802E+01  5.840038640E-07  0.00000E+00  9.000E+00
#rwgt            1           1   5.2301354884059216E-002           4      435731           0
</event>
<event>
      5   9999  3.79277E-02  2.95472E+01 -1.00000E+00  1.53500E-01
      21    -1     0     0   502   501  0.000000000E+00  0.000000000E+00  3.373980653E+02  3.373980653E+02  0.000000000E+00  0.00000E+00  9.000E+00
      21    -1     0     0   501   511  0.000000000E+00  0.000000000E+00 -8.508515521E+02  8.508515521E+02  0.000000000E+00  0.00000E+00  9.000E+00
      25     1     1     2     0     0 -9.226487836E+01  5.977866633E+01  9.998588415E+01  1.941866982E+02  1.250000000E+02  0.00000E+00  9.000E+00
      25     1     1     2     0     0  6.899407729E+01 -7.798607606E+01  1.552080292E+02  2.248478221E+02  1.250000000E+02  0.00000E+00  9.000E+00
      21     1     1     2   502   511  2.327080107E+01  1.820740974E+01 -7.686474001E+02  7.692150971E+02  0.000000000E+00  0.00000E+00  9.000E+00
#rwgt            1           1   3.5736404059157657E-002           4      435859           0
</event>
<event>
      5   9999  3.79277E-02  5.80694E+00 -1.00000E+00  2.27700E-01
      21    -1     0     0   502   512  0.000000000E+00  0.000000000E+00  1.322165456E+03  1.322165456E+03  0.000000000E+00  0.00000E+00  9.000E+00
      21    -1     0     0   501   502  0.000000000E+00  0.000000000E+00 -3.539252617E+01  3.539252617E+01  0.000000000E+00  0.00000E+00  9.000E+00
      25     1     1     2     0     0  5.285641088E+01  1.337602873E+02  3.421654025E+02  3.916475166E+02  1.250000000E+02  0.00000E+00  9.000E+00
      25     1     1     2     0     0 -4.709117361E+01 -1.330655698E+02  8.295671625E+02  8.507236341E+02  1.250000000E+02  0.00000E+00  9.000E+00
      21     1     1     2   501   512 -5.765237261E+00 -6.947174685E-01  1.150403653E+02  1.151868319E+02  1.907348633E-06  0.00000E+00  9.000E+00
#rwgt            2          11   1.3907958345647899E-003           4      436029           0
</event>
<event>
      5   9999  3.79277E-02  7.21279E+01 -1.00000E+00  1.30565E-01
      21    -1     0     0   502   511  0.000000000E+00  0.000000000E+00  1.905622888E+02  1.905622888E+02  0.000000000E+00  0.00000E+00  9.000E+00
      21    -1     0     0   501   502  0.000000000E+00  0.000000000E+00 -3.179482503E+02  3.179482503E+02  0.000000000E+00  0.00000E+00  9.000E+00
      25     1     1     2     0     0  2.664470784E+01  1.163122568E+02 -1.195641765E+02  2.101406049E+02  1.250000000E+02  0.00000E+00  9.000E+00
      25     1     1     2     0     0 -1.613352877E+01 -1.876701056E+02 -3.071239909E+00  2.260858063E+02  1.250000000E+02  0.00000E+00  9.000E+00
      21     1     1     2   501   511 -1.051117907E+01  7.135784879E+01 -4.750545149E+00  7.228412791E+01  1.222985061E-06  0.00000E+00  9.000E+00
#rwgt            1           1   1.6335529810347194E-002           4      436124           0
</event>
<event>
      5   9999  3.79277E-02  1.02788E+02 -1.00000E+00  1.23293E-01
      21    -1     0     0   502   501  0.000000000E+00  0.000000000E+00  3.688647698E+01  3.688647698E+01  0.000000000E+00  0.00000E+00  9.000E+00
       2    -1     0     0   501     0  0.000000000E+00  0.000000000E+00 -1.827900413E+03  1.827900413E+03  0.000000000E+00  0.00000E+00  9.000E+00
      25     1     1     2     0     0  1.020677330E+00 -6.232186254E+01 -1.660360162E+02  2.169746875E+02  1.250000000E+02  0.00000E+00  9.000E+00
      25     1     1     2     0     0  9.954931893E+01  4.108527957E+01 -1.154999020E+03  1.166724390E+03  1.250000000E+02  0.00000E+00  9.000E+00
       2     1     1     2   502     0 -1.005699963E+02  2.123658297E+01 -4.699788994E+02  4.810878116E+02  5.394796609E-06  0.00000E+00  9.000E+00
#rwgt            1           1   4.6792754952341808E-002           4      436209           0
</event>
<event>
      5   9999  3.79277E-02  4.70624E+01 -1.00000E+00  1.40593E-01
      21    -1     0     0   502   501  0.000000000E+00  0.000000000E+00  6.707737118E+02  6.707737118E+02  0.000000000E+00  0.00000E+00  9.000E+00
      21    -1     0     0   511   502  0.000000000E+00  0.000000000E+00 -5.626344711E+02  5.626344711E+02  0.000000000E+00  0.00000E+00  9.000E+00
      25     1     1     2     0     0 -6.314317609E+00  4.101572715E+01  1.305736065E+01  1.323542789E+02  1.250000000E+02  0.00000E+00  9.000E+00
      25     1     1     2     0     0 -3.726046277E+01 -5.879512638E+01  5.883750819E+02  6.055208056E+02  1.250000000E+02  0.00000E+00  9.000E+00
      21     1     1     2   511   501  4.357478038E+01  1.777939923E+01 -4.932932019E+02  4.955330984E+02  9.344061824E-06  0.00000E+00  9.000E+00
#rwgt            1           1   5.5944962054936480E-002           4      436313           0
</event>
<event>
      5   9999  3.79277E-02  1.92923E+01 -1.00000E+00  1.67670E-01
      21    -1     0     0   502   501  0.000000000E+00  0.000000000E+00  9.251194607E+01  9.251194607E+01  0.000000000E+00  0.00000E+00  9.000E+00
      21    -1     0     0   501   512  0.000000000E+00  0.000000000E+00 -4.330394806E+02  4.330394806E+02  0.000000000E+00  0.00000E+00  9.000E+00
      25     1     1     2     0     0 -1.495807227E+01 -6.982247217E+01 -3.034377209E+02  3.358546888E+02  1.250000000E+02  0.00000E+00  9.000E+00
      25     1     1     2     0     0  6.072928910E+00  8.694691713E+01 -5.260651581E+00  1.524772813E+02  1.250000000E+02  0.00000E+00  9.000E+00
      21     1     1     2   502   512  8.885143363E+00 -1.712444496E+01 -3.182916206E+01  3.721945654E+01  6.743495762E-07  0.00000E+00  9.000E+00
#rwgt            1           1   2.7889679108892909E-002           4      436411           0
</event>
<event>
      5   9999  3.79277E-02  1.12229E+01 -1.00000E+00  1.90138E-01
      21    -1     0     0   502   501  0.000000000E+00  0.000000000E+00  3.018635197E+03  3.018635197E+03  0.000000000E+00  0.00000E+00  9.000E+00
      21    -1     0     0   511   502  0.000000000E+00  0.000000000E+00 -5.251805984E+02  5.251805984E+02  0.000000000E+00  0.00000E+00  9.000E+00
      25     1     1     2     0     0 -1.033530506E+02 -5.516717914E+01  5.539523159E+02  5.798391493E+02  1.250000000E+02  0.00000E+00  9.000E+00
      25     1     1     2     0     0  1.126199321E+02  6.149792927E+01  2.448405323E+03  2.454949871E+03  1.250000000E+02  0.00000E+00  9.000E+00
      21     1     1     2   511   501 -9.266881442E+00 -6.330750132E+00 -5.089030401E+02  5.090267751E+02  9.344061824E-06  0.00000E+00  9.000E+00
#rwgt            1           1   3.1234755822757164E-002           4      436598           0
</event>
<event>
      5   9999  3.79277E-02  1.21075E+02 -1.00000E+00  1.20204E-01
      21    -1     0     0   502   501  0.000000000E+00  0.000000000E+00  6.463975133E+02  6.463975133E+02  0.000000000E+00  0.00000E+00  9.000E+00
      21    -1     0     0   501   512  0.000000000E+00  0.000000000E+00 -2.932112471E+02  2.932112471E+02  0.000000000E+00  0.00000E+00  9.000E+00
      25     1     1     2     0     0 -6.811599614E+01  1.886468776E+02  4.059114205E+02  4.696983230E+02  1.250000000E+02  0.00000E+00  9.000E+00
      25     1     1     2     0     0  1.612086507E+02 -2.660610429E+02 -8.242215247E+01  3.452464610E+02  1.250000000E+02  0.00000E+00  9.000E+00
      21     1     1     2   502   512 -9.309265455E+01  7.741416532E+01  2.969699820E+01  1.246639765E+02  2.236564522E-06  0.00000E+00  9.000E+00
#rwgt            1           1   4.9758179818160983E-002           4      436959           0
</event>
<event>
      5   9999  3.79277E-02  2.02584E+01 -1.00000E+00  1.65910E-01
      21    -1     0     0   502   511  0.000000000E+00  0.000000000E+00  9.566573805E+01  9.566573805E+01  0.000000000E+00  0.00000E+00  9.000E+00
      21    -1     0     0   501   502  0.000000000E+00  0.000000000E+00 -5.811003617E+02  5.811003617E+02  0.000000000E+00  0.00000E+00  9.000E+00
      25     1     1     2     0     0  1.212481653E+02 -1.535782855E+01 -1.193885081E+02  2.116969446E+02  1.250000000E+02  0.00000E+00  9.000E+00
      25     1     1     2     0     0 -1.018424613E+02  9.542194276E+00 -3.967028404E+02  4.283235739E+02  1.250000000E+02  0.00000E+00  9.000E+00
      21     1     1     2   501   511 -1.940570400E+01  5.815634272E+00  3.065672496E+01  3.674558117E+01  3.371747881E-07  0.00000E+00  9.000E+00
#rwgt            1           1   3.8915969218489700E-002           4      437077           0
</event>
<event>
      5   9999  3.79277E-02  6.90711E+00 -1.00000E+00  2.16377E-01
      21    -1     0     0   502   501  0.000000000E+00  0.000000000E+00  5.558531011E+01  5.558531011E+01  0.000000000E+00  0.00000E+00  9.000E+00
      21    -1     0     0   512   502  0.000000000E+00  0.000000000E+00 -6.143749076E+02  6.143749076E+02  0.000000000E+00  0.00000E+00  9.000E+00
      25     1     1     2     0     0  1.017420230E+02 -3.849756104E+01 -1.431745953E+02  2.189919318E+02  1.250000000E+02  0.00000E+00  9.000E+00
      25     1     1     2     0     0 -1.070174616E+02  3.403910107E+01 -4.018198884E+02  4.355406069E+02  1.250000000E+02  0.00000E+00  9.000E+00
      21     1     1     2   512   501  5.275438623E+00  4.458459976E+00 -1.379511373E+01  1.542767905E+01  2.384185791E-07  0.00000E+00  9.000E+00
#rwgt            1           1   4.1380979378087275E-002           4      437272           0
</event>
<event>
      5   9999  3.79277E-02  8.73651E+01 -1.00000E+00  1.26525E-01
      21    -1     0     0   502   501  0.000000000E+00  0.000000000E+00  2.796386600E+02  2.796386600E+02  0.000000000E+00  0.00000E+00  9.000E+00
      21    -1     0     0   511   502  0.000000000E+00  0.000000000E+00 -2.270285279E+02  2.270285279E+02  0.000000000E+00  0.00000E+00  9.000E+00
      25     1     1     2     0     0 -1.898326101E+02 -1.169191434E+01  9.415735952E+01  2.463000793E+02  1.250000000E+02  0.00000E+00  9.000E+00
      25     1     1     2     0     0  1.042388794E+02  2.919552517E+01 -4.355039068E+00  1.654148997E+02  1.250000000E+02  0.00000E+00  9.000E+00
      21     1     1     2   511   501  8.559373064E+01 -1.750361083E+01 -3.719218832E+01  9.495220897E+01  2.477718555E-06  0.00000E+00  9.000E+00
#rwgt            1           1   9.6239766528896140E-002           4      437540           0
</event>
<event>
      5   9999  3.79277E-02  4.48305E+01 -1.00000E+00  1.41835E-01
      21    -1     0     0   502   501  0.000000000E+00  0.000000000E+00  2.116180852E+02  2.116180852E+02  0.000000000E+00  0.00000E+00  9.000E+00
      21    -1     0     0   512   502  0.000000000E+00  0.000000000E+00 -1.102029050E+03  1.102029050E+03  0.000000000E+00  0.00000E+00  9.000E+00
      25     1     1     2     0     0  1.445848341E+02  1.990627813E+02 -1.221761037E+02  3.017992139E+02  1.250000000E+02  0.00000E+00  9.000E+00
      25     1     1     2     0     0 -1.873700347E+02 -1.856762954E+02 -5.479738028E+01  2.970033156E+02  1.250000000E+02  0.00000E+00  9.000E+00
      21     1     1     2   512   501  4.278520057E+01 -1.338648594E+01 -7.134374809E+02  7.148446059E+02  1.078959322E-05  0.00000E+00  9.000E+00
#rwgt            1           1   3.9907371090100771E-002           4      437676           0
</event>
<event>
      5   9999  3.79277E-02  9.10723E+01 -1.00000E+00  1.25683E-01
      21    -1     0     0   502   501  0.000000000E+00  0.000000000E+00  4.856857248E+01  4.856857248E+01  0.000000000E+00  0.00000E+00  9.000E+00
      21    -1     0     0   511   502  0.000000000E+00  0.000000000E+00 -2.755297583E+03  2.755297583E+03  0.000000000E+00  0.00000E+00  9.000E+00
      25     1     1     2     0     0  6.103553564E+01  1.784000167E+01 -6.670145298E+02  6.815988448E+02  1.250000000E+02  0.00000E+00  9.000E+00
      25     1     1     2     0     0 -1.101504464E+01 -9.394598730E+01 -1.126071275E+02  1.930091835E+02  1.250000000E+02  0.00000E+00  9.000E+00
      21     1     1     2   511   501 -5.002049099E+01  7.610598563E+01 -1.927107353E+03  1.929258127E+03  3.051757812E-05  0.00000E+00  9.000E+00
#rwgt            1           1   5.4178838570550496E-002           4      437861           0
</event>
<event>
      5   9999  3.79277E-02  1.41883E+02 -1.00000E+00  1.17359E-01
      21    -1     0     0   512   501  0.000000000E+00  0.000000000E+00  4.780627801E+02  4.780627801E+02  0.000000000E+00  0.00000E+00  9.000E+00
      21    -1     0     0   501   502  0.000000000E+00  0.000000000E+00 -8.483603517E+02  8.483603517E+02  0.000000000E+00  0.00000E+00  9.000E+00
      25     1     1     2     0     0  1.966535046E+02  3.210047430E+02 -5.058760903E+02  6.428469994E+02  1.250000000E+02  0.00000E+00  9.000E+00
      25     1     1     2     0     0 -3.060458436E+02 -4.113597552E+02  1.161770043E+02  5.403730220E+02  1.250000000E+02  0.00000E+00  9.000E+00
      21     1     1     2   512   502  1.093923390E+02  9.035501215E+01  1.940151436E+01  1.432031104E+02  2.372234910E-06  0.00000E+00  9.000E+00
#rwgt            1           1   4.6848723867416654E-002           4      437963           0
</event>
<event>
      5   9999  3.79277E-02  8.55578E+00 -1.00000E+00  2.03928E-01
      21    -1     0     0   502   501  0.000000000E+00  0.000000000E+00  6.548453212E+02  6.548453212E+02  0.000000000E+00  0.00000E+00  9.000E+00
      21    -1     0     0   511   502  0.000000000E+00  0.000000000E+00 -5.846378943E+01  5.846378943E+01  0.000000000E+00  0.00000E+00  9.000E+00
      25     1     1     2     0     0  7.131697796E+01 -8.407554827E+01  2.295788157E+02  2.837009724E+02  1.250000000E+02  0.00000E+00  9.000E+00
      25     1     1     2     0     0 -6.282637046E+01  8.302149372E+01  3.802965509E+02  4.136304968E+02  1.250000000E+02  0.00000E+00  9.000E+00
      21     1     1     2   511   501 -8.490607506E+00  1.054054556E+00 -1.349383480E+01  1.597764139E+01  5.331201500E-07  0.00000E+00  9.000E+00
#rwgt            1           1   4.3006901522010539E-002           4      438061           0
</event>
<event>
      5   9999  3.79277E-02  4.07266E+01 -1.00000E+00  1.44357E-01
      21    -1     0     0   502   501  0.000000000E+00  0.000000000E+00  1.007036415E+02  1.007036415E+02  0.000000000E+00  0.00000E+00  9.000E+00
      21    -1     0     0   512   502  0.000000000E+00  0.000000000E+00 -1.409387795E+03  1.409387795E+03  0.000000000E+00  0.00000E+00  9.000E+00
      25     1     1     2     0     0 -1.329514087E+02  3.892321062E-01 -7.092968219E+01  1.957862313E+02  1.250000000E+02  0.00000E+00  9.000E+00
      25     1     1     2     0     0  1.554190469E+02  3.357929897E+01 -2.322388736E+02  3.079651667E+02  1.250000000E+02  0.00000E+00  9.000E+00
      21     1     1     2   512   501 -2.246763826E+01 -3.396853108E+01 -1.005515598E+03  1.006340038E+03  1.525878906E-05  0.00000E+00  9.000E+00
#rwgt            1           1   2.5313993577564885E-002           4      438263           0
</event>
<event>
      5   9999  3.79277E-02  9.76856E+01 -1.00000E+00  1.24287E-01
      21    -1     0     0   502   501  0.000000000E+00  0.000000000E+00  9.622950403E+01  9.622950403E+01  0.000000000E+00  0.00000E+00  9.000E+00
      21    -1     0     0   501   511  0.000000000E+00  0.000000000E+00 -6.128095321E+02  6.128095321E+02  0.000000000E+00  0.00000E+00  9.000E+00
      25     1     1     2     0     0 -1.325095428E+02  6.266258617E+01 -9.550174750E+01  2.150138656E+02  1.250000000E+02  0.00000E+00  9.000E+00
      25     1     1     2     0     0  3.944126453E+01 -9.234034664E+01 -2.491040729E+02  2.962434676E+02  1.250000000E+02  0.00000E+00  9.000E+00
      21     1     1     2   502   511  9.306827829E+01  2.967776047E+01 -1.719742077E+02  1.977817029E+02  3.303624740E-06  0.00000E+00  9.000E+00
#rwgt            2          11   1.9520711340450696E-003           4      438604           0
</event>
<event>
      5   9999  3.79277E-02  2.65930E+01 -1.00000E+00  1.56767E-01
      21    -1     0     0   502   501  0.000000000E+00  0.000000000E+00  1.598065589E+02  1.598065589E+02  0.000000000E+00  0.00000E+00  9.000E+00
      21    -1     0     0   501   512  0.000000000E+00  0.000000000E+00 -8.089075830E+02  8.089075830E+02  0.000000000E+00  0.00000E+00  9.000E+00
      25     1     1     2     0     0  8.707016654E+01 -1.200004234E+01 -1.213353239E+02  1.951216947E+02  1.250000000E+02  0.00000E+00  9.000E+00
      25     1     1     2     0     0 -9.484679667E+01  3.743059272E+01  6.956239772E+01  1.756726822E+02  1.250000000E+02  0.00000E+00  9.000E+00
      21     1     1     2   502   512  7.776630135E+00 -2.543055038E+01 -5.973280978E+02  5.979197650E+02  0.000000000E+00  0.00000E+00  9.000E+00
#rwgt            2          11   1.7009068969420082E-003           4      438624           0
</event>
<event>
      5   9999  3.79277E-02  3.43220E+01 -1.00000E+00  1.49088E-01
      -2    -1     0     0     0   501  0.000000000E+00  0.000000000E+00  8.408632612E+02  8.408632612E+02  0.000000000E+00  0.00000E+00  9.000E+00
      21    -1     0     0   501   502  0.000000000E+00  0.000000000E+00 -7.000804010E+01  7.000804010E+01  0.000000000E+00  0.00000E+00  9.000E+00
      25     1     1     2     0     0  5.498606108E+01 -1.563180874E+02  1.656113820E+02  2.655389636E+02  1.250000000E+02  0.00000E+00  9.000E+00
      25     1     1     2     0     0 -6.826067467E+01  1.246670955E+02  4.996180272E+02  5.342701353E+02  1.250000000E+02  0.00000E+00  9.000E+00
      -2     1     1     2     0   502  1.327461359E+01  3.165099185E+01  1.056258119E+02  1.110622024E+02  1.907348633E-06  0.00000E+00  9.000E+00
#rwgt            1           1   4.7409507308560597E-002           4      438794           0
</event>
<event>
      5   9999  3.79277E-02  1.34934E+02 -1.00000E+00  1.18245E-01
       3    -1     0     0   502     0  0.000000000E+00  0.000000000E+00  3.092667576E+02  3.092667576E+02  0.000000000E+00  0.00000E+00  9.000E+00
      21    -1     0     0   501   502  0.000000000E+00  0.000000000E+00 -2.128875095E+03  2.128875095E+03  0.000000000E+00  0.00000E+00  9.000E+00
      25     1     1     2     0     0  1.650216565E+01 -1.429584487E+02 -1.934733678E+03  1.944101037E+03  1.250000000E+02  0.00000E+00  9.000E+00
      25     1     1     2     0     0 -2.370290360E+01  8.217127826E+00 -1.498140042E+02  1.967195585E+02  1.250000000E+02  0.00000E+00  9.000E+00
       3     1     1     2   501     0  7.200737955E+00  1.347413208E+02  2.649393439E+02  2.973212574E+02  1.009274029E-05  0.00000E+00  9.000E+00
#rwgt            1           1  0.12733745978041724                4      438937           0
</event>
<event>
      5   9999  3.79277E-02  3.58373E+01 -1.00000E+00  1.47863E-01
      21    -1     0     0   502   501  0.000000000E+00  0.000000000E+00  1.391872419E+03  1.391872419E+03  0.000000000E+00  0.00000E+00  9.000E+00
      21    -1     0     0   501   511  0.000000000E+00  0.000000000E+00 -5.613796988E+01  5.613796988E+01  0.000000000E+00  0.00000E+00  9.000E+00
      25     1     1     2     0     0 -9.497862394E+01 -9.732913372E+01  1.673711687E+02  2.492629282E+02  1.250000000E+02  0.00000E+00  9.000E+00
      25     1     1     2     0     0  1.304610726E+02  1.023596150E+02  1.116869280E+03  1.136010375E+03  1.250000000E+02  0.00000E+00  9.000E+00
      21     1     1     2   502   511 -3.548244867E+01 -5.030481273E+00  5.149400045E+01  6.273708623E+01  0.000000000E+00  0.00000E+00  9.000E+00
#rwgt            1           1   4.4727331471999969E-002           4      439034           0
</event>
<event>
      5   9999  3.79277E-02  1.13800E+01 -1.00000E+00  1.89484E-01
      21    -1     0     0   502   501  0.000000000E+00  0.000000000E+00  1.151777459E+03  1.151777459E+03  0.000000000E+00  0.00000E+00  9.000E+00
      21    -1     0     0   512   502  0.000000000E+00  0.000000000E+00 -4.720182447E+02  4.720182447E+02  0.000000000E+00  0.00000E+00  9.000E+00
      25     1     1     2     0     0  2.347451043E+01 -2.619810151E+02  3.040030142E+02  4.209844862E+02  1.250000000E+02  0.00000E+00  9.000E+00
      25     1     1     2     0     0 -3.401777883E+01  2.576981287E+02  7.628472857E+02  8.155528898E+02  1.250000000E+02  0.00000E+00  9.000E+00
      21     1     1     2   512   501  1.054326840E+01  4.282886483E+00 -3.870910857E+02  3.872583276E+02  9.344061824E-06  0.00000E+00  9.000E+00
#rwgt            1           1   1.8677770676875805E-002           4      439229           0
</event>
<event>
      5   9999  3.79277E-02  3.27832E+01 -1.00000E+00  1.50411E-01
      21    -1     0     0   511   501  0.000000000E+00  0.000000000E+00  5.331832964E+02  5.331832964E+02  0.000000000E+00  0.00000E+00  9.000E+00
      21    -1     0     0   501   502  0.000000000E+00  0.000000000E+00 -3.144783031E+02  3.144783031E+02  0.000000000E+00  0.00000E+00  9.000E+00
      25     1     1     2     0     0  9.785530240E+01 -2.154213239E+02 -1.942549793E+02  3.306690248E+02  1.250000000E+02  0.00000E+00  9.000E+00
      25     1     1     2     0     0 -7.068802437E+01  2.337701226E+02  3.905431473E+02  4.772779242E+02  1.250000000E+02  0.00000E+00  9.000E+00
      21     1     1     2   511   502 -2.716727804E+01 -1.834879877E+01  2.241682529E+01  3.971465055E+01  4.129530925E-07  0.00000E+00  9.000E+00
#rwgt            1           1   5.4204733803757163E-002           4      439524           0
</event>
<event>
      5   9999  3.79277E-02  5.24734E+01 -1.00000E+00  1.37890E-01
      21    -1     0     0   502   501  0.000000000E+00  0.000000000E+00  6.623418202E+02  6.623418202E+02  0.000000000E+00  0.00000E+00  9.000E+00
       3    -1     0     0   501     0  0.000000000E+00  0.000000000E+00 -1.735940351E+02  1.735940351E+02  0.000000000E+00  0.00000E+00  9.000E+00
      25     1     1     2     0     0 -8.309651289E+01  1.334342930E+02  3.117515415E+02  3.708419672E+02  1.250000000E+02  0.00000E+00  9.000E+00
      25     1     1     2     0     0  1.355665677E+02 -1.328443212E+02  2.732839235E+02  3.554363667E+02  1.250000000E+02  0.00000E+00  9.000E+00
       3     1     1     2   502     0 -5.247005479E+01 -5.899718779E-01 -9.628767981E+01  1.096575214E+02  2.697398305E-06  0.00000E+00  9.000E+00
#rwgt            1           1   3.2733799741895719E-002           4      439684           0
</event>
<event>
      5   9999  3.79277E-02  1.71348E+02 -1.00000E+00  1.14148E-01
      21    -1     0     0   502   501  0.000000000E+00  0.000000000E+00  1.623701384E+02  1.623701384E+02  0.000000000E+00  0.00000E+00  9.000E+00
       1    -1     0     0   501     0  0.000000000E+00  0.000000000E+00 -1.291353109E+03  1.291353109E+03  0.000000000E+00  0.00000E+00  9.000E+00
      25     1     1     2     0     0 -1.948724577E+02 -6.654807237E+01  2.798328047E+01  2.425118238E+02  1.250000000E+02  0.00000E+00  9.000E+00
      25     1     1     2     0     0  2.907943859E+01  2.327231678E+01 -1.982840089E+02  2.373368127E+02  1.250000000E+02  0.00000E+00  9.000E+00
       1     1     1     2   502     0  1.657930191E+02  4.327575559E+01 -9.586822421E+02  9.738746108E+02  0.000000000E+00  0.00000E+00  9.000E+00
#rwgt            1           1   4.6543546798302110E-002           4      439784           0
</event>
<event>
      5   9999  3.79277E-02  7.54960E+00 -1.00000E+00  2.11016E-01
      21    -1     0     0   511   501  0.000000000E+00  0.000000000E+00  2.016052729E+02  2.016052729E+02  0.000000000E+00  0.00000E+00  9.000E+00
      21    -1     0     0   501   502  0.000000000E+00  0.000000000E+00 -2.879314801E+02  2.879314801E+02  0.000000000E+00  0.00000E+00  9.000E+00
      25     1     1     2     0     0 -1.569375922E+01  1.953922609E+02 -8.497779961E+01  2.475291016E+02  1.250000000E+02  0.00000E+00  9.000E+00
      25     1     1     2     0     0  2.307520589E+01 -1.969767692E+02 -1.905779548E+00  2.344375071E+02  1.250000000E+02  0.00000E+00  9.000E+00
      21     1     1     2   511   502 -7.381446667E+00  1.584508301E+00  5.573718847E-01  7.570144310E+00  1.429269172E-07  0.00000E+00  9.000E+00
#rwgt            1           1   3.1915133007698021E-002           4      439896           0
</event>
<event>
      5   9999  3.79277E-02  2.03734E+01 -1.00000E+00  1.65709E-01
      21    -1     0     0   502   512  0.000000000E+00  0.000000000E+00  9.654132909E+02  9.654132909E+02  0.000000000E+00  0.00000E+00  9.000E+00
      21    -1     0     0   501   502  0.000000000E+00  0.000000000E+00 -2.086073813E+02  2.086073813E+02  0.000000000E+00  0.00000E+00  9.000E+00
      25     1     1     2     0     0  3.366414106E+02 -9.681695585E+01  3.592226321E+02  5.170752959E+02  1.250000000E+02  0.00000E+00  9.000E+00
      25     1     1     2     0     0 -3.234161410E+02  8.131966082E+01  1.158975914E+02  3.745238834E+02  1.250000000E+02  0.00000E+00  9.000E+00
      21     1     1     2   501   512 -1.322526953E+01  1.549729503E+01  2.816856860E+02  2.824214929E+02  3.814697266E-06  0.00000E+00  9.000E+00
#rwgt            1           1   3.2381977916934597E-002           4      440283           0
</event>
<event>
      5   9999  3.79277E-02  7.30888E+01 -1.00000E+00  1.30278E-01
      21    -1     0     0   502   511  0.000000000E+00  0.000000000E+00  5.622020536E+01  5.622020536E+01  0.000000000E+00  0.00000E+00  9.000E+00
      21    -1     0     0   501   502  0.000000000E+00  0.000000000E+00 -1.030585387E+03  1.030585387E+03  0.000000000E+00  0.00000E+00  9.000E+00
      25     1     1     2     0     0 -5.356436548E+01  9.310493109E+01 -2.402972056E+02  2.913853401E+02  1.250000000E+02  0.00000E+00  9.000E+00
      25     1     1     2     0     0  9.070911635E+01 -1.560512908E+02 -6.379210192E+02  6.746468527E+02  1.250000000E+02  0.00000E+00  9.000E+00
      21     1     1     2   501   511 -3.714475086E+01  6.294635974E+01 -9.614695709E+01  1.207733997E+02  2.336015456E-06  0.00000E+00  9.000E+00
#rwgt            1           1   4.1258337889489315E-002           4      440553           0
</event>
<event>
      5   9999  3.79277E-02  1.45597E+02 -1.00000E+00  1.16909E-01
      21    -1     0     0   502   501  0.000000000E+00  0.000000000E+00  3.998469906E+02  3.998469906E+02  0.000000000E+00  0.00000E+00  9.000E+00
       2    -1     0     0   501     0  0.000000000E+00  0.000000000E+00 -2.823057052E+03  2.823057052E+03  0.000000000E+00  0.00000E+00  9.000E+00
      25     1     1     2     0     0 -2.979212061E+01 -1.156691724E+02  5.936121557E+01  1.827995673E+02  1.250000000E+02  0.00000E+00  9.000E+00
      25     1     1     2     0     0 -1.105689792E+02  7.697443450E+01  2.463234092E+02  3.073284638E+02  1.250000000E+02  0.00000E+00  9.000E+00
       2     1     1     2   502     0  1.403610998E+02  3.869473787E+01 -2.728894686E+03  2.732776012E+03  4.315837288E-05  0.00000E+00  9.000E+00
#rwgt            2          13   2.5786318848772687E-002           4      440791           0
</event>
<event>
      5   9999  3.79277E-02  8.41721E+01 -1.00000E+00  1.27290E-01
      21    -1     0     0   511   501  0.000000000E+00  0.000000000E+00  8.051486068E+02  8.051486068E+02  0.000000000E+00  0.00000E+00  9.000E+00
      21    -1     0     0   501   502  0.000000000E+00  0.000000000E+00 -6.452146178E+01  6.452146178E+01  0.000000000E+00  0.00000E+00  9.000E+00
      25     1     1     2     0     0  1.016686111E+02 -1.220893638E+01  2.025459768E+02  2.591050700E+02  1.250000000E+02  0.00000E+00  9.000E+00
      25     1     1     2     0     0 -1.482326558E+02 -5.791048163E+01  3.456776919E+02  4.005553779E+02  1.250000000E+02  0.00000E+00  9.000E+00
      21     1     1     2   511   502  4.656404466E+01  7.011941800E+01  1.924034764E+02  2.100096206E+02  2.697398305E-06  0.00000E+00  9.000E+00
#rwgt            1           1   3.7247182470705367E-002           4      440840           0
</event>
<event>
      5   9999  3.79277E-02  1.00956E+02 -1.00000E+00  1.23642E-01
      21    -1     0     0   502   501  0.000000000E+00  0.000000000E+00  6.950908585E+02  6.950908585E+02  0.000000000E+00  0.00000E+00  9.000E+00
      21    -1     0     0   501   512  0.000000000E+00  0.000000000E+00 -1.372097009E+02  1.372097009E+02  0.000000000E+00  0.00000E+00  9.000E+00
      25     1     1     2     0     0 -3.431315536E+00  2.088848135E+02  4.872333050E+02  5.446704809E+02  1.250000000E+02  0.00000E+00  9.000E+00
      25     1     1     2     0     0 -4.445890162E+00 -1.082363174E+02  8.447602805E+01  1.857311650E+02  1.250000000E+02  0.00000E+00  9.000E+00
      21     1     1     2   502   512  7.877205698E+00 -1.006484960E+02 -1.382817550E+01  1.018989134E+02  1.710975181E-06  0.00000E+00  9.000E+00
#rwgt            1           1   4.2416186557228064E-002           4      440900           0
</event>
<event>
      5   9999  3.79277E-02  1.67119E+01 -1.00000E+00  1.73073E-01
      21    -1     0     0   511   501  0.000000000E+00  0.000000000E+00  1.960350248E+02  1.960350248E+02  0.000000000E+00  0.00000E+00  9.000E+00
      21    -1     0     0   501   502  0.000000000E+00  0.000000000E+00 -2.587184004E+02  2.587184004E+02  0.000000000E+00  0.00000E+00  9.000E+00
      25     1     1     2     0     0  6.510099627E+01 -1.463207937E+02 -1.186998533E+02  2.352925191E+02  1.250000000E+02  0.00000E+00  9.000E+00
      25     1     1     2     0     0 -4.901234250E+01  1.417992759E+02  5.412705320E+01  2.026424987E+02  1.250000000E+02  0.00000E+00  9.000E+00
      21     1     1     2   511   502 -1.608865377E+01  4.521517786E+00  1.889424503E+00  1.681840742E+01  4.933162140E-07  0.00000E+00  9.000E+00
#rwgt            1           1   4.0918681903232015E-002           4      441053           0
</event>
<event>
      5   9999  3.79277E-02  1.22033E+01 -1.00000E+00  1.86264E-01
      21    -1     0     0   512   501  0.000000000E+00  0.000000000E+00  1.025262129E+02  1.025262129E+02  0.000000000E+00  0.00000E+00  9.000E+00
      21    -1     0     0   501   502  0.000000000E+00  0.000000000E+00 -4.796473830E+02  4.796473830E+02  0.000000000E+00  0.00000E+00  9.000E+00
      25     1     1     2     0     0 -5.531422885E+01 -1.706210267E+02 -2.187466897E+02  3.092673809E+02  1.250000000E+02  0.00000E+00  9.000E+00
      25     1     1     2     0     0  4.938269896E+01  1.599562092E+02 -1.552977055E+02  2.603209887E+02  1.250000000E+02  0.00000E+00  9.000E+00
      21     1     1     2   512   502  5.931529889E+00  1.066481746E+01 -3.076774918E+00  1.258522635E+01  7.300048300E-08  0.00000E+00  9.000E+00
#rwgt            1           1   3.1002630605837626E-002           4      441422           0
</event>
<event>
      5   9999  3.79277E-02  3.22550E+01 -1.00000E+00  1.50885E-01
      21    -1     0     0   502   501  0.000000000E+00  0.000000000E+00  7.100516997E+01  7.100516997E+01  0.000000000E+00  0.00000E+00  9.000E+00
       2    -1     0     0   501     0  0.000000000E+00  0.000000000E+00 -2.979618211E+03  2.979618211E+03  0.000000000E+00  0.00000E+00  9.000E+00
      25     1     1     2     0     0  2.190915827E+00  8.764575645E+01 -2.107279285E+02  2.602265140E+02  1.250000000E+02  0.00000E+00  9.000E+00
      25     1     1     2     0     0 -3.185399641E+01 -1.003139988E+02 -9.847693863E+01  1.907885816E+02  1.250000000E+02  0.00000E+00  9.000E+00
       2     1     1     2   502     0  2.966308058E+01  1.266824234E+01 -2.599408174E+03  2.599608285E+03  4.315837288E-05  0.00000E+00  9.000E+00
#rwgt            1           1   4.4245875071318296E-002           4      441628           0
</event>
<event>
      5   9999  3.79277E-02  9.31600E+00 -1.00000E+00  1.99383E-01
      21    -1     0     0   502   501  0.000000000E+00  0.000000000E+00  5.192149483E+02  5.192149483E+02  0.000000000E+00  0.00000E+00  9.000E+00
      21    -1     0     0   511   502  0.000000000E+00  0.000000000E+00 -5.334413509E+01  5.334413509E+01  0.000000000E+00  0.00000E+00  9.000E+00
      25     1     1     2     0     0  4.237643601E+01  5.491685799E+01  3.566295812E+02  3.842151505E+02  1.250000000E+02  0.00000E+00  9.000E+00
      25     1     1     2     0     0 -5.063957890E+01 -5.061473200E+01  1.038077907E+02  1.775592168E+02  1.250000000E+02  0.00000E+00  9.000E+00
      21     1     1     2   511   501  8.263142892E+00 -4.302125988E+00  5.433441204E+00  1.078471612E+01  1.685873940E-07  0.00000E+00  9.000E+00
#rwgt            1           1   3.7275137774494690E-002           4      441986           0
</event>
<event>
      5   9999  3.79277E-02  5.97049E+01 -1.00000E+00  1.34818E-01
      21    -1     0     0   502   501  0.000000000E+00  0.000000000E+00  2.136261924E+02  2.136261924E+02  0.000000000E+00  0.00000E+00  9.000E+00
      21    -1     0     0   501   512  0.000000000E+00  0.000000000E+00 -3.665744874E+02  3.665744874E+02  0.000000000E+00  0.00000E+00  9.000E+00
      25     1     1     2     0     0 -1.292867514E+02  1.634971730E+02  4.198488024E+01  2.466457375E+02  1.250000000E+02  0.00000E+00  9.000E+00
      25     1     1     2     0     0  7.031294358E+01 -1.541827022E+02 -1.443111110E+02  2.552781081E+02  1.250000000E+02  0.00000E+00  9.000E+00
      21     1     1     2   502   512  5.897380783E+01 -9.314470758E+00 -5.062206420E+01  7.827683412E+01  9.536743164E-07  0.00000E+00  9.000E+00
#rwgt            1           1   3.0326790799346495E-002           4      442233           0
</event>
<event>
      5   9999  3.79277E-02  6.17177E+01 -1.00000E+00  1.34052E-01
       2    -1     0     0   502     0  0.000000000E+00  0.000000000E+00  3.806432949E+02  3.806432949E+02  0.000000000E+00  0.00000E+00  9.000E+00
      21    -1     0     0   501   502  0.000000000E+00  0.000000000E+00 -5.820778334E+02  5.820778334E+02  0.000000000E+00  0.00000E+00  9.000E+00
      25     1     1     2     0     0  3.336216194E+01 -8.726443478E+00  1.947091973E+02  2.339355812E+02  1.250000000E+02  0.00000E+00  9.000E+00
      25     1     1     2     0     0  2.828792480E+01  5.838665860E+00 -5.490782858E+02  5.638672368E+02  1.250000000E+02  0.00000E+00  9.000E+00
       2     1     1     2   501     0 -6.165008675E+01  2.887777617E+00  1.529345501E+02  1.649183103E+02  1.907348633E-06  0.00000E+00  9.000E+00
#rwgt            1           1   4.9746666174755740E-002           4      442315           0
</event>
<event>
      5   9999  3.79277E-02  5.98417E+01 -1.00000E+00  1.34765E-01
      21    -1     0     0   502   501  0.000000000E+00  0.000000000E+00  1.943997366E+02  1.943997366E+02  0.000000000E+00  0.00000E+00  9.000E+00
       2    -1     0     0   501     0  0.000000000E+00  0.000000000E+00 -1.364386809E+03  1.364386809E+03  0.000000000E+00  0.00000E+00  9.000E+00
      25     1     1     2     0     0  9.558772486E+01  1.495496026E+02 -5.754281479E+01  2.245846662E+02  1.250000000E+02  0.00000E+00  9.000E+00
      25     1     1     2     0     0 -1.225771896E+02 -2.029593498E+02 -5.319357801E+01  2.732621852E+02  1.250000000E+02  0.00000E+00  9.000E+00
       2     1     1     2   502     0  2.698946476E+01  5.340974722E+01 -1.059250680E+03  1.060939694E+03  0.000000000E+00  0.00000E+00  9.000E+00
#rwgt            1           1   4.4504203689333825E-002           4      442508           0
</event>
<event>
      5   9999  3.79277E-02  5.65345E+01 -1.00000E+00  1.36099E-01
      21    -1     0     0   502   501  0.000000000E+00  0.000000000E+00  3.564635947E+02  3.564635947E+02  0.000000000E+00  0.00000E+00  9.000E+00
      -2    -1     0     0     0   502  0.000000000E+00  0.000000000E+00 -3.102406230E+02  3.102406230E+02  0.000000000E+00  0.00000E+00  9.000E+00
      25     1     1     2     0     0  5.484747663E+01 -8.711874036E+00 -5.177090668E+01  1.462510486E+02  1.250000000E+02  0.00000E+00  9.000E+00
      25     1     1     2     0     0  7.372505128E-01 -1.607311687E+00  2.923950031E+02  3.179983723E+02  1.250000000E+02  0.00000E+00  9.000E+00
      -2     1     1     2     0   501 -5.558472714E+01  1.031918572E+01 -1.944011247E+02  2.024547968E+02  3.814697266E-06  0.00000E+00  9.000E+00
#rwgt            2           9   4.2609807817435697E-005           4      442767           0
</event>
<event>
      5   9999  3.79277E-02  3.16518E+01 -1.00000E+00  1.51441E-01
      21    -1     0     0   502   501  0.000000000E+00  0.000000000E+00  1.890225164E+02  1.890225164E+02  0.000000000E+00  0.00000E+00  9.000E+00
      21    -1     0     0   501   511  0.000000000E+00  0.000000000E+00 -6.315293797E+02  6.315293797E+02  0.000000000E+00  0.00000E+00  9.000E+00
      25     1     1     2     0     0  1.299967670E+01  1.780009630E+02  6.342069497E+00  2.179875140E+02  1.250000000E+02  0.00000E+00  9.000E+00
      25     1     1     2     0     0  1.782088074E+01 -1.707948854E+02 -7.182602786E+01  2.242151979E+02  1.250000000E+02  0.00000E+00  9.000E+00
      21     1     1     2   502   511 -3.082055744E+01 -7.206077581E+00 -3.770229049E+02  3.783491842E+02  5.394796609E-06  0.00000E+00  9.000E+00
#rwgt            1           1   4.1949510435799864E-002           4      442816           0
</event>
<event>
      5   9999 -3.79277E-02  4.96140E+01 -1.00000E+00  1.39268E-01
      21    -1     0     0   502   512  0.000000000E+00  0.000000000E+00  7.491846903E+02  7.491846903E+02  0.000000000E+00  0.00000E+00  9.000E+00
      21    -1     0     0   501   502  0.000000000E+00  0.000000000E+00 -2.136459853E+02  2.136459853E+02  0.000000000E+00  0.00000E+00  9.000E+00
      25     1     1     2     0     0 -2.595659160E+02  6.074028141E+01  5.123376292E+02  5.909134394E+02  1.250000000E+02  0.00000E+00  9.000E+00
      25     1     1     2     0     0  2.635914758E+02 -1.101906725E+02 -1.036159236E+01  3.120173281E+02  1.250000000E+02  0.00000E+00  9.000E+00
      21     1     1     2   501   512 -4.025559785E+00  4.945039110E+01  3.356266812E+01  5.989990821E+01  8.259061849E-07  0.00000E+00  9.000E+00
#rwgt            1           1  -9.5157347915700949E-002           4      443106           0
</event>
<event>
      5   9999  3.79277E-02  4.34763E+01 -1.00000E+00  1.42631E-01
      21    -1     0     0   502   511  0.000000000E+00  0.000000000E+00  1.790329487E+02  1.790329487E+02  0.000000000E+00  0.00000E+00  9.000E+00
      21    -1     0     0   501   502  0.000000000E+00  0.000000000E+00 -2.029941009E+03  2.029941009E+03  0.000000000E+00  0.00000E+00  9.000E+00
      25     1     1     2     0     0 -6.333315547E+00 -7.018414971E+01 -3.442246028E+02  3.729363255E+02  1.250000000E+02  0.00000E+00  9.000E+00
      25     1     1     2     0     0  1.080905190E+01  1.134294794E+02 -1.664127593E+03  1.672701028E+03  1.250000000E+02  0.00000E+00  9.000E+00
      21     1     1     2   501   511 -4.475736354E+00 -4.324532966E+01  1.574441351E+02  1.633366047E+02  5.394796609E-06  0.00000E+00  9.000E+00
#rwgt            1           1  0.17674667398355065                4      443176           0
</event>
<event>
      5   9999  3.79277E-02  1.19760E+01 -1.00000E+00  1.87120E-01
      21    -1     0     0   502   501  0.000000000E+00  0.000000000E+00  4.401320224E+01  4.401320224E+01  0.000000000E+00  0.00000E+00  9.000E+00
      21    -1     0     0   501   512  0.000000000E+00  0.000000000E+00 -1.156621228E+03  1.156621228E+03  0.000000000E+00  0.00000E+00  9.000E+00
      25     1     1     2     0     0  1.064091180E+02 -5.046899439E+01 -1.863357545E+02  2.534088262E+02  1.250000000E+02  0.00000E+00  9.000E+00
      25     1     1     2     0     0 -1.171446438E+02  5.577674229E+01 -7.832861468E+02  8.037388260E+02  1.250000000E+02  0.00000E+00  9.000E+00
      21     1     1     2   502   512  1.073552576E+01 -5.307747897E+00 -1.429861243E+02  1.434867780E+02  1.907348633E-06  0.00000E+00  9.000E+00
#rwgt            2          11   6.4277220664931474E-004           4      443433           0
</event>
<event>
      5   9999  3.79277E-02  2.81811E+01 -1.00000E+00  1.54951E-01
      21    -1     0     0   502   511  0.000000000E+00  0.000000000E+00  3.038350941E+02  3.038350941E+02  0.000000000E+00  0.00000E+00  9.000E+00
      21    -1     0     0   501   502  0.000000000E+00  0.000000000E+00 -6.477455715E+02  6.477455715E+02  0.000000000E+00  0.00000E+00  9.000E+00
      25     1     1     2     0     0 -1.216440905E+02  1.341839529E+02 -4.473695280E+02  4.985650534E+02  1.250000000E+02  0.00000E+00  9.000E+00
      25     1     1     2     0     0  1.484621032E+02 -1.255255814E+02 -9.694402117E+01  2.506408006E+02  1.250000000E+02  0.00000E+00  9.000E+00
      21     1     1     2   501   511 -2.681801275E+01 -8.658371542E+00  2.004030718E+02  2.023748116E+02  0.000000000E+00  0.00000E+00  9.000E+00
#rwgt            1           1   2.5850671430079835E-002           4      443483           0
</event>
<event>
      5   9999  3.79277E-02  5.64863E+01 -1.00000E+00  1.36119E-01
      21    -1     0     0   502   501  0.000000000E+00  0.000000000E+00  5.380036814E+02  5.380036814E+02  0.000000000E+00  0.00000E+00  9.000E+00
      21    -1     0     0   512   502  0.000000000E+00  0.000000000E+00 -4.091148868E+02  4.091148868E+02  0.000000000E+00  0.00000E+00  9.000E+00
      25     1     1     2     0     0 -5.699317318E+01 -1.220253423E+02  2.251873738E+01  1.851229308E+02  1.250000000E+02  0.00000E+00  9.000E+00
      25     1     1     2     0     0  3.447270950E+00  1.040383010E+02  4.163040676E+02  4.469562937E+02  1.250000000E+02  0.00000E+00  9.000E+00
      21     1     1     2   512   501  5.354590223E+01  1.798704136E+01 -3.099340104E+02  3.150393437E+02  5.394796609E-06  0.00000E+00  9.000E+00
#rwgt            1           1   3.7444616777549442E-002           4      443633           0
</event>
<event>
      5   9999 -3.79277E-02  2.75439E+01 -1.00000E+00  1.55662E-01
      21    -1     0     0   502   511  0.000000000E+00  0.000000000E+00  3.379808355E+02  3.379808355E+02  0.000000000E+00  0.00000E+00  9.000E+00
      21    -1     0     0   501   502  0.000000000E+00  0.000000000E+00 -2.205744277E+02  2.205744277E+02  0.000000000E+00  0.00000E+00  9.000E+00
      25     1     1     2     0     0 -1.023124396E+02 -2.022309039E+02  1.158100566E+02  2.835527164E+02  1.250000000E+02  0.00000E+00  9.000E+00
      25     1     1     2     0     0  7.662098147E+01  1.923003455E+02 -1.595446468E+01  2.423422015E+02  1.250000000E+02  0.00000E+00  9.000E+00
      21     1     1     2   501   511  2.569145812E+01  9.930558467E+00  1.755081598E+01  3.266034527E+01  3.371747881E-07  0.00000E+00  9.000E+00
#rwgt            1           1  -4.7990409170706218E-002           4      443785           0
</event>
<event>
      5   9999  3.79277E-02  1.28060E+02 -1.00000E+00  1.19182E-01
      21    -1     0     0   512   501  0.000000000E+00  0.000000000E+00  1.923146714E+03  1.923146714E+03  0.000000000E+00  0.00000E+00  9.000E+00
      21    -1     0     0   501   502  0.000000000E+00  0.000000000E+00 -3.784092734E+01  3.784092734E+01  0.000000000E+00  0.00000E+00  9.000E+00
      25     1     1     2     0     0  4.675224838E+01 -9.545359653E+01  5.876498900E+02  6.101266713E+02  1.250000000E+02  0.00000E+00  9.000E+00
      25     1     1     2     0     0 -1.746440524E+02  1.020184245E+02  6.887841175E+02  7.286678698E+02  1.250000000E+02  0.00000E+00  9.000E+00
      21     1     1     2   512   502  1.278918040E+02 -6.564828019E+00  6.088717796E+02  6.221931007E+02  1.078959322E-05  0.00000E+00  9.000E+00
#rwgt            1           1   3.4093656158224517E-002           4      443990           0
</event>
<event>
      5   9999  3.79277E-02  1.58487E+01 -1.00000E+00  1.75161E-01
      21    -1     0     0   502   501  0.000000000E+00  0.000000000E+00  9.218069509E+01  9.218069509E+01  0.000000000E+00  0.00000E+00  9.000E+00
       2    -1     0     0   501     0  0.000000000E+00  0.000000000E+00 -1.978504073E+03  1.978504073E+03  0.000000000E+00  0.00000E+00  9.000E+00
      25     1     1     2     0     0 -1.443121012E+02  1.771148862E+02 -3.732491684E+02  4.551215301E+02  1.250000000E+02  0.00000E+00  9.000E+00
      25     1     1     2     0     0  1.463625758E+02 -1.928303846E+02 -3.113164222E+02  4.137009494E+02  1.250000000E+02  0.00000E+00  9.000E+00
       2     1     1     2   502     0 -2.050474596E+00  1.571549845E+01 -1.201757787E+03  1.201862289E+03  2.157918644E-05  0.00000E+00  9.000E+00
#rwgt            1           1   1.3589416350202528E-002           4      444079           0
</event>
<event>
      5   9999  3.79277E-02  2.18272E+01 -1.00000E+00  1.63296E-01
      21    -1     0     0   502   511  0.000000000E+00  0.000000000E+00  1.028264225E+02  1.028264225E+02  0.000000000E+00  0.00000E+00  9.000E+00
      21    -1     0     0   501   502  0.000000000E+00  0.000000000E+00 -7.146837089E+02  7.146837089E+02  0.000000000E+00  0.00000E+00  9.000E+00
      25     1     1     2     0     0 -1.793757796E+02  2.081730557E+01 -4.554129083E+02  5.056035478E+02  1.250000000E+02  0.00000E+00  9.000E+00
      25     1     1     2     0     0  2.012008695E+02 -2.111958100E+01 -1.639256360E+02  2.888328941E+02  1.250000000E+02  0.00000E+00  9.000E+00
      21     1     1     2   501   511 -2.182508996E+01  3.022754307E-01  7.481257875E+00  2.307368938E+01  2.528810911E-07  0.00000E+00  9.000E+00
#rwgt            1           1   3.6073375785119093E-002           4      444316           0
</event>
<event>
      5   9999  3.79277E-02  1.08413E+01 -1.00000E+00  1.91787E-01
      21    -1     0     0   502   501  0.000000000E+00  0.000000000E+00  2.840239822E+03  2.840239822E+03  0.000000000E+00  0.00000E+00  9.000E+00
      21    -1     0     0   501   512  0.000000000E+00  0.000000000E+00 -2.762660649E+01  2.762660649E+01  0.000000000E+00  0.00000E+00  9.000E+00
      25     1     1     2     0     0  1.753721827E+02  1.341163889E+02  1.573979425E+03  1.594295719E+03  1.250000000E+02  0.00000E+00  9.000E+00
      25     1     1     2     0     0 -1.862000933E+02 -1.335775102E+02  1.234772306E+03  1.262062230E+03  1.250000000E+02  0.00000E+00  9.000E+00
      21     1     1     2   502   512  1.082791070E+01 -5.388787596E-01  3.861484954E+00  1.150847976E+01  4.380028980E-07  0.00000E+00  9.000E+00
#rwgt            1           1   4.8911260301900475E-002           4      444480           0
</event>
<event>
      5   9999  3.79277E-02  2.56799E+01 -1.00000E+00  1.57883E-01
      21    -1     0     0   502   501  0.000000000E+00  0.000000000E+00  8.268854395E+02  8.268854395E+02  0.000000000E+00  0.00000E+00  9.000E+00
      21    -1     0     0   511   502  0.000000000E+00  0.000000000E+00 -9.230570700E+01  9.230570700E+01  0.000000000E+00  0.00000E+00  9.000E+00
      25     1     1     2     0     0 -1.082311260E+02  7.173036497E+01  5.533598293E+02  5.819719260E+02  1.250000000E+02  0.00000E+00  9.000E+00
      25     1     1     2     0     0  8.463657130E+01 -6.159359312E+01  2.300980447E+02  2.820057270E+02  1.250000000E+02  0.00000E+00  9.000E+00
      21     1     1     2   511   501  2.359455472E+01 -1.013677185E+01 -4.887814147E+01  5.521349354E+01  1.507891493E-06  0.00000E+00  9.000E+00
#rwgt            1           1   3.3566755039114785E-002           4      444755           0
</event>
<event>
      5   9999  3.79277E-02  8.63926E+00 -1.00000E+00  2.03399E-01
      21    -1     0     0   502   501  0.000000000E+00  0.000000000E+00  3.498573541E+02  3.498573541E+02  0.000000000E+00  0.00000E+00  9.000E+00
      21    -1     0     0   501   512  0.000000000E+00  0.000000000E+00 -1.484641600E+02  1.484641600E+02  0.000000000E+00  0.00000E+00  9.000E+00
      25     1     1     2     0     0  1.044099911E+02 -1.240503560E+02  1.794667683E+01  2.055164720E+02  1.250000000E+02  0.00000E+00  9.000E+00
      25     1     1     2     0     0 -1.123480690E+02  1.274597118E+02  1.884219856E+02  2.828354847E+02  1.250000000E+02  0.00000E+00  9.000E+00
      21     1     1     2   502   512  7.938077938E+00 -3.409355807E+00 -4.975468339E+00  9.969557340E+00  1.032382731E-07  0.00000E+00  9.000E+00
#rwgt            1           1   4.0350839354538218E-002           4      444993           0
</event>
<event>
      5   9999 -3.79277E-02  7.64812E+00 -1.00000E+00  2.10258E-01
      21    -1     0     0   502   501  0.000000000E+00  0.000000000E+00  4.105400428E+02  4.105400428E+02  0.000000000E+00  0.00000E+00  9.000E+00
      21    -1     0     0   511   502  0.000000000E+00  0.000000000E+00 -2.344249425E+03  2.344249425E+03  0.000000000E+00  0.00000E+00  9.000E+00
      25     1     1     2     0     0 -5.468767818E+01 -2.425401990E+02  2.720530305E+02  3.891713526E+02  1.250000000E+02  0.00000E+00  9.000E+00
      25     1     1     2     0     0  5.014929638E+01  2.486962445E+02 -1.702955069E+02  3.301368408E+02  1.250000000E+02  0.00000E+00  9.000E+00
      21     1     1     2   511   501  4.538381796E+00 -6.156045497E+00 -2.035466906E+03  2.035481274E+03  2.157918644E-05  0.00000E+00  9.000E+00
#rwgt            1           1 -0.20357294105387080                4      445483           0
</event>
<event>
      5   9999  3.79277E-02  1.30434E+01 -1.00000E+00  1.83300E-01
      21    -1     0     0   512   501  0.000000000E+00  0.000000000E+00  8.773734539E+02  8.773734539E+02  0.000000000E+00  0.00000E+00  9.000E+00
      21    -1     0     0   501   502  0.000000000E+00  0.000000000E+00 -1.576607540E+02  1.576607540E+02  0.000000000E+00  0.00000E+00  9.000E+00
      25     1     1     2     0     0 -1.842879254E+02 -6.232496336E+01  6.285934425E+02  6.697769453E+02  1.250000000E+02  0.00000E+00  9.000E+00
      25     1     1     2     0     0  1.712921937E+02  6.121113818E+01 -4.771749145E+01  2.258091629E+02  1.250000000E+02  0.00000E+00  9.000E+00
      21     1     1     2   512   502  1.299573168E+01  1.113825180E+00  1.388367489E+02  1.394480996E+02  1.907348633E-06  0.00000E+00  9.000E+00
#rwgt            1           1   4.9914472959087235E-002           4      445987           0
</event>
<event>
      5   9999  3.79277E-02  1.43703E+01 -1.00000E+00  1.79156E-01
      21    -1     0     0   511   501  0.000000000E+00  0.000000000E+00  8.970644464E+02  8.970644464E+02  0.000000000E+00  0.00000E+00  9.000E+00
      21    -1     0     0   501   502  0.000000000E+00  0.000000000E+00 -5.432666674E+01  5.432666674E+01  0.000000000E+00  0.00000E+00  9.000E+00
      25     1     1     2     0     0  1.979180136E+01 -1.328289471E+02  6.128157619E+02  6.396900832E+02  1.250000000E+02  0.00000E+00  9.000E+00
      25     1     1     2     0     0 -1.902601646E+01  1.184790537E+02  1.460772846E+02  2.266337321E+02  1.250000000E+02  0.00000E+00  9.000E+00
      21     1     1     2   511   502 -7.657848950E-01  1.434989336E+01  8.384473322E+01  8.506729780E+01  9.536743164E-07  0.00000E+00  9.000E+00
#rwgt            1           1   3.7421219762938412E-002           4      446290           0
</event>
<event>
      5   9999  3.79277E-02  3.39135E+01 -1.00000E+00  1.49431E-01
      21    -1     0     0   502   501  0.000000000E+00  0.000000000E+00  9.901836218E+01  9.901836218E+01  0.000000000E+00  0.00000E+00  9.000E+00
       1    -1     0     0   501     0  0.000000000E+00  0.000000000E+00 -1.043289447E+03  1.043289447E+03  0.000000000E+00  0.00000E+00  9.000E+00
      25     1     1     2     0     0  2.654639669E+01  1.739062681E+02 -4.867701749E+02  5.324643692E+02  1.250000000E+02  0.00000E+00  9.000E+00
      25     1     1     2     0     0  5.145078665E+00 -1.618324782E+02 -6.320770578E+01  2.140944579E+02  1.250000000E+02  0.00000E+00  9.000E+00
       1     1     1     2   502     0 -3.169147535E+01 -1.207378991E+01 -3.942932044E+02  3.957489823E+02  5.394796609E-06  0.00000E+00  9.000E+00
#rwgt            1           1   4.5345341220107617E-002           4      446464           0
</event>
<event>
      5   9999  3.79277E-02  7.93871E+00 -1.00000E+00  2.08108E-01
      21    -1     0     0   502   511  0.000000000E+00  0.000000000E+00  2.905419680E+02  2.905419680E+02  0.000000000E+00  0.00000E+00  9.000E+00
      21    -1     0     0   501   502  0.000000000E+00  0.000000000E+00 -1.764360177E+02  1.764360177E+02  0.000000000E+00  0.00000E+00  9.000E+00
      25     1     1     2     0     0  3.119600279E+01 -1.360150893E+02 -5.501088555E+01  1.952549427E+02  1.250000000E+02  0.00000E+00  9.000E+00
      25     1     1     2     0     0 -3.300209461E+01  1.282845508E+02  1.114732436E+02  2.135353560E+02  1.250000000E+02  0.00000E+00  9.000E+00
      21     1     1     2   501   511  1.806091812E+00  7.730538557E+00  5.764359229E+01  5.818768707E+01  0.000000000E+00  0.00000E+00  9.000E+00
#rwgt            1           1   2.5812696603753540E-002           4      446628           0
</event>
<event>
      5   9999  3.79277E-02  9.97613E+01 -1.00000E+00  1.23875E-01
      21    -1     0     0   502   501  0.000000000E+00  0.000000000E+00  3.413595425E+02  3.413595425E+02  0.000000000E+00  0.00000E+00  9.000E+00
      21    -1     0     0   501   512  0.000000000E+00  0.000000000E+00 -3.438921860E+02  3.438921860E+02  0.000000000E+00  0.00000E+00  9.000E+00
      25     1     1     2     0     0  1.359133367E+02 -2.891777822E+01  3.057209184E+01  1.893893497E+02  1.250000000E+02  0.00000E+00  9.000E+00
      25     1     1     2     0     0 -1.151892315E+02 -6.866724499E+01  1.822623819E+02  2.585117511E+02  1.250000000E+02  0.00000E+00  9.000E+00
      21     1     1     2   502   512 -2.072410520E+01  9.758502322E+01 -2.153671173E+02  2.373506278E+02  2.697398305E-06  0.00000E+00  9.000E+00
#rwgt            1           1   4.0216311609874392E-002           4      446848           0
</event>
<event>
      5   9999  3.79277E-02  1.40609E+02 -1.00000E+00  1.17517E-01
      21    -1     0     0   511   501  0.000000000E+00  0.000000000E+00  4.988914378E+02  4.988914378E+02  0.000000000E+00  0.00000E+00  9.000E+00
      21    -1     0     0   501   502  0.000000000E+00  0.000000000E+00 -2.220024093E+02  2.220024093E+02  0.000000000E+00  0.00000E+00  9.000E+00
      25     1     1     2     0     0  1.513269264E+02 -1.064112045E+02 -8.650907970E+00  2.234346018E+02  1.250000000E+02  0.00000E+00  9.000E+00
      25     1     1     2     0     0 -2.218617141E+02 -1.522642770E+01  1.251164578E+02  2.841365733E+02  1.250000000E+02  0.00000E+00  9.000E+00
      21     1     1     2   511   502  7.053478773E+01  1.216376322E+02  1.604234786E+02  2.133226719E+02  1.907348633E-06  0.00000E+00  9.000E+00
#rwgt            1           1   2.7254132614269604E-002           4      446940           0
</event>
<event>
      5   9999  3.79277E-02  5.50296E+01 -1.00000E+00  1.36741E-01
      21    -1     0     0   502   512  0.000000000E+00  0.000000000E+00  4.322702538E+02  4.322702538E+02  0.000000000E+00  0.00000E+00  9.000E+00
      21    -1     0     0   501   502  0.000000000E+00  0.000000000E+00 -1.525871217E+02  1.525871217E+02  0.000000000E+00  0.00000E+00  9.000E+00
      25     1     1     2     0     0  1.221338366E+02  5.563948058E+01  1.783834706E+02  2.558477837E+02  1.250000000E+02  0.00000E+00  9.000E+00
      25     1     1     2     0     0 -1.766720580E+02 -6.297734580E+01  1.402416531E+01  2.258336542E+02  1.250000000E+02  0.00000E+00  9.000E+00
      21     1     1     2   501   512  5.453822136E+01  7.337865216E+00  8.727549621E+01  1.031759376E+02  9.536743164E-07  0.00000E+00  9.000E+00
#rwgt            1           1   4.1157224467396419E-002           4      447057           0
</event>
<event>
      5   9999  3.79277E-02  2.76064E+02 -1.00000E+00  1.06779E-01
      -4    -1     0     0     0   501  0.000000000E+00  0.000000000E+00  4.024011911E+02  4.024011911E+02  0.000000000E+00  0.00000E+00  9.000E+00
      21    -1     0     0   501   502  0.000000000E+00  0.000000000E+00 -1.034494402E+03  1.034494402E+03  0.000000000E+00  0.00000E+00  9.000E+00
      25     1     1     2     0     0 -3.714225606E+00  1.206786796E+02 -7.124400580E+02  7.333300590E+02  1.250000000E+02  0.00000E+00  9.000E+00
      25     1     1     2     0     0 -1.146976466E+02  1.287003782E+02 -2.126929269E+02  3.009694646E+02  1.250000000E+02  0.00000E+00  9.000E+00
      -4     1     1     2     0   502  1.184118722E+02 -2.493790579E+02  2.930397740E+02  4.025960695E+02  0.000000000E+00  0.00000E+00  9.000E+00
#rwgt            1           1   3.5568574636593513E-002           4      447164           0
</event>
<event>
      5   9999  3.79277E-02  5.43823E+01 -1.00000E+00  1.37025E-01
      21    -1     0     0   502   501  0.000000000E+00  0.000000000E+00  8.529449841E+01  8.529449841E+01  0.000000000E+00  0.00000E+00  9.000E+00
      21    -1     0     0   501   511  0.000000000E+00  0.000000000E+00 -6.147519240E+02  6.147519240E+02  0.000000000E+00  0.00000E+00  9.000E+00
      25     1     1     2     0     0 -9.045808589E+01 -1.065748305E+02 -2.477986057E+02  3.107571541E+02  1.250000000E+02  0.00000E+00  9.000E+00
      25     1     1     2     0     0  7.163595366E+01  1.575959703E+02 -2.117358990E+02  3.007079823E+02  1.250000000E+02  0.00000E+00  9.000E+00
      21     1     1     2   502   511  1.882213224E+01 -5.102113983E+01 -6.992292087E+01  8.858128603E+01  9.536743164E-07  0.00000E+00  9.000E+00
#rwgt            2          11   2.9093278754092691E-003           4      447345           0
</event>
<event>
      5   9999 -3.79277E-02  5.15444E+01 -1.00000E+00  1.38326E-01
      21    -1     0     0   512   501  0.000000000E+00  0.000000000E+00  4.851125118E+02  4.851125118E+02  0.000000000E+00  0.00000E+00  9.000E+00
      21    -1     0     0   501   502  0.000000000E+00  0.000000000E+00 -2.283021112E+02  2.283021112E+02  0.000000000E+00  0.00000E+00  9.000E+00
      25     1     1     2     0     0  2.027937305E+01 -1.176755465E+02 -3.119864833E+01  1.756620132E+02  1.250000000E+02  0.00000E+00  9.000E+00
      25     1     1     2     0     0  2.572846468E+01  9.443534129E+01 -7.182029091E+01  1.742502274E+02  1.250000000E+02  0.00000E+00  9.000E+00
      21     1     1     2   512   502 -4.600783773E+01  2.324020517E+01  3.598293398E+02  3.635023824E+02  7.629394531E-06  0.00000E+00  9.000E+00
#rwgt            1           1 -0.13998267226125549                4      447425           0
</event>
<event>
      5   9999  3.79277E-02  1.70690E+02 -1.00000E+00  1.14212E-01
      21    -1     0     0   511   501  0.000000000E+00  0.000000000E+00  1.687255291E+02  1.687255291E+02  0.000000000E+00  0.00000E+00  9.000E+00
      21    -1     0     0   501   502  0.000000000E+00  0.000000000E+00 -8.699734173E+02  8.699734173E+02  0.000000000E+00  0.00000E+00  9.000E+00
      25     1     1     2     0     0 -8.481413937E+01  1.566940754E+02 -1.188634924E+02  2.479919380E+02  1.250000000E+02  0.00000E+00  9.000E+00
      25     1     1     2     0     0  2.284467165E+02 -2.489148759E+02 -4.382304996E+02  5.672895985E+02  1.250000000E+02  0.00000E+00  9.000E+00
      21     1     1     2   511   502 -1.436325771E+02  9.222080058E+01 -1.441538962E+02  2.234174099E+02  1.907348633E-06  0.00000E+00  9.000E+00
#rwgt            1           1   3.8513242993609885E-002           4      447604           0
</event>
<event>
      5   9999  3.79277E-02  5.19082E+01 -1.00000E+00  1.38154E-01
      21    -1     0     0   502   501  0.000000000E+00  0.000000000E+00  5.198259639E+02  5.198259639E+02  0.000000000E+00  0.00000E+00  9.000E+00
      21    -1     0     0   512   502  0.000000000E+00  0.000000000E+00 -1.630081980E+02  1.630081980E+02  0.000000000E+00  0.00000E+00  9.000E+00
      25     1     1     2     0     0 -7.274893543E+01 -5.091923956E+01  3.398341383E+02  3.728235750E+02  1.250000000E+02  0.00000E+00  9.000E+00
      25     1     1     2     0     0  8.095595019E+01 -3.361022213E-01  1.222275483E+02  1.926617565E+02  1.250000000E+02  0.00000E+00  9.000E+00
      21     1     1     2   512   501 -8.207014760E+00  5.125534179E+01 -1.052439207E+02  1.173488304E+02  1.348699152E-06  0.00000E+00  9.000E+00
#rwgt            1           1   4.2615943375749775E-002           4      447700           0
</event>
<event>
      5   9999  3.79277E-02  5.74274E+01 -1.00000E+00  1.35728E-01
      21    -1     0     0   502   501  0.000000000E+00  0.000000000E+00  2.140993664E+02  2.140993664E+02  0.000000000E+00  0.00000E+00  9.000E+00
       2    -1     0     0   501     0  0.000000000E+00  0.000000000E+00 -1.331529904E+03  1.331529904E+03  0.000000000E+00  0.00000E+00  9.000E+00
      25     1     1     2     0     0  7.644758179E+01 -1.215686007E+01  1.206486401E+02  1.901923142E+02  1.250000000E+02  0.00000E+00  9.000E+00
      25     1     1     2     0     0 -1.228566710E+02 -2.166780927E+01 -7.653332769E+01  1.924723508E+02  1.250000000E+02  0.00000E+00  9.000E+00
       2     1     1     2   502     0  4.640908921E+01  3.382466933E+01 -1.161545850E+03  1.162964605E+03  0.000000000E+00  0.00000E+00  9.000E+00
#rwgt            1           1   3.3089196943181375E-002           4      447803           0
</event>
<event>
      5   9999  3.79277E-02  1.18994E+02 -1.00000E+00  1.20524E-01
       1    -1     0     0   502     0  0.000000000E+00  0.000000000E+00  1.147488483E+02  1.147488483E+02  0.000000000E+00  0.00000E+00  9.000E+00
      21    -1     0     0   501   502  0.000000000E+00  0.000000000E+00 -7.356487474E+02  7.356487474E+02  0.000000000E+00  0.00000E+00  9.000E+00
      25     1     1     2     0     0 -9.195271738E+01  5.559888275E+01 -2.004644837E+02  2.595333258E+02  1.250000000E+02  0.00000E+00  9.000E+00
      25     1     1     2     0     0  1.252911274E+02 -1.698269996E+02 -4.013238779E+02  4.703455446E+02  1.250000000E+02  0.00000E+00  9.000E+00
       1     1     1     2   501     0 -3.333841001E+01  1.142281169E+02 -1.911153749E+01  1.205187252E+02  4.768371582E-07  0.00000E+00  9.000E+00
#rwgt            1           1   3.5820069694260513E-002           4      447866           0
</event>
<event>
      5   9999  3.79277E-02  7.77247E+01 -1.00000E+00  1.28959E-01
      21    -1     0     0   511   501  0.000000000E+00  0.000000000E+00  1.290650571E+02  1.290650571E+02  0.000000000E+00  0.00000E+00  9.000E+00
      21    -1     0     0   501   502  0.000000000E+00  0.000000000E+00 -7.570314014E+02  7.570314014E+02  0.000000000E+00  0.00000E+00  9.000E+00
      25     1     1     2     0     0 -7.374196258E+01  1.186408981E+02 -2.305471635E+02  2.971372315E+02  1.250000000E+02  0.00000E+00  9.000E+00
      25     1     1     2     0     0  1.168366481E+01 -1.654372239E+02 -4.496645542E+02  4.953071717E+02  1.250000000E+02  0.00000E+00  9.000E+00
      21     1     1     2   511   502  6.205829776E+01  4.679632575E+01  5.224537340E+01  9.365205532E+01  1.168007728E-06  0.00000E+00  9.000E+00
#rwgt            2          11   1.9400259414525292E-003           4      448327           0
</event>
<event>
      5   9999  3.79277E-02  1.01027E+01 -1.00000E+00  1.95246E-01
      21    -1     0     0   502   501  0.000000000E+00  0.000000000E+00  5.984020133E+01  5.984020133E+01  0.000000000E+00  0.00000E+00  9.000E+00
      21    -1     0     0   512   502  0.000000000E+00  0.000000000E+00 -3.590531087E+02  3.590531087E+02  0.000000000E+00  0.00000E+00  9.000E+00
      25     1     1     2     0     0 -4.460119523E+01  4.027543260E+01 -1.188132456E+02  1.826279399E+02  1.250000000E+02  0.00000E+00  9.000E+00
      25     1     1     2     0     0  5.468100555E+01 -4.095499803E+01 -1.676095239E+02  2.199665355E+02  1.250000000E+02  0.00000E+00  9.000E+00
      21     1     1     2   512   501 -1.007981032E+01  6.795654262E-01 -1.279013788E+01  1.629883469E+01  2.920019320E-07  0.00000E+00  9.000E+00
#rwgt            1           1   4.8048481372489217E-002           4      448452           0
</event>
<event>
      5   9999  3.79277E-02  8.23969E+01 -1.00000E+00  1.27732E-01
      21    -1     0     0   502   501  0.000000000E+00  0.000000000E+00  9.982247157E+01  9.982247157E+01  0.000000000E+00  0.00000E+00  9.000E+00
      21    -1     0     0   501   511  0.000000000E+00  0.000000000E+00 -5.949861892E+02  5.949861892E+02  0.000000000E+00  0.00000E+00  9.000E+00
      25     1     1     2     0     0 -7.564126242E+01 -1.705629409E+02 -1.919081037E+02  2.954099485E+02  1.250000000E+02  0.00000E+00  9.000E+00
      25     1     1     2     0     0  8.480766584E+01  8.867748528E+01 -1.801858742E+02  2.512926299E+02  1.250000000E+02  0.00000E+00  9.000E+00
      21     1     1     2   502   511 -9.166403421E+00  8.188545565E+01 -1.230697397E+02  1.481060824E+02  1.348699152E-06  0.00000E+00  9.000E+00
#rwgt            1           1   3.1363159047667143E-002           4      448648           0
</event>
<event>
      5   9999  3.79277E-02  6.42657E+01 -1.00000E+00  1.33129E-01
      21    -1     0     0   502   501  0.000000000E+00  0.000000000E+00  5.628067044E+02  5.628067044E+02  0.000000000E+00  0.00000E+00  9.000E+00
      21    -1     0     0   512   502  0.000000000E+00  0.000000000E+00 -2.023814098E+02  2.023814098E+02  0.000000000E+00  0.00000E+00  9.000E+00
      25     1     1     2     0     0 -1.976783148E+01 -7.825650171E+01  4.683351511E+02  4.914037658E+02  1.250000000E+02  0.00000E+00  9.000E+00
      25     1     1     2     0     0  6.861091983E+01  1.200228831E+02 -9.056250608E+01  2.072185279E+02  1.250000000E+02  0.00000E+00  9.000E+00
      21     1     1     2   512   501 -4.884308835E+01 -4.176638143E+01 -1.734735040E+01  6.656582053E+01  1.651812370E-06  0.00000E+00  9.000E+00
#rwgt            1           1   4.9102946614869830E-002           4      448775           0
</event>
<event>
      5   9999  3.79277E-02  3.83572E+01 -1.00000E+00  1.45979E-01
      21    -1     0     0   502   501  0.000000000E+00  0.000000000E+00  1.478041387E+02  1.478041387E+02  0.000000000E+00  0.00000E+00  9.000E+00
      21    -1     0     0   501   511  0.000000000E+00  0.000000000E+00 -3.542522533E+02  3.542522533E+02  0.000000000E+00  0.00000E+00  9.000E+00
      25     1     1     2     0     0  2.147668742E+01 -1.388393866E+02  1.810714375E+01  1.889192739E+02  1.250000000E+02  0.00000E+00  9.000E+00
      25     1     1     2     0     0 -4.885349135E+01  1.119733494E+02 -1.545579008E+02  2.333191790E+02  1.250000000E+02  0.00000E+00  9.000E+00
      21     1     1     2   502   511  2.737680393E+01  2.686603722E+01 -6.999735757E+01  7.981793918E+01  9.536743164E-07  0.00000E+00  9.000E+00
#rwgt            1           1   4.0770620115226669E-002           4      448981           0
</event>
<event>
      5   9999  3.79277E-02  1.15219E+01 -1.00000E+00  1.88904E-01
      21    -1     0     0   502   501  0.000000000E+00  0.000000000E+00  1.331310877E+02  1.331310877E+02  0.000000000E+00  0.00000E+00  9.000E+00
      21    -1     0     0   501   512  0.000000000E+00  0.000000000E+00 -2.676147337E+02  2.676147337E+02  0.000000000E+00  0.00000E+00  9.000E+00
      25     1     1     2     0     0  1.139062479E+02 -4.786071653E+01 -1.308146923E+02  2.190953336E+02  1.250000000E+02  0.00000E+00  9.000E+00
      25     1     1     2     0     0 -1.024219683E+02  4.879064576E+01  1.979497751E+00  1.688185568E+02  1.250000000E+02  0.00000E+00  9.000E+00
      21     1     1     2   502   512 -1.148427965E+01 -9.299292293E-01 -5.648451528E+00  1.283193096E+01  1.685873940E-07  0.00000E+00  9.000E+00
#rwgt            1           1   4.5695851855829236E-002           4      449084           0
</event>
<event>
      5   9999  3.79277E-02  6.31030E+01 -1.00000E+00  1.33543E-01
      21    -1     0     0   511   501  0.000000000E+00  0.000000000E+00  5.937053211E+01  5.937053211E+01  0.000000000E+00  0.00000E+00  9.000E+00
      21    -1     0     0   501   502  0.000000000E+00  0.000000000E+00 -6.296813923E+02  6.296813923E+02  0.000000000E+00  0.00000E+00  9.000E+00
      25     1     1     2     0     0 -3.494989064E+01  4.999667096E+01 -2.449746676E+02  2.817068507E+02  1.250000000E+02  0.00000E+00  9.000E+00
      25     1     1     2     0     0 -1.357418423E+01 -9.033782027E+01 -3.032544905E+02  3.404900384E+02  1.250000000E+02  0.00000E+00  9.000E+00
      21     1     1     2   511   502  4.852407487E+01  4.034114930E+01 -2.208170199E+01  6.685503520E+01  1.066240300E-06  0.00000E+00  9.000E+00
#rwgt            1           1   6.2924260674385502E-002           4      449379           0
</event>
<event>
      5   9999  3.79277E-02  1.06283E+02 -1.00000E+00  1.22649E-01
      21    -1     0     0   502   501  0.000000000E+00  0.000000000E+00  1.063834068E+03  1.063834068E+03  0.000000000E+00  0.00000E+00  9.000E+00
      21    -1     0     0   501   512  0.000000000E+00  0.000000000E+00 -2.950303948E+02  2.950303948E+02  0.000000000E+00  0.00000E+00  9.000E+00
      25     1     1     2     0     0 -1.565604374E+02  1.070980404E+02  6.755932889E+02  7.127639531E+02  1.250000000E+02  0.00000E+00  9.000E+00
      25     1     1     2     0     0  2.616095921E+02 -1.232479450E+02  2.862936872E+02  4.256979093E+02  1.250000000E+02  0.00000E+00  9.000E+00
      21     1     1     2   502   512 -1.050491546E+02  1.614990464E+01 -1.930833030E+02  2.204026003E+02  2.697398305E-06  0.00000E+00  9.000E+00
#rwgt            1           1   4.0403350597300013E-002           4      449493           0
</event>
<event>
      5   9999  3.79277E-02  1.74928E+02 -1.00000E+00  1.13807E-01
       1    -1     0     0   502     0  0.000000000E+00  0.000000000E+00  8.654035678E+02  8.654035678E+02  0.000000000E+00  0.00000E+00  9.000E+00
      21    -1     0     0   501   502  0.000000000E+00  0.000000000E+00 -2.045909584E+02  2.045909584E+02  0.000000000E+00  0.00000E+00  9.000E+00
      25     1     1     2     0     0  1.879680116E+02 -1.803209396E+02  6.726306970E+01  2.966427737E+02  1.250000000E+02  0.00000E+00  9.000E+00
      25     1     1     2     0     0 -7.713561203E+01  4.498386756E+01 -9.807429534E-01  1.536210039E+02  1.250000000E+02  0.00000E+00  9.000E+00
       1     1     1     2   501     0 -1.108323996E+02  1.353370720E+02  5.945302827E+02  6.197307487E+02  7.629394531E-06  0.00000E+00  9.000E+00
#rwgt            1           1   3.7579816084257513E-002           4      449693           0
</event>
<event>
      5   9999  3.79277E-02  3.65549E+01 -1.00000E+00  1.47308E-01
      21    -1     0     0   511   501  0.000000000E+00  0.000000000E+00  4.751695611E+02  4.751695611E+02  0.000000000E+00  0.00000E+00  9.000E+00
      21    -1     0     0   501   502  0.000000000E+00  0.000000000E+00 -1.366611691E+02  1.366611691E+02  0.000000000E+00  0.00000E+00  9.000E+00
      25     1     1     2     0     0 -7.970147917E+01  8.992848700E+01 -1.462311427E+01  1.740065919E+02  1.250000000E+02  0.00000E+00  9.000E+00
      25     1     1     2     0     0  1.079529727E+02 -1.131258246E+02  2.101351617E+02  2.902293622E+02  1.250000000E+02  0.00000E+00  9.000E+00
      21     1     1     2   511   502 -2.825149358E+01  2.319733758E+01  1.429963446E+02  1.475947761E+02  1.907348633E-06  0.00000E+00  9.000E+00
#rwgt            1           1   2.8186812338922472E-002           4      449788           0
</event>
<event>
      5   9999  3.79277E-02  2.67639E+01 -1.00000E+00  1.56565E-01
      21    -1     0     0   502   501  0.000000000E+00  0.000000000E+00  6.476674495E+01  6.476674495E+01  0.000000000E+00  0.00000E+00  9.000E+00
       2    -1     0     0   501     0  0.000000000E+00  0.000000000E+00 -2.808623007E+03  2.808623007E+03  0.000000000E+00  0.00000E+00  9.000E+00
      25     1     1     2     0     0 -2.318858964E+02  1.288291567E+02 -9.072508113E+02  9.534658123E+02  1.250000000E+02  0.00000E+00  9.000E+00
      25     1     1     2     0     0  2.143291278E+02 -1.490297915E+02 -4.627695160E+02  5.458273342E+02  1.250000000E+02  0.00000E+00  9.000E+00
       2     1     1     2   502     0  1.755676864E+01  2.020063480E+01 -1.373835934E+03  1.374096605E+03  2.157918644E-05  0.00000E+00  9.000E+00
#rwgt            1           1   4.3869354738209215E-002           4      450060           0
</event>
<event>
      5   9999  3.79277E-02  7.91087E+01 -1.00000E+00  1.28585E-01
      21    -1     0     0   511   501  0.000000000E+00  0.000000000E+00  1.122144061E+02  1.122144061E+02  0.000000000E+00  0.00000E+00  9.000E+00
      21    -1     0     0   501   502  0.000000000E+00  0.000000000E+00 -1.413049072E+03  1.413049072E+03  0.000000000E+00  0.00000E+00  9.000E+00
      25     1     1     2     0     0 -2.038411753E+02  1.695768504E+02 -2.982982015E+02  4.182276293E+02  1.250000000E+02  0.00000E+00  9.000E+00
      25     1     1     2     0     0  2.824390864E+02 -1.785518353E+02 -9.423899084E+02  1.007658839E+03  1.250000000E+02  0.00000E+00  9.000E+00
      21     1     1     2   511   502 -7.859791107E+01  8.974984947E+00 -6.014655614E+01  9.937701040E+01  2.697398305E-06  0.00000E+00  9.000E+00
#rwgt            1           1   2.2734337716377288E-002           4      450325           0
</event>
<event>
      5   9999  3.79277E-02  1.53392E+02 -1.00000E+00  1.16010E-01
      21    -1     0     0   502   501  0.000000000E+00  0.000000000E+00  4.446749018E+01  4.446749018E+01  0.000000000E+00  0.00000E+00  9.000E+00
       2    -1     0     0   501     0  0.000000000E+00  0.000000000E+00 -3.095742050E+03  3.095742050E+03  0.000000000E+00  0.00000E+00  9.000E+00
      25     1     1     2     0     0  1.211918322E+02 -2.191694570E+01 -2.209725714E+02  2.821731561E+02  1.250000000E+02  0.00000E+00  9.000E+00
      25     1     1     2     0     0 -3.195403269E+01 -1.028458910E+02 -2.302292766E+03  2.308197417E+03  1.250000000E+02  0.00000E+00  9.000E+00
       2     1     1     2   502     0 -8.923779955E+01  1.247628367E+02 -5.280092222E+02  5.498389664E+02  7.629394531E-06  0.00000E+00  9.000E+00
#rwgt            1           1   9.6033722595764343E-002           4      450438           0
</event>
<event>
      5   9999  3.79277E-02  2.59423E+01 -1.00000E+00  1.57557E-01
      21    -1     0     0   502   501  0.000000000E+00  0.000000000E+00  2.205588034E+02  2.205588034E+02  0.000000000E+00  0.00000E+00  9.000E+00
      21    -1     0     0   511   502  0.000000000E+00  0.000000000E+00 -2.434293188E+02  2.434293188E+02  0.000000000E+00  0.00000E+00  9.000E+00
      25     1     1     2     0     0 -4.656952713E+01 -1.496211584E+02 -4.071161342E+01  2.045425319E+02  1.250000000E+02  0.00000E+00  9.000E+00
      25     1     1     2     0     0  2.945939761E+01  1.301211851E+02  7.427448740E+01  1.973349396E+02  1.250000000E+02  0.00000E+00  9.000E+00
      21     1     1     2   511   501  1.711012952E+01  1.949997328E+01 -5.643338941E+01  6.211065070E+01  0.000000000E+00  0.00000E+00  9.000E+00
#rwgt            1           1   3.4346800418848612E-002           4      450493           0
</event>
<event>
      5   9999  3.79277E-02  1.15402E+02 -1.00000E+00  1.21093E-01
      21    -1     0     0   512   501  0.000000000E+00  0.000000000E+00  2.115798000E+02  2.115798000E+02  0.000000000E+00  0.00000E+00  9.000E+00
      21    -1     0     0   501   502  0.000000000E+00  0.000000000E+00 -5.922528834E+02  5.922528834E+02  0.000000000E+00  0.00000E+00  9.000E+00
      25     1     1     2     0     0 -7.436217315E+01  1.569626655E+02 -6.473446755E+01  2.235678028E+02  1.250000000E+02  0.00000E+00  9.000E+00
      25     1     1     2     0     0  1.538698788E+02 -7.331901661E+01 -3.896801881E+02  4.433139597E+02  1.250000000E+02  0.00000E+00  9.000E+00
      21     1     1     2   512   502 -7.950770566E+01 -8.364364887E+01  7.374157230E+01  1.369509209E+02  9.536743164E-07  0.00000E+00  9.000E+00
#rwgt            2          11   2.3287326361153427E-003           4      450639           0
</event>
<event>
      5   9999  3.79277E-02  7.25566E+01 -1.00000E+00  1.30437E-01
      21    -1     0     0   511   501  0.000000000E+00  0.000000000E+00  4.085961644E+02  4.085961644E+02  0.000000000E+00  0.00000E+00  9.000E+00
      21    -1     0     0   501   502  0.000000000E+00  0.000000000E+00 -2.640144859E+02  2.640144859E+02  0.000000000E+00  0.00000E+00  9.000E+00
      25     1     1     2     0     0 -7.243438261E+01  1.146438874E+02 -1.180791893E+02  2.189923643E+02  1.250000000E+02  0.00000E+00  9.000E+00
      25     1     1     2     0     0  1.203590466E+02 -1.691204051E+02  7.694368567E+01  2.542308838E+02  1.250000000E+02  0.00000E+00  9.000E+00
      21     1     1     2   511   502 -4.792466402E+01  5.447651770E+01  1.857171821E+02  1.993874021E+02  0.000000000E+00  0.00000E+00  9.000E+00
#rwgt            1           1   4.4595049806053999E-002           4      450809           0
</event>
<event>
      5   9999 -3.79277E-02  4.58707E+01 -1.00000E+00  1.41246E-01
      21    -1     0     0   502   501  0.000000000E+00  0.000000000E+00  2.405970877E+02  2.405970877E+02  0.000000000E+00  0.00000E+00  9.000E+00
      21    -1     0     0   512   502  0.000000000E+00  0.000000000E+00 -2.614864592E+02  2.614864592E+02  0.000000000E+00  0.00000E+00  9.000E+00
      25     1     1     2     0     0 -1.660281110E+02 -4.219445552E+01  5.385335371E+01  2.187941714E+02  1.250000000E+02  0.00000E+00  9.000E+00
      25     1     1     2     0     0  1.755702754E+02 -2.672806631E+00 -2.723867563E+01  2.172533335E+02  1.250000000E+02  0.00000E+00  9.000E+00
      21     1     1     2   512   501 -9.542164312E+00  4.486726215E+01 -4.750404961E+01  6.603604199E+01  9.536743164E-07  0.00000E+00  9.000E+00
#rwgt            1           1 -0.11559578726434290                4      450906           0
</event>
<event>
      5   9999  3.79277E-02  1.12774E+01 -1.00000E+00  1.89909E-01
      21    -1     0     0   502   511  0.000000000E+00  0.000000000E+00  1.405399548E+02  1.405399548E+02  0.000000000E+00  0.00000E+00  9.000E+00
      21    -1     0     0   501   502  0.000000000E+00  0.000000000E+00 -3.727180056E+02  3.727180056E+02  0.000000000E+00  0.00000E+00  9.000E+00
      25     1     1     2     0     0 -5.194417210E+01 -1.442906678E+02 -2.189083453E+02  2.950658527E+02  1.250000000E+02  0.00000E+00  9.000E+00
      25     1     1     2     0     0  4.079513037E+01  1.425942657E+02 -3.174642326E+01  1.965456758E+02  1.250000000E+02  0.00000E+00  9.000E+00
      21     1     1     2   501   511  1.114904174E+01  1.696402032E+00  1.847671775E+01  2.164643182E+01  3.371747881E-07  0.00000E+00  9.000E+00
#rwgt            1           1   3.1920397147880218E-002           4      451064           0
</event>
<event>
      5   9999  3.79277E-02  7.70862E+01 -1.00000E+00  1.29134E-01
      21    -1     0     0   502   501  0.000000000E+00  0.000000000E+00  1.900771199E+02  1.900771199E+02  0.000000000E+00  0.00000E+00  9.000E+00
      21    -1     0     0   501   512  0.000000000E+00  0.000000000E+00 -4.242794075E+02  4.242794075E+02  0.000000000E+00  0.00000E+00  9.000E+00
      25     1     1     2     0     0 -3.952122124E+01  1.623396083E+02 -5.431400257E+00  2.087356593E+02  1.250000000E+02  0.00000E+00  9.000E+00
      25     1     1     2     0     0  1.162896224E+02 -1.553466144E+02 -9.172657628E+01  2.483840004E+02  1.250000000E+02  0.00000E+00  9.000E+00
      21     1     1     2   502   512 -7.676840115E+01 -6.992993928E+00 -1.370443110E+02  1.572368677E+02  2.697398305E-06  0.00000E+00  9.000E+00
#rwgt            1           1   4.6206583956673861E-002           4      451387           0
</event>
<event>
      5   9999  3.79277E-02  2.75937E+01 -1.00000E+00  1.55605E-01
      21    -1     0     0   502   511  0.000000000E+00  0.000000000E+00  1.100593075E+02  1.100593075E+02  0.000000000E+00  0.00000E+00  9.000E+00
      21    -1     0     0   501   502  0.000000000E+00  0.000000000E+00 -5.898500654E+02  5.898500654E+02  0.000000000E+00  0.00000E+00  9.000E+00
      25     1     1     2     0     0  5.893640640E+01  1.133097619E+02 -4.425151073E+02  4.772391668E+02  1.250000000E+02  0.00000E+00  9.000E+00
      25     1     1     2     0     0 -5.738380256E+01 -8.575981971E+01 -7.280135056E+01  1.776870398E+02  1.250000000E+02  0.00000E+00  9.000E+00
      21     1     1     2   501   511 -1.552603839E+00 -2.754994221E+01  3.552569993E+01  4.498316630E+01  0.000000000E+00  0.00000E+00  9.000E+00
#rwgt            2          11   7.4779109357057830E-004           4      451492           0
</event>
<event>
      5   9999  3.79277E-02  8.56399E+01 -1.00000E+00  1.26934E-01
      21    -1     0     0   502   501  0.000000000E+00  0.000000000E+00  7.678552459E+01  7.678552459E+01  0.000000000E+00  0.00000E+00  9.000E+00
       2    -1     0     0   501     0  0.000000000E+00  0.000000000E+00 -9.487578412E+02  9.487578412E+02  0.000000000E+00  0.00000E+00  9.000E+00
      25     1     1     2     0     0 -4.202689525E+01 -1.028764384E+02 -3.197571202E+02  3.608593042E+02  1.250000000E+02  0.00000E+00  9.000E+00
      25     1     1     2     0     0  1.272677916E+02  1.111333455E+02 -1.624914708E+02  2.656617950E+02  1.250000000E+02  0.00000E+00  9.000E+00
       2     1     1     2   502     0 -8.524089631E+01 -8.256907086E+00 -3.897237256E+02  3.990222666E+02  5.394796609E-06  0.00000E+00  9.000E+00
#rwgt            1           1   3.6547582948694382E-002           4      451617           0
</event>
<event>
      5   9999  3.79277E-02  3.05765E+01 -1.00000E+00  1.52468E-01
      21    -1     0     0   502   501  0.000000000E+00  0.000000000E+00  1.755380361E+03  1.755380361E+03  0.000000000E+00  0.00000E+00  9.000E+00
      21    -1     0     0   501   511  0.000000000E+00  0.000000000E+00 -6.288103239E+01  6.288103239E+01  0.000000000E+00  0.00000E+00  9.000E+00
      25     1     1     2     0     0 -2.599729385E+02 -7.094419315E+01  7.881288588E+02  8.422535874E+02  1.250000000E+02  0.00000E+00  9.000E+00
      25     1     1     2     0     0  2.879876301E+02  5.869262350E+01  8.822144832E+02  9.382478849E+02  1.250000000E+02  0.00000E+00  9.000E+00
      21     1     1     2   502   511 -2.801469159E+01  1.225156965E+01  2.215598666E+01  3.775992120E+01  1.283923342E-06  0.00000E+00  9.000E+00
#rwgt            1           1   1.8178469400837761E-002           4      451696           0
</event>
<event>
      5   9999  4.42618E-02  2.05237E+01 -1.00000E+00  1.65448E-01
      21    -1     0     0   502   512  0.000000000E+00  0.000000000E+00  4.561271567E+02  4.561271567E+02  0.000000000E+00  0.00000E+00  9.000E+00
      21    -1     0     0   501   502  0.000000000E+00  0.000000000E+00 -5.938369578E+02  5.938369578E+02  0.000000000E+00  0.00000E+00  9.000E+00
      25     1     1     2     0     0  2.365689243E+02  2.023421803E+02 -2.068662872E+02  3.941140376E+02  1.250000000E+02  0.00000E+00  9.000E+00
      25     1     1     2     0     0 -2.182396072E+02 -1.931086969E+02 -2.071675179E+02  3.787649343E+02  1.250000000E+02  0.00000E+00  9.000E+00
      21     1     1     2   501   512 -1.832931706E+01 -9.233483362E+00  2.763240040E+02  2.770851426E+02  6.607249480E-06  0.00000E+00  9.000E+00
#rwgt            1           1  0.41505466047575024                4      451962           0
</event>
<event>
      5   9999  3.79277E-02  3.39562E+01 -1.00000E+00  1.49395E-01
      21    -1     0     0   502   501  0.000000000E+00  0.000000000E+00  7.714473233E+02  7.714473233E+02  0.000000000E+00  0.00000E+00  9.000E+00
      -1    -1     0     0     0   502  0.000000000E+00  0.000000000E+00 -2.718027645E+02  2.718027645E+02  0.000000000E+00  0.00000E+00  9.000E+00
      25     1     1     2     0     0  2.181608076E+01 -1.390930899E+02  2.030429370E+02  2.769011797E+02  1.250000000E+02  0.00000E+00  9.000E+00
      25     1     1     2     0     0 -5.198174197E+01  1.546832909E+02  5.102081187E+02  5.500603116E+02  1.250000000E+02  0.00000E+00  9.000E+00
      -1     1     1     2     0   501  3.016566121E+01 -1.559020098E+01 -2.136064969E+02  2.162885965E+02  2.697398305E-06  0.00000E+00  9.000E+00
#rwgt            1           1   2.2181388794245346E-002           4      452154           0
</event>
<event>
      5   9999  3.79277E-02  4.61703E+01 -1.00000E+00  1.41079E-01
      21    -1     0     0   511   501  0.000000000E+00  0.000000000E+00  4.881052773E+02  4.881052773E+02  0.000000000E+00  0.00000E+00  9.000E+00
      21    -1     0     0   501   502  0.000000000E+00  0.000000000E+00 -8.045085546E+01  8.045085546E+01  0.000000000E+00  0.00000E+00  9.000E+00
      25     1     1     2     0     0  3.587719870E+01  1.050480048E+02  9.489230642E+01  1.922285268E+02  1.250000000E+02  0.00000E+00  9.000E+00
      25     1     1     2     0     0  1.006830566E+01 -1.004975152E+02  2.171199589E+02  2.701244118E+02  1.250000000E+02  0.00000E+00  9.000E+00
      21     1     1     2   511   502 -4.594550436E+01 -4.550489651E+00  9.564215654E+01  1.062031941E+02  0.000000000E+00  0.00000E+00  9.000E+00
#rwgt            1           1   2.9101466523919386E-002           4      452272           0
</event>
<event>
      5   9999  3.79277E-02  1.56891E+01 -1.00000E+00  1.75565E-01
      21    -1     0     0   502   512  0.000000000E+00  0.000000000E+00  4.199752995E+02  4.199752995E+02  0.000000000E+00  0.00000E+00  9.000E+00
      21    -1     0     0   501   502  0.000000000E+00  0.000000000E+00 -3.253218887E+02  3.253218887E+02  0.000000000E+00  0.00000E+00  9.000E+00
      25     1     1     2     0     0  1.848043547E+02 -5.602439378E+01 -1.173615896E+02  2.582443125E+02  1.250000000E+02  0.00000E+00  9.000E+00
      25     1     1     2     0     0 -1.997726292E+02  6.072527978E+01 -2.940367285E+01  2.451249456E+02  1.250000000E+02  0.00000E+00  9.000E+00
      21     1     1     2   501   512  1.496827449E+01 -4.700886006E+00  2.414186733E+02  2.419279301E+02  0.000000000E+00  0.00000E+00  9.000E+00
#rwgt            1           1   3.8771059676112156E-002           4      452335           0
</event>
<event>
      5   9999  3.79277E-02  1.99462E+01 -1.00000E+00  1.66466E-01
      21    -1     0     0   511   501  0.000000000E+00  0.000000000E+00  8.815782465E+02  8.815782465E+02  0.000000000E+00  0.00000E+00  9.000E+00
      21    -1     0     0   501   502  0.000000000E+00  0.000000000E+00 -5.827834276E+01  5.827834276E+01  0.000000000E+00  0.00000E+00  9.000E+00
      25     1     1     2     0     0  1.784300286E+02 -3.899467773E+00  3.306123307E+02  3.959570610E+02  1.250000000E+02  0.00000E+00  9.000E+00
      25     1     1     2     0     0 -1.669333290E+02  2.019901877E+01  4.343085046E+02  4.822070239E+02  1.250000000E+02  0.00000E+00  9.000E+00
      21     1     1     2   511   502 -1.149669963E+01 -1.629955100E+01  5.837906840E+01  6.169250434E+01  9.536743164E-07  0.00000E+00  9.000E+00
#rwgt            1           1   4.2349176580094502E-002           4      452543           0
</event>
<event>
      5   9999  3.79277E-02  2.96282E+01 -1.00000E+00  1.53417E-01
      21    -1     0     0   512   501  0.000000000E+00  0.000000000E+00  5.236074375E+01  5.236074375E+01  0.000000000E+00  0.00000E+00  9.000E+00
      21    -1     0     0   501   502  0.000000000E+00  0.000000000E+00 -1.381395118E+03  1.381395118E+03  0.000000000E+00  0.00000E+00  9.000E+00
      25     1     1     2     0     0 -2.448807755E+01 -1.779025781E+02 -2.765938919E+02  3.526728999E+02  1.250000000E+02  0.00000E+00  9.000E+00
      25     1     1     2     0     0  2.391105273E+01  1.482800344E+02 -1.013429207E+03  1.032096151E+03  1.250000000E+02  0.00000E+00  9.000E+00
      21     1     1     2   512   502  5.770248199E-01  2.962254369E+01 -3.901127538E+01  4.898681107E+01  4.768371582E-07  0.00000E+00  9.000E+00
#rwgt            1           1   3.5502774902677316E-002           4      452734           0
</event>
<event>
      5   9999  3.79277E-02  1.14265E+02 -1.00000E+00  1.21278E-01
      21    -1     0     0   511   501  0.000000000E+00  0.000000000E+00  9.474259925E+02  9.474259925E+02  0.000000000E+00  0.00000E+00  9.000E+00
      21    -1     0     0   501   502  0.000000000E+00  0.000000000E+00 -1.785583069E+02  1.785583069E+02  0.000000000E+00  0.00000E+00  9.000E+00
      25     1     1     2     0     0  3.924570255E+01 -2.916608714E+02  4.265705564E+02  5.330982355E+02  1.250000000E+02  0.00000E+00  9.000E+00
      25     1     1     2     0     0 -4.985223408E+01  1.778893587E+02 -9.235275230E+00  2.232490974E+02  1.250000000E+02  0.00000E+00  9.000E+00
      21     1     1     2   511   502  1.060653153E+01  1.137715127E+02  3.515324044E+02  3.696369665E+02  3.814697266E-06  0.00000E+00  9.000E+00
#rwgt            2          11   1.2701595076963991E-003           4      452915           0
</event>
<event>
      5   9999 -3.79277E-02  1.61260E+01 -1.00000E+00  1.74472E-01
      21    -1     0     0   512   501  0.000000000E+00  0.000000000E+00  4.840982742E+02  4.840982742E+02  0.000000000E+00  0.00000E+00  9.000E+00
      21    -1     0     0   501   502  0.000000000E+00  0.000000000E+00 -9.559151241E+01  9.559151241E+01  0.000000000E+00  0.00000E+00  9.000E+00
      25     1     1     2     0     0 -6.800119675E+01 -1.204280050E+02  5.692678423E+01  1.949172284E+02  1.250000000E+02  0.00000E+00  9.000E+00
      25     1     1     2     0     0  7.102792245E+01  1.045885496E+02  3.145594235E+02  3.613258382E+02  1.250000000E+02  0.00000E+00  9.000E+00
      21     1     1     2   512   502 -3.026725702E+00  1.583945547E+01  1.702055411E+01  2.344672003E+01  3.371747881E-07  0.00000E+00  9.000E+00
#rwgt            1           1 -0.10762705727196742                4      452995           0
</event>
<event>
      5   9999  3.79277E-02  1.14919E+01 -1.00000E+00  1.89026E-01
      21    -1     0     0   502   501  0.000000000E+00  0.000000000E+00  1.179775740E+03  1.179775740E+03  0.000000000E+00  0.00000E+00  9.000E+00
      21    -1     0     0   501   511  0.000000000E+00  0.000000000E+00 -3.939368700E+01  3.939368700E+01  0.000000000E+00  0.00000E+00  9.000E+00
      25     1     1     2     0     0 -1.099124726E+02  8.889698587E+01  7.867239121E+02  8.090382806E+02  1.250000000E+02  0.00000E+00  9.000E+00
      25     1     1     2     0     0  1.124172192E+02 -1.001125908E+02  3.264858202E+02  3.806286285E+02  1.250000000E+02  0.00000E+00  9.000E+00
      21     1     1     2   502   511 -2.504746578E+00  1.121560497E+01  2.717232106E+01  2.950251824E+01  6.743495762E-07  0.00000E+00  9.000E+00
#rwgt            1           1   3.5987736142468356E-002           4      453282           0
</event>
<event>
      5   9999  3.79277E-02  5.19926E+01 -1.00000E+00  1.38114E-01
      21    -1     0     0   502   512  0.000000000E+00  0.000000000E+00  2.513701086E+03  2.513701086E+03  0.000000000E+00  0.00000E+00  9.000E+00
      21    -1     0     0   501   502  0.000000000E+00  0.000000000E+00 -3.198882513E+01  3.198882513E+01  0.000000000E+00  0.00000E+00  9.000E+00
      25     1     1     2     0     0 -2.804505725E+01  6.071004879E+01  8.655262319E+02  8.770592303E+02  1.250000000E+02  0.00000E+00  9.000E+00
      25     1     1     2     0     0  3.346272496E+01 -1.124196526E+02  2.598324345E+02  3.112809442E+02  1.250000000E+02  0.00000E+00  9.000E+00
      21     1     1     2   501   512 -5.417667711E+00  5.170960379E+01  1.356353594E+03  1.357349736E+03  2.157918644E-05  0.00000E+00  9.000E+00
#rwgt            1           1   4.8418170980004324E-002           4      453508           0
</event>
<event>
      5   9999  3.79277E-02  6.28133E+01 -1.00000E+00  1.33648E-01
      21    -1     0     0   502   501  0.000000000E+00  0.000000000E+00  4.922710723E+01  4.922710723E+01  0.000000000E+00  0.00000E+00  9.000E+00
       1    -1     0     0   501     0  0.000000000E+00  0.000000000E+00 -1.767703630E+03  1.767703630E+03  0.000000000E+00  0.00000E+00  9.000E+00
      25     1     1     2     0     0  1.598506053E+00  7.353690707E+01 -9.235314885E+01  1.719428278E+02  1.250000000E+02  0.00000E+00  9.000E+00
      25     1     1     2     0     0 -6.299956740E+01 -6.029205561E+01 -6.840791133E+02  7.008518465E+02  1.250000000E+02  0.00000E+00  9.000E+00
       1     1     1     2   502     0  6.140106135E+01 -1.324485146E+01 -9.420442604E+02  9.441360627E+02  1.525878906E-05  0.00000E+00  9.000E+00
#rwgt            1           1   5.0490656850182461E-002           4      453583           0
</event>
<event>
      5   9999  3.79277E-02  2.22413E+01 -1.00000E+00  1.62651E-01
      21    -1     0     0   502   501  0.000000000E+00  0.000000000E+00  4.474145928E+02  4.474145928E+02  0.000000000E+00  0.00000E+00  9.000E+00
      21    -1     0     0   511   502  0.000000000E+00  0.000000000E+00 -8.094621375E+01  8.094621375E+01  0.000000000E+00  0.00000E+00  9.000E+00
      25     1     1     2     0     0 -1.836180192E+01 -6.358263440E+01  2.342892618E+01  1.433660411E+02  1.250000000E+02  0.00000E+00  9.000E+00
      25     1     1     2     0     0  1.556462770E+00  4.901356494E+01  3.357254333E+02  3.615816902E+02  1.250000000E+02  0.00000E+00  9.000E+00
      21     1     1     2   511   501  1.680533915E+01  1.456906945E+01  7.314019571E+00  2.341307522E+01  2.528810911E-07  0.00000E+00  9.000E+00
#rwgt            1           1   4.5031946998417678E-002           4      453736           0
</event>
<event>
      5   9999  3.79277E-02  2.86000E+01 -1.00000E+00  1.54496E-01
      21    -1     0     0   502   501  0.000000000E+00  0.000000000E+00  2.000273353E+03  2.000273353E+03  0.000000000E+00  0.00000E+00  9.000E+00
      21    -1     0     0   501   512  0.000000000E+00  0.000000000E+00 -5.565252840E+01  5.565252840E+01  0.000000000E+00  0.00000E+00  9.000E+00
      25     1     1     2     0     0 -1.898724800E+02 -1.176196285E+02  3.679072072E+02  4.481814909E+02  1.250000000E+02  0.00000E+00  9.000E+00
      25     1     1     2     0     0  2.102628235E+02  1.376744269E+02  1.496193591E+03  1.522295951E+03  1.250000000E+02  0.00000E+00  9.000E+00
      21     1     1     2   502   512 -2.039034352E+01 -2.005479843E+01  8.052002687E+01  8.544843929E+01  1.348699152E-06  0.00000E+00  9.000E+00
#rwgt            1           1   3.2990466402717182E-002           4      453984           0
</event>
<event>
      5   9999  3.79277E-02  9.70587E+01 -1.00000E+00  1.24414E-01
      21    -1     0     0   502   511  0.000000000E+00  0.000000000E+00  8.582800916E+02  8.582800916E+02  0.000000000E+00  0.00000E+00  9.000E+00
      21    -1     0     0   501   502  0.000000000E+00  0.000000000E+00 -1.797922880E+02  1.797922880E+02  0.000000000E+00  0.00000E+00  9.000E+00
      25     1     1     2     0     0  6.532633514E+01  6.602752945E+01 -3.540502704E+01  1.597049800E+02  1.250000000E+02  0.00000E+00  9.000E+00
      25     1     1     2     0     0 -4.785533819E+01 -1.615008548E+02  6.120630855E+01  2.185037109E+02  1.250000000E+02  0.00000E+00  9.000E+00
      21     1     1     2   501   511 -1.747099695E+01  9.547332532E+01  6.526865220E+02  6.598636887E+02  1.321449896E-05  0.00000E+00  9.000E+00
#rwgt            1           1   3.8931989036737370E-002           4      454276           0
</event>
<event>
      5   9999  3.79277E-02  1.01153E+01 -1.00000E+00  1.95183E-01
      21    -1     0     0   502   512  0.000000000E+00  0.000000000E+00  5.403912576E+01  5.403912576E+01  0.000000000E+00  0.00000E+00  9.000E+00
      21    -1     0     0   501   502  0.000000000E+00  0.000000000E+00 -8.387973186E+02  8.387973186E+02  0.000000000E+00  0.00000E+00  9.000E+00
      25     1     1     2     0     0 -6.628960449E+01  1.160294567E+02 -5.281778963E+02  5.589758819E+02  1.250000000E+02  0.00000E+00  9.000E+00
      25     1     1     2     0     0  5.632099061E+01 -1.143128884E+02 -2.657971346E+02  3.201759004E+02  1.250000000E+02  0.00000E+00  9.000E+00
      21     1     1     2   501   512  9.968613889E+00 -1.716568324E+00  9.216838065E+00  1.368466198E+01  2.064765462E-07  0.00000E+00  9.000E+00
#rwgt            1           1   5.4775853794023444E-002           4      454690           0
</event>
<event>
      5   9999  3.79277E-02  2.22903E+02 -1.00000E+00  1.09960E-01
      21    -1     0     0   502   501  0.000000000E+00  0.000000000E+00  2.745072409E+02  2.745072409E+02  0.000000000E+00  0.00000E+00  9.000E+00
      21    -1     0     0   501   511  0.000000000E+00  0.000000000E+00 -1.886657588E+03  1.886657588E+03  0.000000000E+00  0.00000E+00  9.000E+00
      25     1     1     2     0     0 -1.540907176E+02 -3.794742697E+01 -6.777346053E+01  2.130779163E+02  1.250000000E+02  0.00000E+00  9.000E+00
      25     1     1     2     0     0  7.094008781E+01 -1.688654357E+02  1.312619188E+02  2.576872577E+02  1.250000000E+02  0.00000E+00  9.000E+00
      21     1     1     2   502   511  8.315062976E+01  2.068128627E+02 -1.675638806E+03  1.690399655E+03  0.000000000E+00  0.00000E+00  9.000E+00
#rwgt            1           1   4.5526964761339668E-002           4      455011           0
</event>
<event>
      5   9999  3.79277E-02  2.30806E+01 -1.00000E+00  1.61394E-01
      21    -1     0     0   502   501  0.000000000E+00  0.000000000E+00  5.737029328E+02  5.737029328E+02  0.000000000E+00  0.00000E+00  9.000E+00
      21    -1     0     0   501   512  0.000000000E+00  0.000000000E+00 -2.173886663E+02  2.173886663E+02  0.000000000E+00  0.00000E+00  9.000E+00
      25     1     1     2     0     0 -4.675308428E+01 -2.240404290E+02 -6.098210833E+01  2.678129613E+02  1.250000000E+02  0.00000E+00  9.000E+00
      25     1     1     2     0     0  4.861863334E+01  2.010353212E+02  4.326411347E+02  4.955626331E+02  1.250000000E+02  0.00000E+00  9.000E+00
      21     1     1     2   502   512 -1.865549057E+00  2.300510783E+01 -1.534475990E+01  2.771600469E+01  6.307962682E-07  0.00000E+00  9.000E+00
#rwgt            1           1   2.8806806324466309E-002           4      455041           0
</event>
<event>
      5   9999  3.79277E-02  1.00820E+02 -1.00000E+00  1.23669E-01
      21    -1     0     0   502   501  0.000000000E+00  0.000000000E+00  1.406057346E+03  1.406057346E+03  0.000000000E+00  0.00000E+00  9.000E+00
      21    -1     0     0   511   502  0.000000000E+00  0.000000000E+00 -4.395231122E+01  4.395231122E+01  0.000000000E+00  0.00000E+00  9.000E+00
      25     1     1     2     0     0  1.389830721E+02 -5.492364246E+01  3.491044347E+02  3.997897037E+02  1.250000000E+02  0.00000E+00  9.000E+00
      25     1     1     2     0     0 -4.061516099E+01  3.282526482E+01  8.326834814E+02  8.436313588E+02  1.250000000E+02  0.00000E+00  9.000E+00
      21     1     1     2   511   501 -9.836791106E+01  2.209837764E+01  1.803171189E+02  2.065885950E+02  3.814697266E-06  0.00000E+00  9.000E+00
#rwgt            1           1   4.1012027501227136E-002           4      455119           0
</event>
<event>
      5   9999  3.79277E-02  1.76401E+01 -1.00000E+00  1.70998E-01
      21    -1     0     0   502   501  0.000000000E+00  0.000000000E+00  6.083901822E+01  6.083901822E+01  0.000000000E+00  0.00000E+00  9.000E+00
      21    -1     0     0   501   512  0.000000000E+00  0.000000000E+00 -6.555622105E+02  6.555622105E+02  0.000000000E+00  0.00000E+00  9.000E+00
      25     1     1     2     0     0 -1.245939462E+02 -2.825218275E+01 -2.088023341E+02  2.748549654E+02  1.250000000E+02  0.00000E+00  9.000E+00
      25     1     1     2     0     0  1.070319161E+02  2.659456383E+01 -2.269123957E+02  2.815623150E+02  1.250000000E+02  0.00000E+00  9.000E+00
      21     1     1     2   502   512  1.756203007E+01  1.657618918E+00 -1.590084625E+02  1.599839484E+02  2.697398305E-06  0.00000E+00  9.000E+00
#rwgt            1           1   3.9073270030233045E-002           4      455195           0
</event>
<event>
      5   9999  3.79277E-02  5.06962E+01 -1.00000E+00  1.38734E-01
      21    -1     0     0   502   501  0.000000000E+00  0.000000000E+00  3.833816594E+02  3.833816594E+02  0.000000000E+00  0.00000E+00  9.000E+00
      21    -1     0     0   501   511  0.000000000E+00  0.000000000E+00 -1.117263593E+02  1.117263593E+02  0.000000000E+00  0.00000E+00  9.000E+00
      25     1     1     2     0     0  5.557214264E+01  1.182779316E+02  7.891352498E+01  1.973075685E+02  1.250000000E+02  0.00000E+00  9.000E+00
      25     1     1     2     0     0 -1.121732549E+01 -9.372693663E+01  1.910798319E+02  2.470770512E+02  1.250000000E+02  0.00000E+00  9.000E+00
      21     1     1     2   502   511 -4.435481716E+01 -2.455099500E+01  1.661943242E+00  5.072339910E+01  4.782321017E-07  0.00000E+00  9.000E+00
#rwgt            1           1   5.2905897839213761E-002           4      455357           0
</event>
<event>
      5   9999 -3.79277E-02  1.78355E+02 -1.00000E+00  1.13489E-01
      -1    -1     0     0     0   501  0.000000000E+00  0.000000000E+00  1.701550675E+02  1.701550675E+02  0.000000000E+00  0.00000E+00  9.000E+00
      21    -1     0     0   501   502  0.000000000E+00  0.000000000E+00 -1.265323127E+03  1.265323127E+03  0.000000000E+00  0.00000E+00  9.000E+00
      25     1     1     2     0     0  1.546545451E+02 -2.396276846E+02 -9.048694876E+02  9.569499701E+02  1.250000000E+02  0.00000E+00  9.000E+00
      25     1     1     2     0     0 -1.472769325E+02  6.142484630E+01 -2.184010236E+02  2.979723371E+02  1.250000000E+02  0.00000E+00  9.000E+00
      -1     1     1     2     0   502 -7.377612608E+00  1.782028383E+02  2.810245141E+01  1.805558875E+02  4.886126883E-06  0.00000E+00  9.000E+00
#rwgt            1           1 -0.23455329146288859                4      455417           0
</event>
<event>
      5   9999  3.79277E-02  2.05995E+01 -1.00000E+00  1.65318E-01
      21    -1     0     0   511   501  0.000000000E+00  0.000000000E+00  5.350851684E+02  5.350851684E+02  0.000000000E+00  0.00000E+00  9.000E+00
      21    -1     0     0   501   502  0.000000000E+00  0.000000000E+00 -5.004083301E+02  5.004083301E+02  0.000000000E+00  0.00000E+00  9.000E+00
      25     1     1     2     0     0  2.301356838E+02  1.643836199E+01 -2.559321117E+02  3.665499945E+02  1.250000000E+02  0.00000E+00  9.000E+00
      25     1     1     2     0     0 -2.246272446E+02  3.411005964E+00 -1.014231542E+02  2.763705668E+02  1.250000000E+02  0.00000E+00  9.000E+00
      21     1     1     2   511   502 -5.508439216E+00 -1.984936796E+01  3.920321042E+02  3.925729372E+02  7.629394531E-06  0.00000E+00  9.000E+00
#rwgt            1           1  0.35050445933588725                4      455656           0
</event>
<event>
      5   9999  3.79277E-02  2.43349E+02 -1.00000E+00  1.08632E-01
       3    -1     0     0   502     0  0.000000000E+00  0.000000000E+00  2.734135990E+02  2.734135990E+02  0.000000000E+00  0.00000E+00  9.000E+00
      21    -1     0     0   501   502  0.000000000E+00  0.000000000E+00 -5.407374171E+02  5.407374171E+02  0.000000000E+00  0.00000E+00  9.000E+00
      25     1     1     2     0     0 -9.973456585E+01  3.848372865E+01 -2.056256699E+02  2.633152048E+02  1.250000000E+02  0.00000E+00  9.000E+00
      25     1     1     2     0     0 -9.278682391E+01 -1.873271543E+02 -1.566758642E+02  2.896086737E+02  1.250000000E+02  0.00000E+00  9.000E+00
       3     1     1     2   501     0  1.925213898E+02  1.488434257E+02  9.497771589E+01  2.612271376E+02  4.046097457E-06  0.00000E+00  9.000E+00
#rwgt            1           1   4.3408271514260445E-002           4      455830           0
</event>
<event>
      5   9999  3.79277E-02  2.34298E+01 -1.00000E+00  1.60890E-01
      21    -1     0     0   502   501  0.000000000E+00  0.000000000E+00  1.085044549E+03  1.085044549E+03  0.000000000E+00  0.00000E+00  9.000E+00
      21    -1     0     0   511   502  0.000000000E+00  0.000000000E+00 -5.170223675E+01  5.170223675E+01  0.000000000E+00  0.00000E+00  9.000E+00
      25     1     1     2     0     0  8.263882223E+01  1.259647804E+02  2.800671323E+02  3.417000138E+02  1.250000000E+02  0.00000E+00  9.000E+00
      25     1     1     2     0     0 -7.400178686E+01 -1.477445590E+02  7.392562917E+02  7.677431758E+02  1.250000000E+02  0.00000E+00  9.000E+00
      21     1     1     2   511   501 -8.637035370E+00  2.177977865E+01  1.401888833E+01  2.730359625E+01  4.129530925E-07  0.00000E+00  9.000E+00
#rwgt            1           1   3.7069120937191925E-002           4      455872           0
</event>
<event>
      5   9999  3.79277E-02  4.12193E+01 -1.00000E+00  1.44036E-01
       1    -1     0     0   502     0  0.000000000E+00  0.000000000E+00  4.807748441E+02  4.807748441E+02  0.000000000E+00  0.00000E+00  9.000E+00
      21    -1     0     0   501   502  0.000000000E+00  0.000000000E+00 -1.711741690E+02  1.711741690E+02  0.000000000E+00  0.00000E+00  9.000E+00
      25     1     1     2     0     0  6.241581497E+00 -4.256844328E+01  5.413157442E+01  1.428504710E+02  1.250000000E+02  0.00000E+00  9.000E+00
      25     1     1     2     0     0 -1.045466580E+01  8.357182857E+01 -8.031805629E+01  1.707909270E+02  1.250000000E+02  0.00000E+00  9.000E+00
       1     1     1     2   501     0  4.213084305E+00 -4.100338529E+01  3.357871570E+02  3.383076151E+02  0.000000000E+00  0.00000E+00  9.000E+00
#rwgt            1           1   3.1727012778632768E-002           4      456027           0
</event>
<event>
      5   9999  3.79277E-02  2.58054E+01 -1.00000E+00  1.57726E-01
      21    -1     0     0   502   501  0.000000000E+00  0.000000000E+00  3.366779341E+02  3.366779341E+02  0.000000000E+00  0.00000E+00  9.000E+00
      21    -1     0     0   511   502  0.000000000E+00  0.000000000E+00 -4.819574203E+02  4.819574203E+02  0.000000000E+00  0.00000E+00  9.000E+00
      25     1     1     2     0     0  9.623074928E+01  1.002039346E+02 -1.506452432E+02  2.400420274E+02  1.250000000E+02  0.00000E+00  9.000E+00
      25     1     1     2     0     0 -1.155996366E+02 -8.315206578E+01  2.605194284E+02  3.221380366E+02  1.250000000E+02  0.00000E+00  9.000E+00
      21     1     1     2   511   501  1.936888736E+01 -1.705186878E+01 -2.551536713E+02  2.564552905E+02  5.394796609E-06  0.00000E+00  9.000E+00
#rwgt            1           1   3.6822393967847415E-002           4      456106           0
</event>
<event>
      5   9999  3.79277E-02  9.13337E+00 -1.00000E+00  2.00421E-01
      21    -1     0     0   502   501  0.000000000E+00  0.000000000E+00  1.332272191E+02  1.332272191E+02  0.000000000E+00  0.00000E+00  9.000E+00
      -2    -1     0     0     0   502  0.000000000E+00  0.000000000E+00 -3.411942149E+02  3.411942149E+02  0.000000000E+00  0.00000E+00  9.000E+00
      25     1     1     2     0     0  5.314559168E+01 -8.334458428E+01 -1.195072359E+02  1.991927536E+02  1.250000000E+02  0.00000E+00  9.000E+00
      25     1     1     2     0     0 -4.659030374E+01  8.970435301E+01  2.387838932E+01  1.625198598E+02  1.250000000E+02  0.00000E+00  9.000E+00
      -2     1     1     2     0   501 -6.555287932E+00 -6.359768727E+00 -1.123381493E+02  1.127088206E+02  0.000000000E+00  0.00000E+00  9.000E+00
#rwgt            1           1   3.9610327864604722E-002           4      456460           0
</event>
<event>
      5   9999  3.79277E-02  2.82569E+01 -1.00000E+00  1.54868E-01
      21    -1     0     0   502   501  0.000000000E+00  0.000000000E+00  1.507698196E+02  1.507698196E+02  0.000000000E+00  0.00000E+00  9.000E+00
      21    -1     0     0   501   511  0.000000000E+00  0.000000000E+00 -3.103124665E+02  3.103124665E+02  0.000000000E+00  0.00000E+00  9.000E+00
      25     1     1     2     0     0 -8.490391303E+00 -3.880558617E+01 -1.746284290E+02  2.183988290E+02  1.250000000E+02  0.00000E+00  9.000E+00
      25     1     1     2     0     0  1.899309374E+01  6.503813385E+01  8.612382399E+01  1.662317946E+02  1.250000000E+02  0.00000E+00  9.000E+00
      21     1     1     2   502   511 -1.050270243E+01 -2.623254768E+01 -7.103804187E+01  7.645166257E+01  0.000000000E+00  0.00000E+00  9.000E+00
#rwgt            1           1   3.7165963709038449E-002           4      456725           0
</event>
<event>
      5   9999  3.79277E-02  3.29062E+01 -1.00000E+00  1.50302E-01
      21    -1     0     0   502   501  0.000000000E+00  0.000000000E+00  3.869972000E+02  3.869972000E+02  0.000000000E+00  0.00000E+00  9.000E+00
      21    -1     0     0   501   512  0.000000000E+00  0.000000000E+00 -5.554651290E+02  5.554651290E+02  0.000000000E+00  0.00000E+00  9.000E+00
      25     1     1     2     0     0  9.169889377E+01  8.009212305E+01  1.963326424E+02  2.626688824E+02  1.250000000E+02  0.00000E+00  9.000E+00
      25     1     1     2     0     0 -6.271986894E+01 -9.568173675E+01  1.111849517E+02  2.026718288E+02  1.250000000E+02  0.00000E+00  9.000E+00
      21     1     1     2   502   512 -2.897902483E+01  1.558961369E+01 -4.759855231E+02  4.771216178E+02  5.394796609E-06  0.00000E+00  9.000E+00
#rwgt            1           1   4.6452761160275802E-002           4      456897           0
</event>
<event>
      5   9999  3.79277E-02  1.32078E+02 -1.00000E+00  1.18627E-01
      21    -1     0     0   502   501  0.000000000E+00  0.000000000E+00  2.947065669E+02  2.947065669E+02  0.000000000E+00  0.00000E+00  9.000E+00
      21    -1     0     0   501   511  0.000000000E+00  0.000000000E+00 -3.761967451E+02  3.761967451E+02  0.000000000E+00  0.00000E+00  9.000E+00
      25     1     1     2     0     0  2.512746719E+01  4.037364239E+01 -1.292056639E+02  1.859583937E+02  1.250000000E+02  0.00000E+00  9.000E+00
      25     1     1     2     0     0 -1.655221523E+01  9.142527284E+01  2.189479224E+02  2.686926665E+02  1.250000000E+02  0.00000E+00  9.000E+00
      21     1     1     2   502   511 -8.575251957E+00 -1.317989152E+02 -1.712324366E+02  2.162522517E+02  2.697398305E-06  0.00000E+00  9.000E+00
#rwgt            1           1   4.3576820762292752E-002           4      457011           0
</event>
<event>
      5   9999  3.79277E-02  4.31100E+01 -1.00000E+00  1.42852E-01
      21    -1     0     0   502   501  0.000000000E+00  0.000000000E+00  5.861480521E+01  5.861480521E+01  0.000000000E+00  0.00000E+00  9.000E+00
      21    -1     0     0   512   502  0.000000000E+00  0.000000000E+00 -1.982238102E+03  1.982238102E+03  0.000000000E+00  0.00000E+00  9.000E+00
      25     1     1     2     0     0  1.806314391E+02  1.908438848E+02 -6.377816751E+02  7.010275103E+02  1.250000000E+02  0.00000E+00  9.000E+00
      25     1     1     2     0     0 -1.613368173E+02 -1.522926996E+02 -5.895048563E+02  6.421554411E+02  1.250000000E+02  0.00000E+00  9.000E+00
      21     1     1     2   512   501 -1.929462172E+01 -3.855118518E+01 -6.963367659E+02  6.976699562E+02  1.078959322E-05  0.00000E+00  9.000E+00
#rwgt            1           1   3.5257513057165020E-002           4      457118           0
</event>
<event>
      5   9999  3.79277E-02  8.63623E+01 -1.00000E+00  1.26761E-01
      21    -1     0     0   502   501  0.000000000E+00  0.000000000E+00  6.649521987E+02  6.649521987E+02  0.000000000E+00  0.00000E+00  9.000E+00
      -2    -1     0     0     0   502  0.000000000E+00  0.000000000E+00 -2.560446503E+02  2.560446503E+02  0.000000000E+00  0.00000E+00  9.000E+00
      25     1     1     2     0     0  7.879506512E+01  1.668432894E+02  7.782704762E+01  2.360665051E+02  1.250000000E+02  0.00000E+00  9.000E+00
      25     1     1     2     0     0 -1.487567674E+02 -1.162092430E+02  4.698095104E+02  5.215161935E+02  1.250000000E+02  0.00000E+00  9.000E+00
      -2     1     1     2     0   501  6.996170228E+01 -5.063404638E+01 -1.387290097E+02  1.634141504E+02  2.697398305E-06  0.00000E+00  9.000E+00
#rwgt            1           1   3.5807066211963855E-002           4      457232           0
</event>
<event>
      5   9999  3.79277E-02  4.07994E+01 -1.00000E+00  1.44309E-01
      21    -1     0     0   502   501  0.000000000E+00  0.000000000E+00  3.520347636E+02  3.520347636E+02  0.000000000E+00  0.00000E+00  9.000E+00
      21    -1     0     0   511   502  0.000000000E+00  0.000000000E+00 -3.606549165E+02  3.606549165E+02  0.000000000E+00  0.00000E+00  9.000E+00
      25     1     1     2     0     0 -8.681370472E+01 -1.144694668E+01 -1.770457621E+02  2.337474145E+02  1.250000000E+02  0.00000E+00  9.000E+00
      25     1     1     2     0     0  9.532851527E+01  5.134795892E+01  2.992486616E+02  3.419048116E+02  1.250000000E+02  0.00000E+00  9.000E+00
      21     1     1     2   511   501 -8.514810552E+00 -3.990101224E+01 -1.308230524E+02  1.370374540E+02  1.907348633E-06  0.00000E+00  9.000E+00
#rwgt            1           1   2.2182955525903401E-002           4      457356           0
</event>
<event>
      5   9999  3.79277E-02  3.28555E+02 -1.00000E+00  1.04325E-01
      21    -1     0     0   502   501  0.000000000E+00  0.000000000E+00  1.549392761E+03  1.549392761E+03  0.000000000E+00  0.00000E+00  9.000E+00
      21    -1     0     0   501   512  0.000000000E+00  0.000000000E+00 -1.861957988E+02  1.861957988E+02  0.000000000E+00  0.00000E+00  9.000E+00
      25     1     1     2     0     0 -1.610112273E+02  2.813183216E+01  3.582283508E+02  4.131205231E+02  1.250000000E+02  0.00000E+00  9.000E+00
      25     1     1     2     0     0  4.148622808E+01  2.779108230E+02  9.380374414E+02  9.871650187E+02  1.250000000E+02  0.00000E+00  9.000E+00
      21     1     1     2   502   512  1.195249993E+02 -3.060426551E+02  6.693116966E+01  3.353030177E+02  1.000222061E-05  0.00000E+00  9.000E+00
#rwgt            1           1   3.7989262945924737E-002           4      457581           0
</event>
<event>
      5   9999  3.79277E-02  2.44091E+01 -1.00000E+00  1.59533E-01
      21    -1     0     0   502   501  0.000000000E+00  0.000000000E+00  1.038602178E+03  1.038602178E+03  0.000000000E+00  0.00000E+00  9.000E+00
      21    -1     0     0   501   511  0.000000000E+00  0.000000000E+00 -7.240494893E+01  7.240494893E+01  0.000000000E+00  0.00000E+00  9.000E+00
      25     1     1     2     0     0 -2.023930945E+02  2.161226912E+01  3.044662498E+02  3.869815915E+02  1.250000000E+02  0.00000E+00  9.000E+00
      25     1     1     2     0     0  2.017662566E+02 -4.601329781E+01  6.557432954E+02  6.988927782E+02  1.250000000E+02  0.00000E+00  9.000E+00
      21     1     1     2   502   511  6.268378712E-01  2.440102869E+01  5.987683719E+00  2.513275717E+01  5.331201500E-07  0.00000E+00  9.000E+00
#rwgt            1           1   3.7294747694568108E-002           4      457726           0
</event>
<event>
      5   9999  3.79277E-02  4.43474E+01 -1.00000E+00  1.42115E-01
      21    -1     0     0   502   512  0.000000000E+00  0.000000000E+00  1.077993382E+03  1.077993382E+03  0.000000000E+00  0.00000E+00  9.000E+00
      21    -1     0     0   501   502  0.000000000E+00  0.000000000E+00 -8.355151070E+01  8.355151070E+01  0.000000000E+00  0.00000E+00  9.000E+00
      25     1     1     2     0     0  2.698881642E+01  1.249690752E+02  4.313646718E+01  1.839331965E+02  1.250000000E+02  0.00000E+00  9.000E+00
      25     1     1     2     0     0  1.640971758E+01 -1.158446580E+02  6.147537494E+02  6.381507941E+02  1.250000000E+02  0.00000E+00  9.000E+00
      21     1     1     2   501   512 -4.339853400E+01 -9.124417263E+00  3.365516543E+02  3.394609017E+02  3.814697266E-06  0.00000E+00  9.000E+00
#rwgt            1           1   1.4530729668344922E-002           4      457918           0
</event>
<event>
      5   9999  3.79277E-02  1.52821E+01 -1.00000E+00  1.76625E-01
      21    -1     0     0   502   511  0.000000000E+00  0.000000000E+00  1.234809399E+02  1.234809399E+02  0.000000000E+00  0.00000E+00  9.000E+00
      21    -1     0     0   501   502  0.000000000E+00  0.000000000E+00 -5.507153356E+02  5.507153356E+02  0.000000000E+00  0.00000E+00  9.000E+00
      25     1     1     2     0     0 -1.567556865E+02  7.683111475E+01 -2.551165293E+02  3.334438618E+02  1.250000000E+02  0.00000E+00  9.000E+00
      25     1     1     2     0     0  1.606437721E+02 -9.161031993E+01 -2.058994770E+02  3.036749362E+02  1.250000000E+02  0.00000E+00  9.000E+00
      21     1     1     2   501   511 -3.888085609E+00  1.477920518E+01  3.378161067E+01  3.707747746E+01  8.259061849E-07  0.00000E+00  9.000E+00
#rwgt            1           1   3.0874654871646569E-002           4      458044           0
</event>
<event>
      5   9999  3.79277E-02  1.27896E+02 -1.00000E+00  1.19205E-01
      21    -1     0     0   502   501  0.000000000E+00  0.000000000E+00  1.330558535E+03  1.330558535E+03  0.000000000E+00  0.00000E+00  9.000E+00
      21    -1     0     0   501   512  0.000000000E+00  0.000000000E+00 -1.673643740E+02  1.673643740E+02  0.000000000E+00  0.00000E+00  9.000E+00
      25     1     1     2     0     0 -4.872538120E+01 -7.129293278E+01  5.038667525E+01  1.600645560E+02  1.250000000E+02  0.00000E+00  9.000E+00
      25     1     1     2     0     0 -7.561802427E+01  4.135860045E+01  1.182499154E+03  1.192207142E+03  1.250000000E+02  0.00000E+00  9.000E+00
      21     1     1     2   502   512  1.243434055E+02  2.993433233E+01 -6.969166823E+01  1.456512113E+02  3.693564745E-06  0.00000E+00  9.000E+00
#rwgt            1           1   4.9977125594058085E-002           4      458169           0
</event>
<event>
      5   9999  3.79277E-02  2.20777E+01 -1.00000E+00  1.62904E-01
      21    -1     0     0   502   501  0.000000000E+00  0.000000000E+00  1.900142131E+02  1.900142131E+02  0.000000000E+00  0.00000E+00  9.000E+00
      21    -1     0     0   501   511  0.000000000E+00  0.000000000E+00 -1.219182612E+03  1.219182612E+03  0.000000000E+00  0.00000E+00  9.000E+00
      25     1     1     2     0     0  4.426110041E+01 -3.182115120E+02 -3.716192225E+01  3.467327787E+02  1.250000000E+02  0.00000E+00  9.000E+00
      25     1     1     2     0     0 -6.430728906E+01  3.274621037E+02 -9.033233528E+02  9.710741148E+02  1.250000000E+02  0.00000E+00  9.000E+00
      21     1     1     2   502   511  2.004618866E+01 -9.250591692E+00 -8.868312362E+01  9.138993129E+01  1.348699152E-06  0.00000E+00  9.000E+00
#rwgt            1           1  0.17443095150127996                4      458255           0
</event>
<event>
      5   9999  3.79277E-02  3.36235E+01 -1.00000E+00  1.49678E-01
      21    -1     0     0   502   501  0.000000000E+00  0.000000000E+00  1.612206757E+02  1.612206757E+02  0.000000000E+00  0.00000E+00  9.000E+00
       1    -1     0     0   501     0  0.000000000E+00  0.000000000E+00 -2.133211593E+03  2.133211593E+03  0.000000000E+00  0.00000E+00  9.000E+00
      25     1     1     2     0     0  8.111505720E+01  1.086362627E+02 -1.587867097E+02  2.433510001E+02  1.250000000E+02  0.00000E+00  9.000E+00
      25     1     1     2     0     0 -6.819669485E+01 -1.396790691E+02  3.505067606E+01  2.025205704E+02  1.250000000E+02  0.00000E+00  9.000E+00
       1     1     1     2   502     0 -1.291836235E+01  3.104280634E+01 -1.848254883E+03  1.848560698E+03  3.051757812E-05  0.00000E+00  9.000E+00
#rwgt            1           1   5.6235231327685924E-002           4      458659           0
</event>
<event>
      5   9999  3.79277E-02  1.92731E+01 -1.00000E+00  1.67707E-01
      21    -1     0     0   502   511  0.000000000E+00  0.000000000E+00  1.664351304E+02  1.664351304E+02  0.000000000E+00  0.00000E+00  9.000E+00
      21    -1     0     0   501   502  0.000000000E+00  0.000000000E+00 -3.249086969E+02  3.249086969E+02  0.000000000E+00  0.00000E+00  9.000E+00
      25     1     1     2     0     0  6.427420967E+01 -9.663936984E-01  6.852480720E+01  1.563737738E+02  1.250000000E+02  0.00000E+00  9.000E+00
      25     1     1     2     0     0 -4.518108009E+01  3.593938831E+00 -2.626807293E+02  2.944153732E+02  1.250000000E+02  0.00000E+00  9.000E+00
      21     1     1     2   501   511 -1.909312958E+01 -2.627545132E+00  3.568235564E+01  4.055468031E+01  6.743495762E-07  0.00000E+00  9.000E+00
#rwgt            1           1   4.0162806835910454E-002           4      458805           0
</event>
<event>
      5   9999  3.79277E-02  9.99622E+01 -1.00000E+00  1.23835E-01
      21    -1     0     0   502   501  0.000000000E+00  0.000000000E+00  6.929960874E+02  6.929960874E+02  0.000000000E+00  0.00000E+00  9.000E+00
      -5    -1     0     0     0   502  0.000000000E+00  0.000000000E+00 -3.810690283E+02  3.810690283E+02  0.000000000E+00  0.00000E+00  9.000E+00
      25     1     1     2     0     0  4.688289882E+01  1.079408580E+02  5.488714185E+02  5.750948348E+02  1.250000000E+02  0.00000E+00  9.000E+00
      25     1     1     2     0     0 -1.384970604E+02 -1.479320466E+02  3.980733976E+00  2.381305785E+02  1.250000000E+02  0.00000E+00  9.000E+00
      -5     1     1     2     0   501  9.161416154E+01  3.999118860E+01 -2.409250933E+02  2.608397024E+02  0.000000000E+00  0.00000E+00  9.000E+00
#rwgt            1           1   3.8280030852580069E-002           4      458961           0
</event>
<event>
      5   9999  3.79277E-02  5.80618E+01 -1.00000E+00  1.35470E-01
      21    -1     0     0   502   501  0.000000000E+00  0.000000000E+00  4.698329606E+02  4.698329606E+02  0.000000000E+00  0.00000E+00  9.000E+00
       2    -1     0     0   501     0  0.000000000E+00  0.000000000E+00 -2.070728356E+02  2.070728356E+02  0.000000000E+00  0.00000E+00  9.000E+00
      25     1     1     2     0     0  1.868687978E+02 -3.927563044E+01  1.302816422E+02  2.627942713E+02  1.250000000E+02  0.00000E+00  9.000E+00
      25     1     1     2     0     0 -1.593084186E+02  9.037946157E+01  2.178572953E+02  3.108607734E+02  1.250000000E+02  0.00000E+00  9.000E+00
       2     1     1     2   502     0 -2.756037916E+01 -5.110383112E+01 -8.537881252E+01  1.032507515E+02  9.536743164E-07  0.00000E+00  9.000E+00
#rwgt            1           1   4.4380676787841106E-002           4      459106           0
</event>
<event>
      5   9999  3.79277E-02  2.70407E+01 -1.00000E+00  1.56240E-01
      21    -1     0     0   511   501  0.000000000E+00  0.000000000E+00  5.198497500E+02  5.198497500E+02  0.000000000E+00  0.00000E+00  9.000E+00
      21    -1     0     0   501   502  0.000000000E+00  0.000000000E+00 -3.608247707E+02  3.608247707E+02  0.000000000E+00  0.00000E+00  9.000E+00
      25     1     1     2     0     0 -2.338242951E+01  3.472698278E+02  1.328546163E+02  3.929610927E+02  1.250000000E+02  0.00000E+00  9.000E+00
      25     1     1     2     0     0  3.550652191E+01 -3.714402338E+02 -5.939993892E+01  3.979722517E+02  1.250000000E+02  0.00000E+00  9.000E+00
      21     1     1     2   511   502 -1.212409240E+01  2.417040594E+01  8.557030192E+01  8.974117623E+01  0.000000000E+00  0.00000E+00  9.000E+00
#rwgt            1           1   4.5414029720046260E-002           4      459216           0
</event>
<event>
      5   9999  3.79277E-02  1.08745E+01 -1.00000E+00  1.91640E-01
      21    -1     0     0   502   501  0.000000000E+00  0.000000000E+00  1.604165348E+03  1.604165348E+03  0.000000000E+00  0.00000E+00  9.000E+00
      21    -1     0     0   512   502  0.000000000E+00  0.000000000E+00 -9.067245792E+01  9.067245792E+01  0.000000000E+00  0.00000E+00  9.000E+00
      25     1     1     2     0     0  2.127037549E+02 -1.817002915E+02  5.882238610E+02  6.632421835E+02  1.250000000E+02  0.00000E+00  9.000E+00
      25     1     1     2     0     0 -2.167291533E+02  1.918022893E+02  9.519451208E+02  1.002788192E+03  1.250000000E+02  0.00000E+00  9.000E+00
      21     1     1     2   512   501  4.025398403E+00 -1.010199782E+01 -2.667609183E+01  2.880743077E+01  3.371747881E-07  0.00000E+00  9.000E+00
#rwgt            1           1   3.5733147755939172E-002           4      459388           0
</event>
<event>
      5   9999  3.79277E-02  3.95760E+01 -1.00000E+00  1.45128E-01
      -2    -1     0     0     0   501  0.000000000E+00  0.000000000E+00  5.284729881E+02  5.284729881E+02  0.000000000E+00  0.00000E+00  9.000E+00
      21    -1     0     0   501   502  0.000000000E+00  0.000000000E+00 -1.419227634E+02  1.419227634E+02  0.000000000E+00  0.00000E+00  9.000E+00
      25     1     1     2     0     0 -1.774277874E+02 -1.239724676E+02  1.430022956E+02  2.879660553E+02  1.250000000E+02  0.00000E+00  9.000E+00
      25     1     1     2     0     0  1.564929122E+02  1.575580568E+02  2.033884011E+02  3.260466447E+02  1.250000000E+02  0.00000E+00  9.000E+00
      -2     1     1     2     0   502  2.093487523E+01 -3.358558924E+01  4.015952807E+01  5.638305153E+01  0.000000000E+00  0.00000E+00  9.000E+00
#rwgt            1           1   2.0136083421311124E-002           4      459589           0
</event>
<event>
      5   9999  3.79277E-02  5.08504E+01 -1.00000E+00  1.38659E-01
      21    -1     0     0   511   501  0.000000000E+00  0.000000000E+00  5.934783757E+02  5.934783757E+02  0.000000000E+00  0.00000E+00  9.000E+00
      21    -1     0     0   501   502  0.000000000E+00  0.000000000E+00 -1.324123614E+02  1.324123614E+02  0.000000000E+00  0.00000E+00  9.000E+00
      25     1     1     2     0     0  2.011224704E+01  9.029123268E+01 -3.946345283E+01  1.604349503E+02  1.250000000E+02  0.00000E+00  9.000E+00
      25     1     1     2     0     0  3.009384099E+01 -9.836028907E+01  1.848757979E+02  2.457324691E+02  1.250000000E+02  0.00000E+00  9.000E+00
      21     1     1     2   511   502 -5.020608803E+01  8.069056387E+00  3.156536693E+02  3.197233177E+02  5.394796609E-06  0.00000E+00  9.000E+00
#rwgt            1           1   3.9459255234839938E-002           4      459787           0
</event>
<event>
      5   9999  3.79277E-02  6.54035E+01 -1.00000E+00  1.32732E-01
      21    -1     0     0   502   501  0.000000000E+00  0.000000000E+00  8.935319471E+02  8.935319471E+02  0.000000000E+00  0.00000E+00  9.000E+00
       3    -1     0     0   501     0  0.000000000E+00  0.000000000E+00 -2.299036269E+02  2.299036269E+02  0.000000000E+00  0.00000E+00  9.000E+00
      25     1     1     2     0     0 -5.110616454E+01  1.767899993E+02  3.581051073E+02  4.215813228E+02  1.250000000E+02  0.00000E+00  9.000E+00
      25     1     1     2     0     0  1.151906652E+02 -1.637213392E+02  4.694098362E+02  5.253990489E+02  1.250000000E+02  0.00000E+00  9.000E+00
       3     1     1     2   502     0 -6.408450067E+01 -1.306866011E+01 -1.638866233E+02  1.764552022E+02  4.672030912E-06  0.00000E+00  9.000E+00
#rwgt            1           1   2.5088908788901926E-002           4      459858           0
</event>
<event>
      5   9999  3.79277E-02  3.00800E+01 -1.00000E+00  1.52959E-01
      21    -1     0     0   511   501  0.000000000E+00  0.000000000E+00  5.980138438E+02  5.980138438E+02  0.000000000E+00  0.00000E+00  9.000E+00
      21    -1     0     0   501   502  0.000000000E+00  0.000000000E+00 -7.277994796E+01  7.277994796E+01  0.000000000E+00  0.00000E+00  9.000E+00
      25     1     1     2     0     0 -4.154250253E+01  6.666726988E+00  4.564374186E+02  4.751108733E+02  1.250000000E+02  0.00000E+00  9.000E+00
      25     1     1     2     0     0  5.811001782E+01  1.843958208E+01  2.310795492E+01  1.409814525E+02  1.250000000E+02  0.00000E+00  9.000E+00
      21     1     1     2   511   502 -1.656751529E+01 -2.510630906E+01  4.568852228E+01  5.470146603E+01  6.743495762E-07  0.00000E+00  9.000E+00
#rwgt            1           1   4.7575726632828011E-002           4      459947           0
</event>
<event>
      5   9999  3.79277E-02  4.47097E+01 -1.00000E+00  1.41905E-01
      21    -1     0     0   502   501  0.000000000E+00  0.000000000E+00  3.692617552E+02  3.692617552E+02  0.000000000E+00  0.00000E+00  9.000E+00
      21    -1     0     0   512   502  0.000000000E+00  0.000000000E+00 -2.095237339E+02  2.095237339E+02  0.000000000E+00  0.00000E+00  9.000E+00
      25     1     1     2     0     0  1.336044945E+02  1.602541867E+02  1.426690427E+01  2.436393028E+02  1.250000000E+02  0.00000E+00  9.000E+00
      25     1     1     2     0     0 -1.428372877E+02 -1.165082225E+02  1.735509005E+02  2.823500872E+02  1.250000000E+02  0.00000E+00  9.000E+00
      21     1     1     2   512   501  9.232793239E+00 -4.374596424E+01 -2.807978342E+01  5.279609924E+01  5.840038640E-07  0.00000E+00  9.000E+00
#rwgt            1           1   4.6300166673001124E-002           4      460193           0
</event>
<event>
      5   9999  3.79277E-02  2.05632E+02 -1.00000E+00  1.11211E-01
      21    -1     0     0   502   501  0.000000000E+00  0.000000000E+00  1.632841202E+03  1.632841202E+03  0.000000000E+00  0.00000E+00  9.000E+00
      21    -1     0     0   511   502  0.000000000E+00  0.000000000E+00 -3.071833523E+02  3.071833523E+02  0.000000000E+00  0.00000E+00  9.000E+00
      25     1     1     2     0     0  5.829140060E+01 -1.742369170E+02  3.918892710E+02  4.505092577E+02  1.250000000E+02  0.00000E+00  9.000E+00
      25     1     1     2     0     0 -2.299330208E+02  6.099462131E+01  1.155952349E+03  1.186777305E+03  1.250000000E+02  0.00000E+00  9.000E+00
      21     1     1     2   511   501  1.716416202E+02  1.132422957E+02 -2.221837709E+02  3.027379913E+02  2.697398305E-06  0.00000E+00  9.000E+00
#rwgt            1           1   1.5828169672358762E-002           4      460403           0
</event>
<event>
      5   9999  3.79277E-02  4.37199E+01 -1.00000E+00  1.42485E-01
      21    -1     0     0   512   501  0.000000000E+00  0.000000000E+00  6.420265317E+01  6.420265317E+01  0.000000000E+00  0.00000E+00  9.000E+00
      21    -1     0     0   501   502  0.000000000E+00  0.000000000E+00 -9.120323038E+02  9.120323038E+02  0.000000000E+00  0.00000E+00  9.000E+00
      25     1     1     2     0     0  1.342094724E+02 -7.932702055E+00 -2.916195767E+02  3.445897383E+02  1.250000000E+02  0.00000E+00  9.000E+00
      25     1     1     2     0     0 -9.203614342E+01 -3.592953921E+00 -5.659421315E+02  5.868552268E+02  1.250000000E+02  0.00000E+00  9.000E+00
      21     1     1     2   512   502 -4.217332900E+01  1.152565598E+01  9.732057571E+00  4.478999184E+01  1.105501472E-06  0.00000E+00  9.000E+00
#rwgt            1           1   4.4314554415129631E-002           4      460599           0
</event>
<event>
      5   9999  3.79277E-02  1.92979E+01 -1.00000E+00  1.67660E-01
      21    -1     0     0   502   511  0.000000000E+00  0.000000000E+00  1.166209630E+02  1.166209630E+02  0.000000000E+00  0.00000E+00  9.000E+00
      21    -1     0     0   501   502  0.000000000E+00  0.000000000E+00 -6.850739951E+02  6.850739951E+02  0.000000000E+00  0.00000E+00  9.000E+00
      25     1     1     2     0     0 -2.616074000E+01 -1.303994731E+02  4.761385035E+00  1.825817014E+02  1.250000000E+02  0.00000E+00  9.000E+00
      25     1     1     2     0     0  9.418903030E+00  1.399973073E+02 -5.691792723E+02  5.993980362E+02  1.250000000E+02  0.00000E+00  9.000E+00
      21     1     1     2   501   511  1.674183697E+01 -9.597834200E+00 -4.035144950E+00  1.971522055E+01  1.976862425E-07  0.00000E+00  9.000E+00
#rwgt            1           1   4.4265242339450936E-002           4      460675           0
</event>
<event>
      5   9999  3.79277E-02  2.45258E+01 -1.00000E+00  1.59376E-01
      21    -1     0     0   502   501  0.000000000E+00  0.000000000E+00  3.993145461E+02  3.993145461E+02  0.000000000E+00  0.00000E+00  9.000E+00
      21    -1     0     0   501   512  0.000000000E+00  0.000000000E+00 -7.793818005E+01  7.793818005E+01  0.000000000E+00  0.00000E+00  9.000E+00
      25     1     1     2     0     0  2.162715979E+01 -9.996042571E+01  2.309832676E+02  2.818476374E+02  1.250000000E+02  0.00000E+00  9.000E+00
      25     1     1     2     0     0 -1.064752099E+01  7.802952530E+01  6.988433950E+01  1.634343826E+02  1.250000000E+02  0.00000E+00  9.000E+00
      21     1     1     2   502   512 -1.097963880E+01  2.193090041E+01  2.050875893E+01  3.197070618E+01  2.384185791E-07  0.00000E+00  9.000E+00
#rwgt            1           1   2.3529915470819462E-002           4      460840           0
</event>
<event>
      5   9999  3.79277E-02  7.20505E+01 -1.00000E+00  1.30589E-01
      21    -1     0     0   502   511  0.000000000E+00  0.000000000E+00  3.188911478E+02  3.188911478E+02  0.000000000E+00  0.00000E+00  9.000E+00
      21    -1     0     0   501   502  0.000000000E+00  0.000000000E+00 -2.657034539E+02  2.657034539E+02  0.000000000E+00  0.00000E+00  9.000E+00
      25     1     1     2     0     0 -1.383629735E+02 -1.418400761E+02 -1.943418923E+01  2.350863827E+02  1.250000000E+02  0.00000E+00  9.000E+00
      25     1     1     2     0     0  1.874066967E+02  8.905756275E+01 -6.727682245E+00  2.423278382E+02  1.250000000E+02  0.00000E+00  9.000E+00
      21     1     1     2   501   511 -4.904372318E+01  5.278251335E+01  7.934956538E+01  1.071803808E+02  9.536743164E-07  0.00000E+00  9.000E+00
#rwgt            1           1   3.4304246347100421E-002           4      461006           0
</event>
<event>
      5   9999  3.79277E-02  1.00583E+01 -1.00000E+00  1.95466E-01
      21    -1     0     0   502   501  0.000000000E+00  0.000000000E+00  2.612925012E+01  2.612925012E+01  0.000000000E+00  0.00000E+00  9.000E+00
       2    -1     0     0   501     0  0.000000000E+00  0.000000000E+00 -2.116721789E+03  2.116721789E+03  0.000000000E+00  0.00000E+00  9.000E+00
      25     1     1     2     0     0  1.304551732E+00  1.128526698E+02 -5.020451531E+02  5.295391985E+02  1.250000000E+02  0.00000E+00  9.000E+00
      25     1     1     2     0     0 -1.126562101E+01 -1.114572272E+02 -5.576237951E+02  5.823391834E+02  1.250000000E+02  0.00000E+00  9.000E+00
       2     1     1     2   502     0  9.961069277E+00 -1.395442606E+00 -1.030923591E+03  1.030972657E+03  0.000000000E+00  0.00000E+00  9.000E+00
#rwgt            1           1   3.9902772289367096E-002           4      461078           0
</event>
<event>
      5   9999 -3.79277E-02  1.06945E+02 -1.00000E+00  1.22530E-01
      21    -1     0     0   511   501  0.000000000E+00  0.000000000E+00  2.516591717E+03  2.516591717E+03  0.000000000E+00  0.00000E+00  9.000E+00
      21    -1     0     0   501   502  0.000000000E+00  0.000000000E+00 -3.263717892E+01  3.263717892E+01  0.000000000E+00  0.00000E+00  9.000E+00
      25     1     1     2     0     0 -1.152058559E+02  3.222503125E+01  4.563527537E+02  4.880508966E+02  1.250000000E+02  0.00000E+00  9.000E+00
      25     1     1     2     0     0  1.267703724E+02  7.409328864E+01  6.147630788E+02  6.442974358E+02  1.250000000E+02  0.00000E+00  9.000E+00
      21     1     1     2   511   502 -1.156451652E+01 -1.063183199E+02  1.412838705E+03  1.416880563E+03  0.000000000E+00  0.00000E+00  9.000E+00
#rwgt            1           1 -0.19766840502543315                4      461276           0
</event>
<event>
      5   9999  3.79277E-02  2.87844E+01 -1.00000E+00  1.54298E-01
      21    -1     0     0   502   501  0.000000000E+00  0.000000000E+00  3.281927440E+02  3.281927440E+02  0.000000000E+00  0.00000E+00  9.000E+00
       1    -1     0     0   501     0  0.000000000E+00  0.000000000E+00 -1.365992601E+03  1.365992601E+03  0.000000000E+00  0.00000E+00  9.000E+00
      25     1     1     2     0     0  1.149859706E+02  1.462935079E+02 -3.071113038E+02  3.802182489E+02  1.250000000E+02  0.00000E+00  9.000E+00
      25     1     1     2     0     0 -1.412528743E+02 -1.345210311E+02  2.453836158E+02  3.374705931E+02  1.250000000E+02  0.00000E+00  9.000E+00
       1     1     1     2   502     0  2.626690367E+01 -1.177247678E+01 -9.760721689E+02  9.764965030E+02  1.078959322E-05  0.00000E+00  9.000E+00
#rwgt            1           1   3.7978728848407022E-002           4      461326           0
</event>
<event>
      5   9999  3.79277E-02  2.53357E+01 -1.00000E+00  1.58318E-01
      21    -1     0     0   511   501  0.000000000E+00  0.000000000E+00  2.194154798E+02  2.194154798E+02  0.000000000E+00  0.00000E+00  9.000E+00
      21    -1     0     0   501   502  0.000000000E+00  0.000000000E+00 -4.615482272E+02  4.615482272E+02  0.000000000E+00  0.00000E+00  9.000E+00
      25     1     1     2     0     0  2.492011679E+02  1.409408357E+02 -1.268155036E+02  3.371538420E+02  1.250000000E+02  0.00000E+00  9.000E+00
      25     1     1     2     0     0 -2.246509649E+02 -1.472007816E+02 -1.167807631E+02  3.184318966E+02  1.250000000E+02  0.00000E+00  9.000E+00
      21     1     1     2   511   502 -2.455020297E+01  6.259945863E+00  1.463519236E+00  2.537796833E+01  2.980232239E-07  0.00000E+00  9.000E+00
#rwgt            1           1   3.3438257199182836E-002           4      461611           0
</event>
<event>
      5   9999  3.79277E-02  2.02996E+02 -1.00000E+00  1.11413E-01
      21    -1     0     0   502   501  0.000000000E+00  0.000000000E+00  3.661283622E+02  3.661283622E+02  0.000000000E+00  0.00000E+00  9.000E+00
      21    -1     0     0   501   512  0.000000000E+00  0.000000000E+00 -5.057035200E+02  5.057035200E+02  0.000000000E+00  0.00000E+00  9.000E+00
      25     1     1     2     0     0  9.312590432E+01  2.407531675E+02 -1.329983272E+02  3.161456575E+02  1.250000000E+02  0.00000E+00  9.000E+00
      25     1     1     2     0     0  2.326321487E+01 -7.443742194E+01  2.114958617E+02  2.577549349E+02  1.250000000E+02  0.00000E+00  9.000E+00
      21     1     1     2   502   512 -1.163891192E+02 -1.663157456E+02 -2.180726923E+02  2.979312898E+02  2.697398305E-06  0.00000E+00  9.000E+00
#rwgt            1           1   3.4914673196567048E-002           4      461937           0
</event>
<event>
      5   9999  3.79277E-02  4.91364E+01 -1.00000E+00  1.39509E-01
      21    -1     0     0   502   501  0.000000000E+00  0.000000000E+00  9.964189498E+01  9.964189498E+01  0.000000000E+00  0.00000E+00  9.000E+00
      21    -1     0     0   501   511  0.000000000E+00  0.000000000E+00 -6.216969450E+02  6.216969450E+02  0.000000000E+00  0.00000E+00  9.000E+00
      25     1     1     2     0     0  1.066234727E+02  1.289078794E+02 -1.525897861E+02  2.586396125E+02  1.250000000E+02  0.00000E+00  9.000E+00
      25     1     1     2     0     0 -6.205110769E+01 -1.495885966E+02 -1.994042390E+02  2.856818838E+02  1.250000000E+02  0.00000E+00  9.000E+00
      21     1     1     2   502   511 -4.457236505E+01  2.068071722E+01 -1.700610248E+02  1.770173437E+02  1.907348633E-06  0.00000E+00  9.000E+00
#rwgt            1           1   5.8701875760640551E-002           4      462062           0
</event>
<event>
      5   9999  3.79277E-02  1.14299E+02 -1.00000E+00  1.21272E-01
      21    -1     0     0   502   501  0.000000000E+00  0.000000000E+00  1.001573800E+02  1.001573800E+02  0.000000000E+00  0.00000E+00  9.000E+00
      21    -1     0     0   501   512  0.000000000E+00  0.000000000E+00 -6.734997257E+02  6.734997257E+02  0.000000000E+00  0.00000E+00  9.000E+00
      25     1     1     2     0     0  9.306902371E+00 -1.463006185E+02 -9.420068470E+01  2.144510630E+02  1.250000000E+02  0.00000E+00  9.000E+00
      25     1     1     2     0     0  8.645528390E+01  8.389989849E+01 -3.036581562E+02  3.497813387E+02  1.250000000E+02  0.00000E+00  9.000E+00
      21     1     1     2   502   512 -9.576218627E+01  6.240072005E+01 -1.754835049E+02  2.094247040E+02  3.303624740E-06  0.00000E+00  9.000E+00
#rwgt            1           1   3.7843553253403509E-002           4      462214           0
</event>
<event>
      5   9999  3.79277E-02  1.16158E+02 -1.00000E+00  1.20971E-01
      21    -1     0     0   502   511  0.000000000E+00  0.000000000E+00  1.919691296E+02  1.919691296E+02  0.000000000E+00  0.00000E+00  9.000E+00
      21    -1     0     0   501   502  0.000000000E+00  0.000000000E+00 -1.343211664E+03  1.343211664E+03  0.000000000E+00  0.00000E+00  9.000E+00
      25     1     1     2     0     0  1.310237532E+02 -1.617391544E+02 -2.001713490E+02  3.146749862E+02  1.250000000E+02  0.00000E+00  9.000E+00
      25     1     1     2     0     0 -7.510741008E+01  5.992528958E+01 -1.053745246E+03  1.065474640E+03  1.250000000E+02  0.00000E+00  9.000E+00
      21     1     1     2   501   511 -5.591634310E+01  1.018138648E+02  1.026740604E+02  1.550311684E+02  6.180515955E-06  0.00000E+00  9.000E+00
#rwgt            1           1   4.4228472917085988E-002           4      462328           0
</event>
<event>
      5   9999  3.79277E-02  5.16080E+01 -1.00000E+00  1.38296E-01
      21    -1     0     0   502   501  0.000000000E+00  0.000000000E+00  8.194532540E+01  8.194532540E+01  0.000000000E+00  0.00000E+00  9.000E+00
      21    -1     0     0   512   502  0.000000000E+00  0.000000000E+00 -1.824435626E+03  1.824435626E+03  0.000000000E+00  0.00000E+00  9.000E+00
      25     1     1     2     0     0 -2.560526257E+01 -8.887485463E+00  1.492606955E+01  1.287726851E+02  1.250000000E+02  0.00000E+00  9.000E+00
      25     1     1     2     0     0  7.104968924E+01 -1.557044211E+01 -5.379661576E+02  5.570664984E+02  1.250000000E+02  0.00000E+00  9.000E+00
      21     1     1     2   512   501 -4.544442667E+01  2.445792758E+01 -1.219450213E+03  1.220541768E+03  1.525878906E-05  0.00000E+00  9.000E+00
#rwgt            1           1   3.5391262925155868E-002           4      462413           0
</event>
<event>
      5   9999  3.79277E-02  4.68400E+01 -1.00000E+00  1.40713E-01
      21    -1     0     0   502   501  0.000000000E+00  0.000000000E+00  1.082442529E+03  1.082442529E+03  0.000000000E+00  0.00000E+00  9.000E+00
      21    -1     0     0   501   511  0.000000000E+00  0.000000000E+00 -4.772801491E+01  4.772801491E+01  0.000000000E+00  0.00000E+00  9.000E+00
      25     1     1     2     0     0 -1.373888532E+02  5.603309868E+01  3.378875482E+02  3.896259749E+02  1.250000000E+02  0.00000E+00  9.000E+00
      25     1     1     2     0     0  1.019544545E+02 -2.540000124E+01  6.628799500E+02  6.826966376E+02  1.250000000E+02  0.00000E+00  9.000E+00
      21     1     1     2   502   511  3.543439867E+01 -3.063309744E+01  3.394701573E+01  5.784793121E+01  8.259061849E-07  0.00000E+00  9.000E+00
#rwgt            1           1   4.1085024848996309E-002           4      462666           0
</event>
<event>
      5   9999  3.79277E-02  1.91136E+01 -1.00000E+00  1.68010E-01
      21    -1     0     0   502   501  0.000000000E+00  0.000000000E+00  1.141569981E+02  1.141569981E+02  0.000000000E+00  0.00000E+00  9.000E+00
      21    -1     0     0   512   502  0.000000000E+00  0.000000000E+00 -3.971181636E+02  3.971181636E+02  0.000000000E+00  0.00000E+00  9.000E+00
      25     1     1     2     0     0  9.600595967E+01  2.538451927E+01  1.573786970E+01  1.604188226E+02  1.250000000E+02  0.00000E+00  9.000E+00
      25     1     1     2     0     0 -1.016458249E+02 -7.121991176E+00 -2.845619650E+02  3.270827241E+02  1.250000000E+02  0.00000E+00  9.000E+00
      21     1     1     2   512   501  5.639865239E+00 -1.826252809E+01 -1.413707024E+01  2.377361494E+01  1.685873940E-07  0.00000E+00  9.000E+00
#rwgt            1           1   3.6743901602057601E-002           4      462825           0
</event>
<event>
      5   9999  3.79277E-02  7.01873E+01 -1.00000E+00  1.31162E-01
      21    -1     0     0   502   511  0.000000000E+00  0.000000000E+00  1.712920540E+02  1.712920540E+02  0.000000000E+00  0.00000E+00  9.000E+00
      21    -1     0     0   501   502  0.000000000E+00  0.000000000E+00 -3.856842436E+02  3.856842436E+02  0.000000000E+00  0.00000E+00  9.000E+00
      25     1     1     2     0     0  3.785411535E+01  1.495790140E+02 -8.311353082E+01  2.152665196E+02  1.250000000E+02  0.00000E+00  9.000E+00
      25     1     1     2     0     0  2.999968929E+01 -1.316315244E+02 -1.791110030E+02  2.567734234E+02  1.250000000E+02  0.00000E+00  9.000E+00
      21     1     1     2   501   511 -6.785380464E+01 -1.794748952E+01  4.783234415E+01  8.493635459E+01  1.168007728E-06  0.00000E+00  9.000E+00
#rwgt            1           1   6.4369934981165500E-002           4      463221           0
</event>
<event>
      5   9999  3.79277E-02  4.32921E+02 -1.00000E+00  1.00662E-01
       2    -1     0     0   502     0  0.000000000E+00  0.000000000E+00  1.327091061E+03  1.327091061E+03  0.000000000E+00  0.00000E+00  9.000E+00
      21    -1     0     0   501   502  0.000000000E+00  0.000000000E+00 -7.508211409E+02  7.508211409E+02  0.000000000E+00  0.00000E+00  9.000E+00
      25     1     1     2     0     0 -4.207700029E+02 -4.259265691E+02 -3.481466651E+00  6.116354782E+02  1.250000000E+02  0.00000E+00  9.000E+00
      25     1     1     2     0     0  1.203528445E+02  7.376471646E+02  1.921607573E+01  7.580253321E+02  1.250000000E+02  0.00000E+00  9.000E+00
       2     1     1     2   501     0  3.004171584E+02 -3.117205955E+02  5.605353113E+02  7.082513918E+02  1.078959322E-05  0.00000E+00  9.000E+00
#rwgt            2          18   8.8535011705487287E-004           4      463302           0
</event>
<event>
      5   9999  3.79277E-02  4.58204E+01 -1.00000E+00  1.41274E-01
      21    -1     0     0   502   501  0.000000000E+00  0.000000000E+00  3.140311668E+02  3.140311668E+02  0.000000000E+00  0.00000E+00  9.000E+00
      21    -1     0     0   511   502  0.000000000E+00  0.000000000E+00 -4.687695154E+02  4.687695154E+02  0.000000000E+00  0.00000E+00  9.000E+00
      25     1     1     2     0     0 -1.978453422E+02  1.296800872E+02  1.653412867E+02  3.145193882E+02  1.250000000E+02  0.00000E+00  9.000E+00
      25     1     1     2     0     0  1.522089833E+02 -1.255775583E+02 -1.192000051E+02  2.622421381E+02  1.250000000E+02  0.00000E+00  9.000E+00
      21     1     1     2   511   501  4.563635895E+01 -4.102528869E+00 -2.008796302E+02  2.060391560E+02  2.697398305E-06  0.00000E+00  9.000E+00
#rwgt            1           1   3.9056642095866921E-002           4      463366           0
</event>
<event>
      5   9999  3.79277E-02  1.76376E+02 -1.00000E+00  1.13672E-01
      21    -1     0     0   502   512  0.000000000E+00  0.000000000E+00  3.428258570E+03  3.428258570E+03  0.000000000E+00  0.00000E+00  9.000E+00
      21    -1     0     0   501   502  0.000000000E+00  0.000000000E+00 -2.690311631E+01  2.690311631E+01  0.000000000E+00  0.00000E+00  9.000E+00
      25     1     1     2     0     0 -1.079971287E+02  1.053592546E+02  5.968678583E+02  6.282039419E+02  1.250000000E+02  0.00000E+00  9.000E+00
      25     1     1     2     0     0  7.108014129E+01  6.711003896E+01  1.810689100E+03  1.817629270E+03  1.250000000E+02  0.00000E+00  9.000E+00
      21     1     1     2   501   512  3.691698740E+01 -1.724692936E+02  9.937984954E+02  1.009328475E+03  1.868812365E-05  0.00000E+00  9.000E+00
#rwgt            1           1   9.7851442505651587E-002           4      463500           0
</event>
<event>
      5   9999  3.79277E-02  3.79147E+01 -1.00000E+00  1.46297E-01
      21    -1     0     0   502   511  0.000000000E+00  0.000000000E+00  3.857690965E+02  3.857690965E+02  0.000000000E+00  0.00000E+00  9.000E+00
      21    -1     0     0   501   502  0.000000000E+00  0.000000000E+00 -2.853503389E+02  2.853503389E+02  0.000000000E+00  0.00000E+00  9.000E+00
      25     1     1     2     0     0  2.663079437E+02 -3.034763510E+01 -8.558896436E+01  3.078820726E+02  1.250000000E+02  0.00000E+00  9.000E+00
      25     1     1     2     0     0 -2.335715047E+02  4.947490818E+01  1.402305187E+02  3.037976510E+02  1.250000000E+02  0.00000E+00  9.000E+00
      21     1     1     2   501   511 -3.273643894E+01 -1.912727308E+01  4.577720321E+01  5.943971184E+01  0.000000000E+00  0.00000E+00  9.000E+00
#rwgt            2          11   2.2398663167712708E-003           4      463533           0
</event>
<event>
      5   9999  3.79277E-02  5.81163E+01 -1.00000E+00  1.35448E-01
      21    -1     0     0   502   501  0.000000000E+00  0.000000000E+00  9.837722187E+02  9.837722187E+02  0.000000000E+00  0.00000E+00  9.000E+00
      21    -1     0     0   512   502  0.000000000E+00  0.000000000E+00 -3.277553550E+02  3.277553550E+02  0.000000000E+00  0.00000E+00  9.000E+00
      25     1     1     2     0     0 -7.237129331E+01  1.348926966E+00  6.707059080E+02  6.860836966E+02  1.250000000E+02  0.00000E+00  9.000E+00
      25     1     1     2     0     0  6.126385453E+01 -5.839391546E+01  2.837458771E+02  3.214029123E+02  1.250000000E+02  0.00000E+00  9.000E+00
      21     1     1     2   512   501  1.110743878E+01  5.704498849E+01 -2.984349215E+02  3.040409648E+02  0.000000000E+00  0.00000E+00  9.000E+00
#rwgt            1           1   4.5461307877937035E-002           4      463643           0
</event>
<event>
      5   9999  3.79277E-02  1.18660E+01 -1.00000E+00  1.87542E-01
      21    -1     0     0   502   501  0.000000000E+00  0.000000000E+00  6.795453197E+02  6.795453197E+02  0.000000000E+00  0.00000E+00  9.000E+00
       1    -1     0     0   501     0  0.000000000E+00  0.000000000E+00 -1.531749296E+02  1.531749296E+02  0.000000000E+00  0.00000E+00  9.000E+00
      25     1     1     2     0     0 -6.195853758E+01  1.554636304E+02  1.499048955E+02  2.571075231E+02  1.250000000E+02  0.00000E+00  9.000E+00
      25     1     1     2     0     0  5.295158767E+01 -1.631887260E+02  4.518884505E+02  4.992620581E+02  1.250000000E+02  0.00000E+00  9.000E+00
       1     1     1     2   502     0  9.006949907E+00  7.725095610E+00 -7.542295585E+01  7.635066809E+01  1.651812370E-06  0.00000E+00  9.000E+00
#rwgt            1           1   3.7974268216606891E-002           4      463783           0
</event>
<event>
      5   9999  3.79277E-02  1.63894E+02 -1.00000E+00  1.14889E-01
      21    -1     0     0   502   501  0.000000000E+00  0.000000000E+00  5.149195666E+02  5.149195666E+02  0.000000000E+00  0.00000E+00  9.000E+00
      21    -1     0     0   511   502  0.000000000E+00  0.000000000E+00 -5.092352961E+02  5.092352961E+02  0.000000000E+00  0.00000E+00  9.000E+00
      25     1     1     2     0     0 -6.444346230E+01  2.857208404E+02  2.337788192E+02  3.950530278E+02  1.250000000E+02  0.00000E+00  9.000E+00
      25     1     1     2     0     0  1.744129898E+02 -1.641968881E+02  7.857118497E+01  2.813875267E+02  1.250000000E+02  0.00000E+00  9.000E+00
      21     1     1     2   511   501 -1.099695275E+02 -1.215239523E+02 -3.066657336E+02  3.477143082E+02  5.394796609E-06  0.00000E+00  9.000E+00
#rwgt            2          11   2.6976605774727287E-003           4      464168           0
</event>
<event>
      5   9999  3.79277E-02  3.34725E+01 -1.00000E+00  1.49808E-01
      21    -1     0     0   502   501  0.000000000E+00  0.000000000E+00  1.272314699E+02  1.272314699E+02  0.000000000E+00  0.00000E+00  9.000E+00
      21    -1     0     0   501   512  0.000000000E+00  0.000000000E+00 -3.002415651E+02  3.002415651E+02  0.000000000E+00  0.00000E+00  9.000E+00
      25     1     1     2     0     0  6.795582654E+01 -8.347476074E+01  1.378060688E+01  1.655322783E+02  1.250000000E+02  0.00000E+00  9.000E+00
      25     1     1     2     0     0 -4.147183931E+01  6.300506593E+01 -1.712520698E+02  2.250373818E+02  1.250000000E+02  0.00000E+00  9.000E+00
      21     1     1     2   502   512 -2.648398723E+01  2.046969481E+01 -1.553863235E+01  3.690337492E+01  2.384185791E-07  0.00000E+00  9.000E+00
#rwgt            1           1   4.9958978394781320E-002           4      464203           0
</event>
<event>
      5   9999  3.79277E-02  7.99560E+01 -1.00000E+00  1.28361E-01
      21    -1     0     0   511   501  0.000000000E+00  0.000000000E+00  8.499654770E+02  8.499654770E+02  0.000000000E+00  0.00000E+00  9.000E+00
      21    -1     0     0   501   502  0.000000000E+00  0.000000000E+00 -1.172346773E+02  1.172346773E+02  0.000000000E+00  0.00000E+00  9.000E+00
      25     1     1     2     0     0 -3.474332362E+01 -4.281191217E+01 -3.294485132E+01  1.405358374E+02  1.250000000E+02  0.00000E+00  9.000E+00
      25     1     1     2     0     0  1.069324367E+02  8.436090502E+00  2.182463025E+02  2.734267035E+02  1.250000000E+02  0.00000E+00  9.000E+00
      21     1     1     2   511   502 -7.218911311E+01  3.437582167E+01  5.474293486E+02  5.532376134E+02  1.078959322E-05  0.00000E+00  9.000E+00
#rwgt            1           1   3.1000900080701572E-002           4      464357           0
</event>
<event>
      5   9999  3.79277E-02  5.70656E+01 -1.00000E+00  1.35877E-01
      21    -1     0     0   502   501  0.000000000E+00  0.000000000E+00  3.719965353E+02  3.719965353E+02  0.000000000E+00  0.00000E+00  9.000E+00
      21    -1     0     0   501   512  0.000000000E+00  0.000000000E+00 -2.183940475E+02  2.183940475E+02  0.000000000E+00  0.00000E+00  9.000E+00
      25     1     1     2     0     0 -1.196643185E+02 -4.933501768E+01  6.664255599E+00  1.800636148E+02  1.250000000E+02  0.00000E+00  9.000E+00
      25     1     1     2     0     0  7.488323487E+01  8.470651011E+01  2.446996749E+02  2.971289663E+02  1.250000000E+02  0.00000E+00  9.000E+00
      21     1     1     2   502   512  4.478108362E+01 -3.537149242E+01 -9.776144258E+01  1.131980017E+02  2.336015456E-06  0.00000E+00  9.000E+00
#rwgt            1           1   2.8191395894504472E-002           4      464507           0
</event>
<event>
      5   9999  3.79277E-02  4.70091E+01 -1.00000E+00  1.40621E-01
      21    -1     0     0   502   511  0.000000000E+00  0.000000000E+00  4.845002473E+02  4.845002473E+02  0.000000000E+00  0.00000E+00  9.000E+00
      21    -1     0     0   501   502  0.000000000E+00  0.000000000E+00 -1.517377440E+02  1.517377440E+02  0.000000000E+00  0.00000E+00  9.000E+00
      25     1     1     2     0     0 -8.255234083E+01 -3.276531389E+01 -6.513677000E+01  1.666020815E+02  1.250000000E+02  0.00000E+00  9.000E+00
      25     1     1     2     0     0  9.646399711E+01  7.766879329E+01  2.007151007E+02  2.669256373E+02  1.250000000E+02  0.00000E+00  9.000E+00
      21     1     1     2   501   511 -1.391165629E+01 -4.490347940E+01  1.971841726E+02  2.027102725E+02  0.000000000E+00  0.00000E+00  9.000E+00
#rwgt            1           1   4.5464949303418080E-002           4      464707           0
</event>
<event>
      5   9999  3.79277E-02  6.58325E+01 -1.00000E+00  1.32585E-01
      21    -1     0     0   502   501  0.000000000E+00  0.000000000E+00  2.456307370E+02  2.456307370E+02  0.000000000E+00  0.00000E+00  9.000E+00
      21    -1     0     0   512   502  0.000000000E+00  0.000000000E+00 -2.876148930E+02  2.876148930E+02  0.000000000E+00  0.00000E+00  9.000E+00
      25     1     1     2     0     0 -1.311639913E+02 -6.144339379E+00  1.150673093E+02  2.147259443E+02  1.250000000E+02  0.00000E+00  9.000E+00
      25     1     1     2     0     0  7.393000746E+01  3.867407390E+01 -2.253287519E+00  1.503043822E+02  1.250000000E+02  0.00000E+00  9.000E+00
      21     1     1     2   512   501  5.723398381E+01 -3.252973452E+01 -1.547981777E+02  1.682153036E+02  1.907348633E-06  0.00000E+00  9.000E+00
#rwgt            1           1   2.1852633296058282E-002           4      464867           0
</event>
<event>
      5   9999 -3.79277E-02  8.62727E+01 -1.00000E+00  1.26783E-01
      21    -1     0     0   502   501  0.000000000E+00  0.000000000E+00  6.599823298E+02  6.599823298E+02  0.000000000E+00  0.00000E+00  9.000E+00
      21    -1     0     0   501   511  0.000000000E+00  0.000000000E+00 -1.273852194E+02  1.273852194E+02  0.000000000E+00  0.00000E+00  9.000E+00
      25     1     1     2     0     0 -1.454884750E+02 -1.395968410E+01  2.700630399E+02  3.315430812E+02  1.250000000E+02  0.00000E+00  9.000E+00
      25     1     1     2     0     0  1.520687805E+02 -7.206170801E+01  2.964896481E+02  3.631100593E+02  1.250000000E+02  0.00000E+00  9.000E+00
      21     1     1     2   502   511 -6.580305503E+00  8.602139210E+01 -3.395557763E+01  9.271440866E+01  1.261592536E-06  0.00000E+00  9.000E+00
#rwgt            1           1 -0.40189999701165596                4      465241           0
</event>
<event>
      5   9999  3.79277E-02  4.76769E+01 -1.00000E+00  1.40265E-01
      21    -1     0     0   502   501  0.000000000E+00  0.000000000E+00  2.615022672E+03  2.615022672E+03  0.000000000E+00  0.00000E+00  9.000E+00
      21    -1     0     0   512   502  0.000000000E+00  0.000000000E+00 -1.640004521E+01  1.640004521E+01  0.000000000E+00  0.00000E+00  9.000E+00
      25     1     1     2     0     0 -4.572787518E+01  9.639955617E+01  8.039289128E+02  8.205550621E+02  1.250000000E+02  0.00000E+00  9.000E+00
      25     1     1     2     0     0  9.241815077E+01 -8.675044293E+01  1.621111259E+03  1.630856667E+03  1.250000000E+02  0.00000E+00  9.000E+00
      21     1     1     2   512   501 -4.669027559E+01 -9.649113245E+00  1.735824556E+02  1.800109889E+02  3.814697266E-06  0.00000E+00  9.000E+00
#rwgt            1           1   6.2421400871362762E-002           4      465312           0
</event>
<event>
      5   9999  3.79277E-02  1.09955E+01 -1.00000E+00  1.91110E-01
      21    -1     0     0   511   501  0.000000000E+00  0.000000000E+00  1.179201325E+03  1.179201325E+03  0.000000000E+00  0.00000E+00  9.000E+00
      21    -1     0     0   501   502  0.000000000E+00  0.000000000E+00 -3.438650829E+01  3.438650829E+01  0.000000000E+00  0.00000E+00  9.000E+00
      25     1     1     2     0     0 -8.684489489E+01 -6.338028346E+01  2.427810596E+02  2.934735746E+02  1.250000000E+02  0.00000E+00  9.000E+00
      25     1     1     2     0     0  8.840303297E+01  7.426486634E+01  8.320262107E+02  8.492484807E+02  1.250000000E+02  0.00000E+00  9.000E+00
      21     1     1     2   511   502 -1.558138076E+00 -1.088458288E+01  7.000754657E+01  7.086577817E+01  9.536743164E-07  0.00000E+00  9.000E+00
#rwgt            1           1   1.9458728741939105E-002           4      465413           0
</event>
<event>
      5   9999  3.79277E-02  3.91676E+01 -1.00000E+00  1.45409E-01
      21    -1     0     0   502   501  0.000000000E+00  0.000000000E+00  2.874661200E+02  2.874661200E+02  0.000000000E+00  0.00000E+00  9.000E+00
      21    -1     0     0   501   512  0.000000000E+00  0.000000000E+00 -2.422230586E+02  2.422230586E+02  0.000000000E+00  0.00000E+00  9.000E+00
      25     1     1     2     0     0  5.712054168E+01  8.297381294E+01  2.019035958E+02  2.579485838E+02  1.250000000E+02  0.00000E+00  9.000E+00
      25     1     1     2     0     0 -9.469735056E+01 -9.402283926E+01 -1.275267458E+02  2.229258922E+02  1.250000000E+02  0.00000E+00  9.000E+00
      21     1     1     2   502   512  3.757680889E+01  1.104902632E+01 -2.913378855E+01  4.881470254E+01  6.743495762E-07  0.00000E+00  9.000E+00
#rwgt            1           1   3.9574391780158397E-002           4      465586           0
</event>
<event>
      5   9999  3.79277E-02  9.23687E+01 -1.00000E+00  1.25399E-01
      21    -1     0     0   511   501  0.000000000E+00  0.000000000E+00  7.645502611E+02  7.645502611E+02  0.000000000E+00  0.00000E+00  9.000E+00
      21    -1     0     0   501   502  0.000000000E+00  0.000000000E+00 -5.396520334E+02  5.396520334E+02  0.000000000E+00  0.00000E+00  9.000E+00
      25     1     1     2     0     0  1.256729137E+02 -1.621392803E+01 -2.176428631E+02  2.811582981E+02  1.250000000E+02  0.00000E+00  9.000E+00
      25     1     1     2     0     0 -1.235261483E+02  1.085576558E+02 -2.500415768E+02  3.243289443E+02  1.250000000E+02  0.00000E+00  9.000E+00
      21     1     1     2   511   502 -2.146765456E+00 -9.234372780E+01  6.925826676E+02  6.987150522E+02  1.078959322E-05  0.00000E+00  9.000E+00
#rwgt            1           1   4.4910033046647382E-002           4      465762           0
</event>
<event>
      5   9999  3.79277E-02  7.10153E+01 -1.00000E+00  1.30905E-01
      21    -1     0     0   502   501  0.000000000E+00  0.000000000E+00  3.751743627E+02  3.751743627E+02  0.000000000E+00  0.00000E+00  9.000E+00
      21    -1     0     0   512   502  0.000000000E+00  0.000000000E+00 -2.736842333E+02  2.736842333E+02  0.000000000E+00  0.00000E+00  9.000E+00
      25     1     1     2     0     0  6.732653269E+01  2.941995582E+01  2.918167149E+02  3.258533272E+02  1.250000000E+02  0.00000E+00  9.000E+00
      25     1     1     2     0     0 -1.432492532E+01 -7.668519644E+01 -3.387371613E+01  1.511894556E+02  1.250000000E+02  0.00000E+00  9.000E+00
      21     1     1     2   512   501 -5.300160736E+01  4.726524063E+01 -1.564528693E+02  1.718158132E+02  1.907348633E-06  0.00000E+00  9.000E+00
#rwgt            1           1   3.7305110502895346E-002           4      465816           0
</event>
<event>
      5   9999  3.79277E-02  6.09951E+01 -1.00000E+00  1.34323E-01
      21    -1     0     0   502   511  0.000000000E+00  0.000000000E+00  1.809734005E+02  1.809734005E+02  0.000000000E+00  0.00000E+00  9.000E+00
      21    -1     0     0   501   502  0.000000000E+00  0.000000000E+00 -2.994681286E+02  2.994681286E+02  0.000000000E+00  0.00000E+00  9.000E+00
      25     1     1     2     0     0  5.508124840E+00  1.456820933E+02 -3.231618288E+01  1.947381509E+02  1.250000000E+02  0.00000E+00  9.000E+00
      25     1     1     2     0     0  5.474888152E+01 -1.362219304E+02 -1.079007944E+02  2.209557326E+02  1.250000000E+02  0.00000E+00  9.000E+00
      21     1     1     2   501   511 -6.025700636E+01 -9.460162905E+00  2.172224924E+01  6.474764559E+01  1.348699152E-06  0.00000E+00  9.000E+00
#rwgt            1           1   4.0032053028060378E-002           4      465888           0
</event>
<event>
      5   9999  3.79277E-02  7.72130E+01 -1.00000E+00  1.29099E-01
      21    -1     0     0   502   512  0.000000000E+00  0.000000000E+00  5.782136480E+01  5.782136480E+01  0.000000000E+00  0.00000E+00  9.000E+00
      21    -1     0     0   501   502  0.000000000E+00  0.000000000E+00 -1.352911272E+03  1.352911272E+03  0.000000000E+00  0.00000E+00  9.000E+00
      25     1     1     2     0     0  2.040336722E+01  1.242016467E+02 -9.368332263E+02  9.534798584E+02  1.250000000E+02  0.00000E+00  9.000E+00
      25     1     1     2     0     0  5.173669995E+01 -1.517273738E+02 -2.248921868E+02  3.031491015E+02  1.250000000E+02  0.00000E+00  9.000E+00
      21     1     1     2   501   512 -7.214006718E+01  2.752572713E+01 -1.333644942E+02  1.541036770E+02  0.000000000E+00  0.00000E+00  9.000E+00
#rwgt            1           1   3.6194423111982496E-002           4      466021           0
</event>
<event>
      5   9999  3.79277E-02  4.39577E+01 -1.00000E+00  1.42344E-01
      21    -1     0     0   502   501  0.000000000E+00  0.000000000E+00  1.707374805E+02  1.707374805E+02  0.000000000E+00  0.00000E+00  9.000E+00
      21    -1     0     0   511   502  0.000000000E+00  0.000000000E+00 -8.200267444E+02  8.200267444E+02  0.000000000E+00  0.00000E+00  9.000E+00
      25     1     1     2     0     0 -2.232968430E+02 -1.721644899E+02 -9.643380787E+01  3.231510034E+02  1.250000000E+02  0.00000E+00  9.000E+00
      25     1     1     2     0     0  1.799152751E+02  1.650710449E+02 -2.827055592E+02  3.939103823E+02  1.250000000E+02  0.00000E+00  9.000E+00
      21     1     1     2   511   501  4.338156794E+01  7.093444995E+00 -2.701498968E+02  2.737028392E+02  3.814697266E-06  0.00000E+00  9.000E+00
#rwgt            1           1   2.6704354602000786E-002           4      466069           0
</event>
<event>
      5   9999  3.79277E-02  8.04349E+01 -1.00000E+00  1.28236E-01
      21    -1     0     0   502   501  0.000000000E+00  0.000000000E+00  1.165615235E+03  1.165615235E+03  0.000000000E+00  0.00000E+00  9.000E+00
      21    -1     0     0   501   512  0.000000000E+00  0.000000000E+00 -6.528467225E+01  6.528467225E+01  0.000000000E+00  0.00000E+00  9.000E+00
      25     1     1     2     0     0  1.682030539E+02  8.743022625E+01  3.751671049E+02  4.385335431E+02  1.250000000E+02  0.00000E+00  9.000E+00
      25     1     1     2     0     0 -1.127770261E+02 -1.457202579E+02  6.275609719E+02  6.658910005E+02  1.250000000E+02  0.00000E+00  9.000E+00
      21     1     1     2   502   512 -5.542602777E+01  5.829003168E+01  9.760248614E+01  1.264753638E+02  0.000000000E+00  0.00000E+00  9.000E+00
#rwgt            1           1   3.5512732971427326E-002           4      466223           0
</event>
<event>
      5   9999  3.79277E-02  2.31564E+01 -1.00000E+00  1.61284E-01
      21    -1     0     0   511   501  0.000000000E+00  0.000000000E+00  2.601976329E+02  2.601976329E+02  0.000000000E+00  0.00000E+00  9.000E+00
      21    -1     0     0   501   502  0.000000000E+00  0.000000000E+00 -1.619577963E+02  1.619577963E+02  0.000000000E+00  0.00000E+00  9.000E+00
      25     1     1     2     0     0  5.447485637E+01 -1.485583198E+02  6.575751059E+01  2.120993506E+02  1.250000000E+02  0.00000E+00  9.000E+00
      25     1     1     2     0     0 -4.459561303E+01  1.276151189E+02  2.553583629E+01  1.858802470E+02  1.250000000E+02  0.00000E+00  9.000E+00
      21     1     1     2   511   502 -9.879243340E+00  2.094320084E+01  6.946489731E+00  2.417583152E+01  3.039252468E-07  0.00000E+00  9.000E+00
#rwgt            1           1   3.2425771995063815E-002           4      466344           0
</event>
<event>
      5   9999  3.79277E-02  7.66813E+01 -1.00000E+00  1.29246E-01
      21    -1     0     0   512   501  0.000000000E+00  0.000000000E+00  2.925094001E+03  2.925094001E+03  0.000000000E+00  0.00000E+00  9.000E+00
      21    -1     0     0   501   502  0.000000000E+00  0.000000000E+00 -7.931515740E+01  7.931515740E+01  0.000000000E+00  0.00000E+00  9.000E+00
      25     1     1     2     0     0 -4.109511382E+02 -5.094109406E+01  1.646742247E+03  1.702604141E+03  1.250000000E+02  0.00000E+00  9.000E+00
      25     1     1     2     0     0  3.357330250E+02  3.603302383E+01  6.141491757E+02  7.119123914E+02  1.250000000E+02  0.00000E+00  9.000E+00
      21     1     1     2   512   502  7.521811319E+01  1.490807023E+01  5.848874212E+02  5.898926263E+02  7.629394531E-06  0.00000E+00  9.000E+00
#rwgt            1           1   2.7548647444852459E-002           4      466500           0
</event>
<event>
      5   9999  3.79277E-02  9.23001E+00 -1.00000E+00  1.99868E-01
      21    -1     0     0   511   501  0.000000000E+00  0.000000000E+00  2.932866145E+01  2.932866145E+01  0.000000000E+00  0.00000E+00  9.000E+00
      21    -1     0     0   501   502  0.000000000E+00  0.000000000E+00 -2.792914216E+03  2.792914216E+03  0.000000000E+00  0.00000E+00  9.000E+00
      25     1     1     2     0     0 -9.444200210E+01 -5.043153921E+01 -2.124117872E+03  2.130484538E+03  1.250000000E+02  0.00000E+00  9.000E+00
      25     1     1     2     0     0  8.751196177E+01  5.652807121E+01 -6.543317444E+02  6.742616688E+02  1.250000000E+02  0.00000E+00  9.000E+00
      21     1     1     2   511   502  6.930040335E+00 -6.096531996E+00  1.486406174E+01  1.749667090E+01  1.800020799E-06  0.00000E+00  9.000E+00
#rwgt            1           1   2.9615500923128108E-002           4      466767           0
</event>
<event>
      5   9999  3.79277E-02  6.54356E+01 -1.00000E+00  1.32721E-01
      21    -1     0     0   502   501  0.000000000E+00  0.000000000E+00  1.875851021E+03  1.875851021E+03  0.000000000E+00  0.00000E+00  9.000E+00
      21    -1     0     0   501   512  0.000000000E+00  0.000000000E+00 -1.315243333E+02  1.315243333E+02  0.000000000E+00  0.00000E+00  9.000E+00
      25     1     1     2     0     0  1.571942039E+02  5.038581742E+01  1.641910932E+03  1.654915484E+03  1.250000000E+02  0.00000E+00  9.000E+00
      25     1     1     2     0     0 -2.147286538E+02 -8.155629493E+01  4.488282412E+01  2.653286489E+02  1.250000000E+02  0.00000E+00  9.000E+00
      21     1     1     2   502   512  5.753444995E+01  3.117047751E+01  5.753293060E+01  8.713122117E+01  1.348699152E-06  0.00000E+00  9.000E+00
#rwgt            1           1   9.0555018408953816E-002           4      467017           0
</event>
<event>
      5   9999  3.79277E-02  3.49956E+01 -1.00000E+00  1.48534E-01
      21    -1     0     0   511   501  0.000000000E+00  0.000000000E+00  9.475921681E+02  9.475921681E+02  0.000000000E+00  0.00000E+00  9.000E+00
      21    -1     0     0   501   502  0.000000000E+00  0.000000000E+00 -6.195978903E+01  6.195978903E+01  0.000000000E+00  0.00000E+00  9.000E+00
      25     1     1     2     0     0  8.832421435E+01  3.357255683E+01  6.697885351E+01  1.704096542E+02  1.250000000E+02  0.00000E+00  9.000E+00
      25     1     1     2     0     0 -7.598865757E+01 -8.230732169E-01  5.921996187E+02  6.100002802E+02  1.250000000E+02  0.00000E+00  9.000E+00
      21     1     1     2   511   502 -1.233555679E+01 -3.274948361E+01  2.264539069E+02  2.291420228E+02  2.697398305E-06  0.00000E+00  9.000E+00
#rwgt            1           1   3.8181289753419063E-002           4      467194           0
</event>
<event>
      5   9999  3.79277E-02  4.07165E+01 -1.00000E+00  1.44364E-01
      21    -1     0     0   502   501  0.000000000E+00  0.000000000E+00  1.754426936E+02  1.754426936E+02  0.000000000E+00  0.00000E+00  9.000E+00
      21    -1     0     0   501   512  0.000000000E+00  0.000000000E+00 -2.274901594E+02  2.274901594E+02  0.000000000E+00  0.00000E+00  9.000E+00
      25     1     1     2     0     0  4.752336051E+01  1.327449547E+02 -5.015198762E+01  1.949869602E+02  1.250000000E+02  0.00000E+00  9.000E+00
      25     1     1     2     0     0 -4.323009675E+01 -9.225547704E+01  1.865742897E+01  1.623361142E+02  1.250000000E+02  0.00000E+00  9.000E+00
      21     1     1     2   502   512 -4.293263764E+00 -4.048947762E+01 -2.055290711E+01  4.560977859E+01  6.743495762E-07  0.00000E+00  9.000E+00
#rwgt            1           1   3.9269485767054066E-002           4      467373           0
</event>
<event>
      5   9999  3.79277E-02  1.48468E+01 -1.00000E+00  1.77805E-01
      21    -1     0     0   502   511  0.000000000E+00  0.000000000E+00  8.068760784E+02  8.068760784E+02  0.000000000E+00  0.00000E+00  9.000E+00
      21    -1     0     0   501   502  0.000000000E+00  0.000000000E+00 -7.997186187E+01  7.997186187E+01  0.000000000E+00  0.00000E+00  9.000E+00
      25     1     1     2     0     0 -5.927694204E+01  1.465689024E+02  4.384566338E+02  4.825613108E+02  1.250000000E+02  0.00000E+00  9.000E+00
      25     1     1     2     0     0  4.952871938E+01 -1.577671008E+02  1.290029080E+02  2.441522116E+02  1.250000000E+02  0.00000E+00  9.000E+00
      21     1     1     2   501   511  9.748222660E+00  1.119819837E+01  1.594446747E+02  1.601344179E+02  3.303624740E-06  0.00000E+00  9.000E+00
#rwgt            1           1   4.3546751227770644E-002           4      467537           0
</event>
<event>
      5   9999 -3.79277E-02  1.71539E+01 -1.00000E+00  1.72064E-01
      21    -1     0     0   502   501  0.000000000E+00  0.000000000E+00  6.151393327E+02  6.151393327E+02  0.000000000E+00  0.00000E+00  9.000E+00
      21    -1     0     0   512   502  0.000000000E+00  0.000000000E+00 -2.525727071E+02  2.525727071E+02  0.000000000E+00  0.00000E+00  9.000E+00
      25     1     1     2     0     0 -6.827840490E+01 -1.316117449E+02  1.743583091E+02  2.607861422E+02  1.250000000E+02  0.00000E+00  9.000E+00
      25     1     1     2     0     0  7.808634716E+01  1.175383019E+02  3.748045565E+02  4.195428293E+02  1.250000000E+02  0.00000E+00  9.000E+00
      21     1     1     2   512   501 -9.807942253E+00  1.407344298E+01 -1.865962400E+02  1.873830683E+02  3.814697266E-06  0.00000E+00  9.000E+00
#rwgt            1           1 -0.11773506480164603                4      467818           0
</event>
<event>
      5   9999  3.79277E-02  8.50088E+00 -1.00000E+00  2.04281E-01
      21    -1     0     0   502   501  0.000000000E+00  0.000000000E+00  5.437768268E+02  5.437768268E+02  0.000000000E+00  0.00000E+00  9.000E+00
      21    -1     0     0   501   511  0.000000000E+00  0.000000000E+00 -1.354476822E+02  1.354476822E+02  0.000000000E+00  0.00000E+00  9.000E+00
      25     1     1     2     0     0 -8.300721207E+01  2.055242369E+02  1.813135235E+02  3.124580020E+02  1.250000000E+02  0.00000E+00  9.000E+00
      25     1     1     2     0     0  8.217676592E+01 -1.970640127E+02  2.441784181E+02  3.476137884E+02  1.250000000E+02  0.00000E+00  9.000E+00
      21     1     1     2   502   511  8.304461476E-01 -8.460224211E+00 -1.716279694E+01  1.915271869E+01  4.129530925E-07  0.00000E+00  9.000E+00
#rwgt            1           1   4.2124240069678527E-002           4      468062           0
</event>
<event>
      5   9999  3.79277E-02  7.31533E+01 -1.00000E+00  1.30259E-01
      21    -1     0     0   502   501  0.000000000E+00  0.000000000E+00  1.789307019E+02  1.789307019E+02  0.000000000E+00  0.00000E+00  9.000E+00
      21    -1     0     0   512   502  0.000000000E+00  0.000000000E+00 -5.052817448E+02  5.052817448E+02  0.000000000E+00  0.00000E+00  9.000E+00
      25     1     1     2     0     0  4.371781811E+01 -1.408948151E+02 -3.122293143E+02  3.672529663E+02  1.250000000E+02  0.00000E+00  9.000E+00
      25     1     1     2     0     0 -1.168688315E+02  1.414773903E+02  4.045617552E+01  2.256897824E+02  1.250000000E+02  0.00000E+00  9.000E+00
      21     1     1     2   512   501  7.315101340E+01 -5.825751701E-01 -5.457790417E+01  9.126969803E+01  0.000000000E+00  0.00000E+00  9.000E+00
#rwgt            1           1   5.2293834772068740E-002           4      468338           0
</event>
<event>
      5   9999  3.79277E-02  2.32212E+01 -1.00000E+00  1.61190E-01
      21    -1     0     0   502   501  0.000000000E+00  0.000000000E+00  5.933828787E+02  5.933828787E+02  0.000000000E+00  0.00000E+00  9.000E+00
      21    -1     0     0   501   511  0.000000000E+00  0.000000000E+00 -5.736903730E+02  5.736903730E+02  0.000000000E+00  0.00000E+00  9.000E+00
      25     1     1     2     0     0 -1.364336826E+02 -1.217141734E+01  2.175500668E+02  2.858589245E+02  1.250000000E+02  0.00000E+00  9.000E+00
      25     1     1     2     0     0  1.575009771E+02  2.404366019E+00  3.118038258E+02  3.710242102E+02  1.250000000E+02  0.00000E+00  9.000E+00
      21     1     1     2   502   511 -2.106729443E+01  9.767051325E+00 -5.096613869E+02  5.101901170E+02  7.629394531E-06  0.00000E+00  9.000E+00
#rwgt            1           1   4.3255815853655025E-002           4      468450           0
</event>
<event>
      5   9999  3.79277E-02  5.87007E+01 -1.00000E+00  1.35213E-01
      21    -1     0     0   502   512  0.000000000E+00  0.000000000E+00  1.243959940E+02  1.243959940E+02  0.000000000E+00  0.00000E+00  9.000E+00
      21    -1     0     0   501   502  0.000000000E+00  0.000000000E+00 -2.181388097E+03  2.181388097E+03  0.000000000E+00  0.00000E+00  9.000E+00
      25     1     1     2     0     0  2.035013559E+01 -1.752503846E+02 -1.537430643E+03  1.552560726E+03  1.250000000E+02  0.00000E+00  9.000E+00
      25     1     1     2     0     0  3.315270047E+01  1.511005063E+02 -6.121202621E+02  6.436199809E+02  1.250000000E+02  0.00000E+00  9.000E+00
      21     1     1     2   501   512 -5.350283607E+01  2.414987830E+01  9.255880190E+01  1.096033845E+02  3.015782986E-06  0.00000E+00  9.000E+00
#rwgt            1           1   9.6265398334881958E-002           4      468661           0
</event>
<event>
      5   9999  3.79277E-02  1.00989E+01 -1.00000E+00  1.95265E-01
      21    -1     0     0   502   501  0.000000000E+00  0.000000000E+00  1.097835099E+02  1.097835099E+02  0.000000000E+00  0.00000E+00  9.000E+00
      21    -1     0     0   501   511  0.000000000E+00  0.000000000E+00 -6.259109517E+02  6.259109517E+02  0.000000000E+00  0.00000E+00  9.000E+00
      25     1     1     2     0     0  1.589457879E+02  4.771685124E+01 -4.384540408E+02  4.851882184E+02  1.250000000E+02  0.00000E+00  9.000E+00
      25     1     1     2     0     0 -1.685051463E+02 -5.097348361E+01 -5.081145969E+01  2.218086671E+02  1.250000000E+02  0.00000E+00  9.000E+00
      21     1     1     2   502   511  9.559358447E+00  3.256632377E+00 -2.686194121E+01  2.869757609E+01  4.768371582E-07  0.00000E+00  9.000E+00
#rwgt            1           1   4.0492008548922320E-002           4      468743           0
</event>
<event>
      5   9999  3.79277E-02  1.60078E+01 -1.00000E+00  1.74764E-01
      21    -1     0     0   502   501  0.000000000E+00  0.000000000E+00  9.020914748E+01  9.020914748E+01  0.000000000E+00  0.00000E+00  9.000E+00
       2    -1     0     0   501     0  0.000000000E+00  0.000000000E+00 -2.314435572E+03  2.314435572E+03  0.000000000E+00  0.00000E+00  9.000E+00
      25     1     1     2     0     0 -1.382552674E+02  8.537718805E+01 -1.244219093E+02  2.398115817E+02  1.250000000E+02  0.00000E+00  9.000E+00
      25     1     1     2     0     0  1.287907951E+02 -7.246700849E+01 -2.558827515E+02  3.208418906E+02  1.250000000E+02  0.00000E+00  9.000E+00
       2     1     1     2   502     0  9.464472357E+00 -1.291017956E+01 -1.843921764E+03  1.843991247E+03  0.000000000E+00  0.00000E+00  9.000E+00
#rwgt            1           1   2.8362078403245880E-002           4      469025           0
</event>
<event>
      5   9999  3.79277E-02  3.24652E+01 -1.00000E+00  1.50695E-01
      21    -1     0     0   502   501  0.000000000E+00  0.000000000E+00  4.717014072E+02  4.717014072E+02  0.000000000E+00  0.00000E+00  9.000E+00
      21    -1     0     0   511   502  0.000000000E+00  0.000000000E+00 -1.217401768E+03  1.217401768E+03  0.000000000E+00  0.00000E+00  9.000E+00
      25     1     1     2     0     0 -2.310055044E+02 -1.174016974E+02  2.284164174E+02  3.673496446E+02  1.250000000E+02  0.00000E+00  9.000E+00
      25     1     1     2     0     0  2.177267338E+02  8.777634135E+01  7.168243914E+01  2.754505197E+02  1.250000000E+02  0.00000E+00  9.000E+00
      21     1     1     2   511   501  1.327877059E+01  2.962535607E+01 -1.045799217E+03  1.046303011E+03  1.525878906E-05  0.00000E+00  9.000E+00
#rwgt            1           1   3.1678749518519851E-002           4      469274           0
</event>
<event>
      5   9999  3.79277E-02  1.07357E+02 -1.00000E+00  1.22457E-01
      21    -1     0     0   502   501  0.000000000E+00  0.000000000E+00  1.115127903E+02  1.115127903E+02  0.000000000E+00  0.00000E+00  9.000E+00
      21    -1     0     0   501   512  0.000000000E+00  0.000000000E+00 -9.447503354E+02  9.447503354E+02  0.000000000E+00  0.00000E+00  9.000E+00
      25     1     1     2     0     0 -1.215641974E+02 -1.489921425E+01 -6.000784094E+02  6.250751459E+02  1.250000000E+02  0.00000E+00  9.000E+00
      25     1     1     2     0     0  1.635315579E+02 -8.391497667E+01 -6.483950406E+01  2.315457947E+02  1.250000000E+02  0.00000E+00  9.000E+00
      21     1     1     2   502   512 -4.196736049E+01  9.881419092E+01 -1.683196317E+02  1.996421851E+02  1.907348633E-06  0.00000E+00  9.000E+00
#rwgt            1           1   3.7339287143139832E-002           4      469495           0
</event>
<event>
      5   9999  3.79277E-02  1.69300E+02 -1.00000E+00  1.14348E-01
      21    -1     0     0   502   501  0.000000000E+00  0.000000000E+00  6.779017922E+01  6.779017922E+01  0.000000000E+00  0.00000E+00  9.000E+00
      21    -1     0     0   511   502  0.000000000E+00  0.000000000E+00 -2.869112659E+03  2.869112659E+03  0.000000000E+00  0.00000E+00  9.000E+00
      25     1     1     2     0     0 -4.270662791E+01  5.556932251E+01 -5.252375412E+01  1.526287994E+02  1.250000000E+02  0.00000E+00  9.000E+00
      25     1     1     2     0     0 -1.150710088E+02 -1.169590467E+02 -7.356809444E+02  7.640498725E+02  1.250000000E+02  0.00000E+00  9.000E+00
      21     1     1     2   511   501  1.577776367E+02  6.138972416E+01 -2.013117781E+03  2.020224166E+03  3.737624730E-05  0.00000E+00  9.000E+00
#rwgt            1           1   4.3837262704775219E-002           4      469588           0
</event>
<event>
      5   9999  3.79277E-02  9.96164E+01 -1.00000E+00  1.23903E-01
      21    -1     0     0   502   501  0.000000000E+00  0.000000000E+00  1.286479647E+02  1.286479647E+02  0.000000000E+00  0.00000E+00  9.000E+00
       2    -1     0     0   501     0  0.000000000E+00  0.000000000E+00 -9.566940425E+02  9.566940425E+02  0.000000000E+00  0.00000E+00  9.000E+00
      25     1     1     2     0     0 -3.324566867E+01 -1.625685525E+02 -6.974071747E+02  7.276919514E+02  1.250000000E+02  0.00000E+00  9.000E+00
      25     1     1     2     0     0 -6.584741323E+01  1.523711348E+02 -1.996929923E+01  2.087501317E+02  1.250000000E+02  0.00000E+00  9.000E+00
       2     1     1     2   502     0  9.909308189E+01  1.019741770E+01 -1.106696038E+02  1.488999241E+02  1.348699152E-06  0.00000E+00  9.000E+00
#rwgt            1           1   3.3358659647286661E-002           4      469650           0
</event>
<event>
      5   9999  3.79277E-02  1.73472E+01 -1.00000E+00  1.71635E-01
      21    -1     0     0   502   501  0.000000000E+00  0.000000000E+00  1.005159190E+02  1.005159190E+02  0.000000000E+00  0.00000E+00  9.000E+00
      21    -1     0     0   501   511  0.000000000E+00  0.000000000E+00 -3.876797900E+02  3.876797900E+02  0.000000000E+00  0.00000E+00  9.000E+00
      25     1     1     2     0     0  8.576663281E+01 -9.567160825E+01 -7.687895170E+01  1.950495966E+02  1.250000000E+02  0.00000E+00  9.000E+00
      25     1     1     2     0     0 -1.027673888E+02  9.222185591E+01 -1.853053641E+02  2.627338670E+02  1.250000000E+02  0.00000E+00  9.000E+00
      21     1     1     2   502   511  1.700075596E+01  3.449752340E+00 -2.497955517E+01  3.041224541E+01  5.840038640E-07  0.00000E+00  9.000E+00
#rwgt            1           1   3.9926866960816446E-002           4      469765           0
</event>
<event>
      5   9999  3.79277E-02  9.78174E+01 -1.00000E+00  1.24261E-01
      21    -1     0     0   502   501  0.000000000E+00  0.000000000E+00  5.764502120E+02  5.764502120E+02  0.000000000E+00  0.00000E+00  9.000E+00
      21    -1     0     0   512   502  0.000000000E+00  0.000000000E+00 -1.344893208E+02  1.344893208E+02  0.000000000E+00  0.00000E+00  9.000E+00
      25     1     1     2     0     0 -8.318727596E+01 -7.769441624E+01  1.343322530E+02  2.159321638E+02  1.250000000E+02  0.00000E+00  9.000E+00
      25     1     1     2     0     0  1.798677013E+02  6.282341950E+01  3.237179107E+02  3.958755584E+02  1.250000000E+02  0.00000E+00  9.000E+00
      21     1     1     2   512   501 -9.668042534E+01  1.487099674E+01 -1.608927245E+01  9.913181061E+01  8.259061849E-07  0.00000E+00  9.000E+00
#rwgt            1           1   4.1864491421128427E-002           4      469985           0
</event>
<event>
      5   9999  3.79277E-02  1.27495E+01 -1.00000E+00  1.84304E-01
      21    -1     0     0   502   511  0.000000000E+00  0.000000000E+00  8.111003147E+02  8.111003147E+02  0.000000000E+00  0.00000E+00  9.000E+00
      21    -1     0     0   501   502  0.000000000E+00  0.000000000E+00 -1.199889956E+02  1.199889956E+02  0.000000000E+00  0.00000E+00  9.000E+00
      25     1     1     2     0     0 -1.287587471E+02  7.372095263E+01  4.285641214E+02  4.704315040E+02  1.250000000E+02  0.00000E+00  9.000E+00
      25     1     1     2     0     0  1.160444838E+02 -7.277405559E+01 -1.198919871E+01  1.858255264E+02  1.250000000E+02  0.00000E+00  9.000E+00
      21     1     1     2   501   511  1.271426330E+01 -9.468970364E-01  2.745363964E+02  2.748322798E+02  0.000000000E+00  0.00000E+00  9.000E+00
#rwgt            1           1   5.9788460043440739E-002           4      470044           0
</event>
<event>
      5   9999  3.79277E-02  6.14011E+01 -1.00000E+00  1.34170E-01
      21    -1     0     0   502   501  0.000000000E+00  0.000000000E+00  2.723389799E+02  2.723389799E+02  0.000000000E+00  0.00000E+00  9.000E+00
       2    -1     0     0   501     0  0.000000000E+00  0.000000000E+00 -9.189529358E+02  9.189529358E+02  0.000000000E+00  0.00000E+00  9.000E+00
      25     1     1     2     0     0  3.166715478E+01  4.700563486E+01 -6.651354203E+01  1.525168505E+02  1.250000000E+02  0.00000E+00  9.000E+00
      25     1     1     2     0     0 -8.171769225E+01 -8.257304765E+01  1.962116069E+02  2.600386204E+02  1.250000000E+02  0.00000E+00  9.000E+00
       2     1     1     2   502     0  5.005053746E+01  3.556741279E+01 -7.763120206E+02  7.787364449E+02  1.525878906E-05  0.00000E+00  9.000E+00
#rwgt            1           1   5.1148956374736786E-002           4      470491           0
</event>
<event>
      5   9999  3.79277E-02  1.26403E+02 -1.00000E+00  1.19418E-01
      21    -1     0     0   502   511  0.000000000E+00  0.000000000E+00  6.147071255E+02  6.147071255E+02  0.000000000E+00  0.00000E+00  9.000E+00
      21    -1     0     0   501   502  0.000000000E+00  0.000000000E+00 -2.341774594E+02  2.341774594E+02  0.000000000E+00  0.00000E+00  9.000E+00
      25     1     1     2     0     0 -2.099553822E+02  8.264431584E+01 -9.176691834E+01  2.737836970E+02  1.250000000E+02  0.00000E+00  9.000E+00
      25     1     1     2     0     0  8.369291230E+01 -7.669241228E+01  3.880524222E+02  4.231972496E+02  1.250000000E+02  0.00000E+00  9.000E+00
      21     1     1     2   501   511  1.262624699E+02 -5.951903564E+00  8.424416227E+01  1.519036383E+02  2.336015456E-06  0.00000E+00  9.000E+00
#rwgt            1           1   4.5598821572877077E-002           4      470657           0
</event>
<event>
      5   9999  3.79277E-02  5.18268E+01 -1.00000E+00  1.38192E-01
      21    -1     0     0   502   501  0.000000000E+00  0.000000000E+00  8.769178750E+01  8.769178750E+01  0.000000000E+00  0.00000E+00  9.000E+00
      21    -1     0     0   512   502  0.000000000E+00  0.000000000E+00 -1.134503957E+03  1.134503957E+03  0.000000000E+00  0.00000E+00  9.000E+00
      25     1     1     2     0     0  6.578341170E+01  2.300777845E+02 -3.052463528E+02  4.075089939E+02  1.250000000E+02  0.00000E+00  9.000E+00
      25     1     1     2     0     0 -1.784398555E+01 -2.497711189E+02 -5.626217574E+02  6.283886230E+02  1.250000000E+02  0.00000E+00  9.000E+00
      21     1     1     2   512   501 -4.793942615E+01  1.969333447E+01 -1.789440597E+02  1.862981280E+02  1.907348633E-06  0.00000E+00  9.000E+00
#rwgt            1           1   3.8235125603586301E-002           4      470737           0
</event>
<event>
      5   9999  3.79277E-02  1.14882E+02 -1.00000E+00  1.21177E-01
      21    -1     0     0   511   501  0.000000000E+00  0.000000000E+00  5.784202289E+01  5.784202289E+01  0.000000000E+00  0.00000E+00  9.000E+00
      21    -1     0     0   501   502  0.000000000E+00  0.000000000E+00 -1.881554667E+03  1.881554667E+03  0.000000000E+00  0.00000E+00  9.000E+00
      25     1     1     2     0     0 -1.697003816E+02  8.782954341E+00 -4.984483117E+02  5.412495536E+02  1.250000000E+02  0.00000E+00  9.000E+00
      25     1     1     2     0     0  8.929953252E+01 -9.084065607E+01 -1.245662000E+03  1.258381997E+03  1.250000000E+02  0.00000E+00  9.000E+00
      21     1     1     2   511   502  8.040084907E+01  8.205770173E+01 -7.960233245E+01  1.397651397E+02  3.932099939E-06  0.00000E+00  9.000E+00
#rwgt            1           1   3.7466277342858838E-002           4      470820           0
</event>
<event>
      5   9999  3.79277E-02  2.60675E+01 -1.00000E+00  1.57403E-01
      21    -1     0     0   502   501  0.000000000E+00  0.000000000E+00  2.013469597E+02  2.013469597E+02  0.000000000E+00  0.00000E+00  9.000E+00
      21    -1     0     0   501   512  0.000000000E+00  0.000000000E+00 -3.715940117E+02  3.715940117E+02  0.000000000E+00  0.00000E+00  9.000E+00
      25     1     1     2     0     0 -9.021085262E+01  4.612420811E+01  3.762754125E+01  1.652460964E+02  1.250000000E+02  0.00000E+00  9.000E+00
      25     1     1     2     0     0  1.150662928E+02 -5.398045258E+01  1.904631116E+01  1.792816303E+02  1.250000000E+02  0.00000E+00  9.000E+00
      21     1     1     2   502   512 -2.485544020E+01  7.856244468E+00 -2.269209045E+02  2.284132447E+02  2.697398305E-06  0.00000E+00  9.000E+00
#rwgt            1           1   4.1284262173335834E-002           4      470984           0
</event>
<event>
      5   9999  3.79277E-02  4.23195E+02 -1.00000E+00  1.00954E-01
      21    -1     0     0   502   501  0.000000000E+00  0.000000000E+00  4.895673805E+02  4.895673805E+02  0.000000000E+00  0.00000E+00  9.000E+00
      21    -1     0     0   501   511  0.000000000E+00  0.000000000E+00 -2.666090037E+03  2.666090037E+03  0.000000000E+00  0.00000E+00  9.000E+00
      25     1     1     2     0     0 -1.434303497E+02  5.120306635E+02 -1.307192165E+02  5.616584186E+02  1.250000000E+02  0.00000E+00  9.000E+00
      25     1     1     2     0     0  3.879058329E+02 -1.665948833E+02  6.155688404E+01  4.445661259E+02  1.250000000E+02  0.00000E+00  9.000E+00
      21     1     1     2   502   511 -2.444754832E+02 -3.454357802E+02 -2.107360324E+03  2.149432873E+03  0.000000000E+00  0.00000E+00  9.000E+00
#rwgt            2          11   5.4100883883228385E-004           4      471144           0
</event>
<event>
      5   9999  3.79277E-02  3.18854E+02 -1.00000E+00  1.04739E-01
      21    -1     0     0   502   501  0.000000000E+00  0.000000000E+00  1.686556133E+03  1.686556133E+03  0.000000000E+00  0.00000E+00  9.000E+00
      21    -1     0     0   501   512  0.000000000E+00  0.000000000E+00 -1.369561468E+02  1.369561468E+02  0.000000000E+00  0.00000E+00  9.000E+00
      25     1     1     2     0     0  3.181993384E+02 -3.947749494E+00  1.009006542E+03  1.065357032E+03  1.250000000E+02  0.00000E+00  9.000E+00
      25     1     1     2     0     0 -1.657739518E+01  1.073498755E+02  4.988418823E+01  1.729515482E+02  1.250000000E+02  0.00000E+00  9.000E+00
      21     1     1     2   502   512 -3.016219432E+02 -1.034021260E+02  4.907092569E+02  5.852037005E+02  0.000000000E+00  0.00000E+00  9.000E+00
#rwgt            2          11   9.6373582171439408E-004           4      471194           0
</event>
<event>
      5   9999  3.79277E-02  2.04293E+01 -1.00000E+00  1.65612E-01
      21    -1     0     0   511   501  0.000000000E+00  0.000000000E+00  1.606227354E+02  1.606227354E+02  0.000000000E+00  0.00000E+00  9.000E+00
      21    -1     0     0   501   502  0.000000000E+00  0.000000000E+00 -2.746094155E+02  2.746094155E+02  0.000000000E+00  0.00000E+00  9.000E+00
      25     1     1     2     0     0  1.071306103E+02  1.009848497E+02  5.512822694E+00  1.932105037E+02  1.250000000E+02  0.00000E+00  9.000E+00
      25     1     1     2     0     0 -8.810417096E+01 -9.354510872E+01 -1.276000192E+02  2.200449890E+02  1.250000000E+02  0.00000E+00  9.000E+00
      21     1     1     2   511   502 -1.902643931E+01 -7.439741009E+00  8.100516307E+00  2.197665815E+01  3.576278687E-07  0.00000E+00  9.000E+00
#rwgt            1           1   3.7447739679769235E-002           4      471274           0
</event>
<event>
      5   9999 -4.28212E-02  7.95655E+00 -1.00000E+00  2.07980E-01
      21    -1     0     0   502   501  0.000000000E+00  0.000000000E+00  2.812651712E+02  2.812651712E+02  0.000000000E+00  0.00000E+00  9.000E+00
      21    -1     0     0   501   512  0.000000000E+00  0.000000000E+00 -6.764629210E+02  6.764629210E+02  0.000000000E+00  0.00000E+00  9.000E+00
      25     1     1     2     0     0 -3.474577959E+01  3.342135348E+02  6.643009214E+01  3.646147463E+02  1.250000000E+02  0.00000E+00  9.000E+00
      25     1     1     2     0     0  2.928433288E+01 -3.284274046E+02 -4.095999340E+02  5.404805622E+02  1.250000000E+02  0.00000E+00  9.000E+00
      21     1     1     2   502   512  5.461446710E+00 -5.786130264E+00 -5.202790801E+01  5.263278366E+01  6.743495762E-07  0.00000E+00  9.000E+00
#rwgt            1           1 -0.36555458289862097                4      471554           0
</event>
<event>
      5   9999  3.79277E-02  3.56862E+01 -1.00000E+00  1.47982E-01
      21    -1     0     0   502   501  0.000000000E+00  0.000000000E+00  2.312796511E+02  2.312796511E+02  0.000000000E+00  0.00000E+00  9.000E+00
      21    -1     0     0   511   502  0.000000000E+00  0.000000000E+00 -5.545652378E+02  5.545652378E+02  0.000000000E+00  0.00000E+00  9.000E+00
      25     1     1     2     0     0 -8.518841581E+01  7.180142799E+01 -1.808990722E-01  1.674441518E+02  1.250000000E+02  0.00000E+00  9.000E+00
      25     1     1     2     0     0  5.819785751E+01 -4.845580330E+01  1.105676792E+02  1.832625635E+02  1.250000000E+02  0.00000E+00  9.000E+00
      21     1     1     2   511   501  2.699055830E+01 -2.334562469E+01 -4.336723668E+02  4.351381737E+02  0.000000000E+00  0.00000E+00  9.000E+00
#rwgt            1           1   2.5554747926938803E-002           4      471979           0
</event>
<event>
      5   9999  3.79277E-02  1.04705E+02 -1.00000E+00  1.22936E-01
      21    -1     0     0   502   501  0.000000000E+00  0.000000000E+00  2.594944765E+02  2.594944765E+02  0.000000000E+00  0.00000E+00  9.000E+00
       1    -1     0     0   501     0  0.000000000E+00  0.000000000E+00 -1.434182428E+03  1.434182428E+03  0.000000000E+00  0.00000E+00  9.000E+00
      25     1     1     2     0     0  1.549459156E+02  2.036829574E+02 -1.014514302E+01  2.849963295E+02  1.250000000E+02  0.00000E+00  9.000E+00
      25     1     1     2     0     0 -1.668557693E+02 -9.965760030E+01  8.247017852E+00  2.312260763E+02  1.250000000E+02  0.00000E+00  9.000E+00
       1     1     1     2   502     0  1.190985368E+01 -1.040253571E+02 -1.172789826E+03  1.177454499E+03  1.525878906E-05  0.00000E+00  9.000E+00
#rwgt            1           1   2.8598493872824475E-002           4      472113           0
</event>
<event>
      5   9999 -3.79277E-02  4.43417E+01 -1.00000E+00  1.42118E-01
      21    -1     0     0   502   501  0.000000000E+00  0.000000000E+00  3.934247384E+02  3.934247384E+02  0.000000000E+00  0.00000E+00  9.000E+00
      21    -1     0     0   501   511  0.000000000E+00  0.000000000E+00 -3.419070595E+02  3.419070595E+02  0.000000000E+00  0.00000E+00  9.000E+00
      25     1     1     2     0     0  2.787339556E+02  1.204639824E+01  2.490543188E+01  3.067295458E+02  1.250000000E+02  0.00000E+00  9.000E+00
      25     1     1     2     0     0 -3.227004419E+02 -1.780275930E+01  8.353338179E+01  3.564482281E+02  1.250000000E+02  0.00000E+00  9.000E+00
      21     1     1     2   502   511  4.396648621E+01  5.756361067E+00 -5.692113474E+01  7.215402402E+01  1.348699152E-06  0.00000E+00  9.000E+00
#rwgt            1           1  -8.8278524407024841E-002           4      472417           0
</event>
<event>
      5   9999  3.79277E-02  1.98714E+01 -1.00000E+00  1.66601E-01
      21    -1     0     0   502   501  0.000000000E+00  0.000000000E+00  3.487423130E+02  3.487423130E+02  0.000000000E+00  0.00000E+00  9.000E+00
       2    -1     0     0   501     0  0.000000000E+00  0.000000000E+00 -5.177950280E+02  5.177950280E+02  0.000000000E+00  0.00000E+00  9.000E+00
      25     1     1     2     0     0 -1.598319664E+02 -1.152970892E+01  1.868529380E+02  2.760764606E+02  1.250000000E+02  0.00000E+00  9.000E+00
      25     1     1     2     0     0  1.790903861E+02  1.642726351E+01  1.452501641E+01  2.194976024E+02  1.250000000E+02  0.00000E+00  9.000E+00
       2     1     1     2   502     0 -1.925841970E+01 -4.897554596E+00 -3.704306694E+02  3.709632779E+02  5.394796609E-06  0.00000E+00  9.000E+00
#rwgt            1           1   4.0933591667247353E-002           4      472644           0
</event>
<event>
      5   9999  3.79277E-02  1.00448E+01 -1.00000E+00  1.95533E-01
      21    -1     0     0   502   501  0.000000000E+00  0.000000000E+00  5.377834402E+02  5.377834402E+02  0.000000000E+00  0.00000E+00  9.000E+00
      21    -1     0     0   501   511  0.000000000E+00  0.000000000E+00 -1.556752629E+02  1.556752629E+02  0.000000000E+00  0.00000E+00  9.000E+00
      25     1     1     2     0     0  1.088651177E+02 -1.790569707E+02  2.341498604E+02  3.381777192E+02  1.250000000E+02  0.00000E+00  9.000E+00
      25     1     1     2     0     0 -1.127822803E+02  1.883064913E+02  1.874384344E+02  3.145430719E+02  1.250000000E+02  0.00000E+00  9.000E+00
      21     1     1     2   502   511  3.917162546E+00 -9.249520565E+00 -3.948011747E+01  4.073791193E+01  9.536743164E-07  0.00000E+00  9.000E+00
#rwgt            1           1   3.4471364377500244E-002           4      472791           0
</event>
<event>
      5   9999  3.79277E-02  4.66295E+01 -1.00000E+00  1.40827E-01
      21    -1     0     0   502   512  0.000000000E+00  0.000000000E+00  3.277587948E+02  3.277587948E+02  0.000000000E+00  0.00000E+00  9.000E+00
      21    -1     0     0   501   502  0.000000000E+00  0.000000000E+00 -1.525129410E+02  1.525129410E+02  0.000000000E+00  0.00000E+00  9.000E+00
      25     1     1     2     0     0 -1.445021486E+02 -3.442882156E+01  1.439224020E+01  1.946749888E+02  1.250000000E+02  0.00000E+00  9.000E+00
      25     1     1     2     0     0  1.197767346E+02  7.396310967E+01  1.174507375E+02  2.218934057E+02  1.250000000E+02  0.00000E+00  9.000E+00
      21     1     1     2   501   512  2.472541398E+01 -3.953428811E+01  4.340287613E+01  6.370334127E+01  0.000000000E+00  0.00000E+00  9.000E+00
#rwgt            1           1  0.11866468221649341                4      473064           0
</event>
<event>
      5   9999  3.79277E-02  7.21428E+01 -1.00000E+00  1.30561E-01
      21    -1     0     0   502   501  0.000000000E+00  0.000000000E+00  7.851719968E+02  7.851719968E+02  0.000000000E+00  0.00000E+00  9.000E+00
      21    -1     0     0   501   511  0.000000000E+00  0.000000000E+00 -1.199552885E+02  1.199552885E+02  0.000000000E+00  0.00000E+00  9.000E+00
      25     1     1     2     0     0 -2.283924955E+01  7.591308756E+01  5.609110954E+02  5.801126487E+02  1.250000000E+02  0.00000E+00  9.000E+00
      25     1     1     2     0     0  8.425927658E+01 -1.137570351E+02  1.486459140E+02  2.403349673E+02  1.250000000E+02  0.00000E+00  9.000E+00
      21     1     1     2   502   511 -6.142002703E+01  3.784394756E+01 -4.434030117E+01  8.467966931E+01  4.768371582E-07  0.00000E+00  9.000E+00
#rwgt            1           1   4.8443117024169098E-002           4      473169           0
</event>
<event>
      5   9999  3.79277E-02  2.25567E+01 -1.00000E+00  1.62171E-01
      21    -1     0     0   512   501  0.000000000E+00  0.000000000E+00  1.973748810E+02  1.973748810E+02  0.000000000E+00  0.00000E+00  9.000E+00
      21    -1     0     0   501   502  0.000000000E+00  0.000000000E+00 -5.814984518E+02  5.814984518E+02  0.000000000E+00  0.00000E+00  9.000E+00
      25     1     1     2     0     0 -1.759803829E+02  4.158553991E-01 -3.192396094E+02  3.853676119E+02  1.250000000E+02  0.00000E+00  9.000E+00
      25     1     1     2     0     0  1.573437040E+02  1.229160658E+01 -1.837157482E+02  2.725520151E+02  1.250000000E+02  0.00000E+00  9.000E+00
      21     1     1     2   512   502  1.863667886E+01 -1.270746197E+01  1.188317868E+02  1.209537058E+02  2.336015456E-06  0.00000E+00  9.000E+00
#rwgt            1           1   4.3143677373258596E-002           4      473287           0
</event>
<event>
      5   9999  3.79277E-02  2.43533E+01 -1.00000E+00  1.59608E-01
      21    -1     0     0   502   501  0.000000000E+00  0.000000000E+00  1.708898962E+02  1.708898962E+02  0.000000000E+00  0.00000E+00  9.000E+00
       2    -1     0     0   501     0  0.000000000E+00  0.000000000E+00 -3.419555570E+02  3.419555570E+02  0.000000000E+00  0.00000E+00  9.000E+00
      25     1     1     2     0     0  7.726648777E+01  1.538947744E+02  1.209946673E+01  2.131316702E+02  1.250000000E+02  0.00000E+00  9.000E+00
      25     1     1     2     0     0 -6.137300460E+01 -1.354427280E+02 -1.114103580E+02  2.239389339E+02  1.250000000E+02  0.00000E+00  9.000E+00
       2     1     1     2   502     0 -1.589348317E+01 -1.845204645E+01 -7.175476946E+01  7.577484917E+01  1.651812370E-06  0.00000E+00  9.000E+00
#rwgt            1           1   4.7270303597836155E-002           4      473653           0
</event>
<event>
      5   9999  3.79277E-02  1.28391E+01 -1.00000E+00  1.83994E-01
      21    -1     0     0   502   501  0.000000000E+00  0.000000000E+00  4.708631514E+02  4.708631514E+02  0.000000000E+00  0.00000E+00  9.000E+00
       5    -1     0     0   501     0  0.000000000E+00  0.000000000E+00 -4.202139361E+02  4.202139361E+02  0.000000000E+00  0.00000E+00  9.000E+00
      25     1     1     2     0     0  4.487385624E+01  5.791314834E+01  4.040058722E+02  4.292008160E+02  1.250000000E+02  0.00000E+00  9.000E+00
      25     1     1     2     0     0 -3.317456621E+01 -5.262446665E+01 -3.590723583E+01  1.441673192E+02  1.250000000E+02  0.00000E+00  9.000E+00
       5     1     1     2   502     0 -1.169929003E+01 -5.288681689E+00 -3.174494210E+02  3.177089524E+02  5.394796609E-06  0.00000E+00  9.000E+00
#rwgt            1           1   2.8805151967249729E-002           4      473869           0
</event>
<event>
      5   9999  3.79277E-02  5.47774E+01 -1.00000E+00  1.36851E-01
      21    -1     0     0   502   511  0.000000000E+00  0.000000000E+00  7.197782797E+02  7.197782797E+02  0.000000000E+00  0.00000E+00  9.000E+00
      21    -1     0     0   501   502  0.000000000E+00  0.000000000E+00 -8.308473208E+01  8.308473208E+01  0.000000000E+00  0.00000E+00  9.000E+00
      25     1     1     2     0     0 -9.222077884E+00 -8.222462857E+01  3.483020117E+01  1.538963261E+02  1.250000000E+02  0.00000E+00  9.000E+00
      25     1     1     2     0     0 -3.656751011E+01  1.122892276E+02  3.352085535E+02  3.767437163E+02  1.250000000E+02  0.00000E+00  9.000E+00
      21     1     1     2   501   511  4.578958800E+01 -3.006459901E+01  2.666547929E+02  2.722229694E+02  3.814697266E-06  0.00000E+00  9.000E+00
#rwgt            1           1   2.2637289316037951E-002           4      474180           0
</event>
<event>
      5   9999  3.79277E-02  8.35662E+01 -1.00000E+00  1.27439E-01
       5    -1     0     0   502     0  0.000000000E+00  0.000000000E+00  1.720989047E+02  1.720989047E+02  0.000000000E+00  0.00000E+00  9.000E+00
      21    -1     0     0   501   502  0.000000000E+00  0.000000000E+00 -8.009558427E+02  8.009558427E+02  0.000000000E+00  0.00000E+00  9.000E+00
      25     1     1     2     0     0  8.082824540E+01 -2.205412197E+02 -4.278391603E+02  5.038283259E+02  1.250000000E+02  0.00000E+00  9.000E+00
      25     1     1     2     0     0 -1.393394223E+02  1.608775224E+02 -2.663658961E+02  3.631430054E+02  1.250000000E+02  0.00000E+00  9.000E+00
       5     1     1     2   501     0  5.851117688E+01  5.966369737E+01  6.534811830E+01  1.060834161E+02  9.536743164E-07  0.00000E+00  9.000E+00
#rwgt            1           1   3.3742572018160277E-002           4      474320           0
</event>
<event>
      5   9999  3.79277E-02  1.58710E+01 -1.00000E+00  1.75105E-01
      21    -1     0     0   502   511  0.000000000E+00  0.000000000E+00  3.419422566E+02  3.419422566E+02  0.000000000E+00  0.00000E+00  9.000E+00
      21    -1     0     0   501   502  0.000000000E+00  0.000000000E+00 -1.946799633E+02  1.946799633E+02  0.000000000E+00  0.00000E+00  9.000E+00
      25     1     1     2     0     0  1.783950906E+02 -4.450825812E+01  8.516043979E+01  2.380821159E+02  1.250000000E+02  0.00000E+00  9.000E+00
      25     1     1     2     0     0 -1.782360221E+02  2.863804778E+01 -1.474677195E+01  2.200697268E+02  1.250000000E+02  0.00000E+00  9.000E+00
      21     1     1     2   501   511 -1.590684987E-01  1.587021034E+01  7.684862543E+01  7.847037727E+01  9.536743164E-07  0.00000E+00  9.000E+00
#rwgt            1           1   3.5590004399658141E-002           4      474400           0
</event>
<event>
      5   9999 -3.79277E-02  5.86165E+01 -1.00000E+00  1.35247E-01
      21    -1     0     0   502   501  0.000000000E+00  0.000000000E+00  1.922213093E+02  1.922213093E+02  0.000000000E+00  0.00000E+00  9.000E+00
      21    -1     0     0   512   502  0.000000000E+00  0.000000000E+00 -1.436712014E+03  1.436712014E+03  0.000000000E+00  0.00000E+00  9.000E+00
      25     1     1     2     0     0 -1.602922175E+02 -1.765415018E+02  6.378654359E+01  2.766843327E+02  1.250000000E+02  0.00000E+00  9.000E+00
      25     1     1     2     0     0  1.131303301E+02  2.113502353E+02 -8.982802686E+02  9.380830638E+02  1.250000000E+02  0.00000E+00  9.000E+00
      21     1     1     2   512   501  4.716188732E+01 -3.480873350E+01 -4.099969796E+02  4.141659267E+02  5.394796609E-06  0.00000E+00  9.000E+00
#rwgt            1           1 -0.19848643056322038                4      474657           0
</event>
<event>
      5   9999  3.79277E-02  4.75039E+01 -1.00000E+00  1.40356E-01
      21    -1     0     0   502   501  0.000000000E+00  0.000000000E+00  1.549893768E+02  1.549893768E+02  0.000000000E+00  0.00000E+00  9.000E+00
      21    -1     0     0   501   511  0.000000000E+00  0.000000000E+00 -4.921578679E+02  4.921578679E+02  0.000000000E+00  0.00000E+00  9.000E+00
      25     1     1     2     0     0 -1.512967330E+02 -8.552939681E+01 -2.605188344E+02  3.371958514E+02  1.250000000E+02  0.00000E+00  9.000E+00
      25     1     1     2     0     0  1.949838138E+02  6.687311788E+01 -2.924244264E+01  2.428390866E+02  1.250000000E+02  0.00000E+00  9.000E+00
      21     1     1     2   502   511 -4.368708075E+01  1.865627893E+01 -4.740721412E+01  6.711230676E+01  1.168007728E-06  0.00000E+00  9.000E+00
#rwgt            1           1   3.6167215269700403E-002           4      474854           0
</event>
<event>
      5   9999  3.79277E-02  8.76964E+01 -1.00000E+00  1.26448E-01
      21    -1     0     0   502   501  0.000000000E+00  0.000000000E+00  3.915009523E+02  3.915009523E+02  0.000000000E+00  0.00000E+00  9.000E+00
      21    -1     0     0   501   512  0.000000000E+00  0.000000000E+00 -9.243389384E+02  9.243389384E+02  0.000000000E+00  0.00000E+00  9.000E+00
      25     1     1     2     0     0  4.733541315E+02  5.493947552E+01 -3.374755670E+02  5.971576325E+02  1.250000000E+02  0.00000E+00  9.000E+00
      25     1     1     2     0     0 -5.336967715E+02  8.695557399E+00 -5.205937333E+01  5.506750721E+02  1.250000000E+02  0.00000E+00  9.000E+00
      21     1     1     2   502   512  6.034264008E+01 -6.363503292E+01 -1.433030459E+02  1.680071861E+02  1.907348633E-06  0.00000E+00  9.000E+00
#rwgt            1           1   5.3329870150920194E-002           4      475045           0
</event>
<event>
      5   9999  3.79277E-02  2.97685E+01 -1.00000E+00  1.53274E-01
      21    -1     0     0   511   501  0.000000000E+00  0.000000000E+00  1.391989280E+02  1.391989280E+02  0.000000000E+00  0.00000E+00  9.000E+00
      21    -1     0     0   501   502  0.000000000E+00  0.000000000E+00 -3.571877985E+02  3.571877985E+02  0.000000000E+00  0.00000E+00  9.000E+00
      25     1     1     2     0     0  1.056070975E+02  7.323097483E+00 -5.861604928E+01  1.739750787E+02  1.250000000E+02  0.00000E+00  9.000E+00
      25     1     1     2     0     0 -1.245368278E+02  1.565147768E+01 -2.031099028E+02  2.695051444E+02  1.250000000E+02  0.00000E+00  9.000E+00
      21     1     1     2   511   502  1.892973030E+01 -2.297457516E+01  4.373708165E+01  5.290650342E+01  1.066240300E-06  0.00000E+00  9.000E+00
#rwgt            1           1   3.7421936774202712E-002           4      475270           0
</event>
<event>
      5   9999  3.79277E-02  7.82932E+01 -1.00000E+00  1.28804E-01
      21    -1     0     0   502   512  0.000000000E+00  0.000000000E+00  5.981440849E+02  5.981440849E+02  0.000000000E+00  0.00000E+00  9.000E+00
      21    -1     0     0   501   502  0.000000000E+00  0.000000000E+00 -1.460913283E+02  1.460913283E+02  0.000000000E+00  0.00000E+00  9.000E+00
      25     1     1     2     0     0  7.064081597E+01  1.619581877E+02  3.208109523E+02  3.869951505E+02  1.250000000E+02  0.00000E+00  9.000E+00
      25     1     1     2     0     0 -7.876578523E+01 -8.408776368E+01 -3.492730475E+01  1.735503314E+02  1.250000000E+02  0.00000E+00  9.000E+00
      21     1     1     2   501   512  8.124969256E+00 -7.787042402E+01  1.661691091E+02  1.836899313E+02  3.303624740E-06  0.00000E+00  9.000E+00
#rwgt            1           1   4.4971833971766642E-002           4      475411           0
</event>
<event>
      5   9999  3.79277E-02  6.86107E+01 -1.00000E+00  1.31663E-01
      21    -1     0     0   502   501  0.000000000E+00  0.000000000E+00  1.351098296E+03  1.351098296E+03  0.000000000E+00  0.00000E+00  9.000E+00
      -4    -1     0     0     0   502  0.000000000E+00  0.000000000E+00 -5.081905133E+01  5.081905133E+01  0.000000000E+00  0.00000E+00  9.000E+00
      25     1     1     2     0     0  1.673237774E+02  9.889408878E+01  5.266017209E+02  5.750753514E+02  1.250000000E+02  0.00000E+00  9.000E+00
      25     1     1     2     0     0 -9.884758869E+01 -1.031888610E+02  7.036209261E+02  7.287840520E+02  1.250000000E+02  0.00000E+00  9.000E+00
      -4     1     1     2     0   501 -6.847618873E+01  4.294772214E+00  7.005659755E+01  9.805794384E+01  2.336015456E-06  0.00000E+00  9.000E+00
#rwgt            1           1   6.1342679835946178E-002           4      475583           0
</event>
<event>
      5   9999  3.79277E-02  8.11062E+01 -1.00000E+00  1.28061E-01
      21    -1     0     0   502   511  0.000000000E+00  0.000000000E+00  2.026755501E+02  2.026755501E+02  0.000000000E+00  0.00000E+00  9.000E+00
      21    -1     0     0   501   502  0.000000000E+00  0.000000000E+00 -8.077536954E+02  8.077536954E+02  0.000000000E+00  0.00000E+00  9.000E+00
      25     1     1     2     0     0  7.679793437E+01 -1.774681778E+02 -4.910779704E+02  5.423794335E+02  1.250000000E+02  0.00000E+00  9.000E+00
      25     1     1     2     0     0 -1.487442761E+02  2.149105748E+02 -1.982885435E+02  3.510765747E+02  1.250000000E+02  0.00000E+00  9.000E+00
      21     1     1     2   501   511  7.194634173E+01 -3.744239701E+01  8.428836858E+01  1.169732374E+02  1.651812370E-06  0.00000E+00  9.000E+00
#rwgt            1           1   4.0482428993939702E-002           4      475767           0
</event>
<event>
      5   9999  3.79277E-02  4.68529E+01 -1.00000E+00  1.40706E-01
      21    -1     0     0   502   512  0.000000000E+00  0.000000000E+00  4.426552361E+02  4.426552361E+02  0.000000000E+00  0.00000E+00  9.000E+00
      21    -1     0     0   501   502  0.000000000E+00  0.000000000E+00 -1.431225839E+02  1.431225839E+02  0.000000000E+00  0.00000E+00  9.000E+00
      25     1     1     2     0     0  1.308191214E+02 -8.484911000E+01  8.286897734E+01  2.163452828E+02  1.250000000E+02  0.00000E+00  9.000E+00
      25     1     1     2     0     0 -1.738132987E+02  6.622937799E+01  1.032947588E+02  2.467634505E+02  1.250000000E+02  0.00000E+00  9.000E+00
      21     1     1     2   501   512  4.299417734E+01  1.861973201E+01  1.133689160E+02  1.226690867E+02  1.348699152E-06  0.00000E+00  9.000E+00
#rwgt            1           1   3.6739014763586465E-002           4      475866           0
</event>
<event>
      5   9999  3.79277E-02  7.11166E+01 -1.00000E+00  1.30874E-01
      21    -1     0     0   502   501  0.000000000E+00  0.000000000E+00  3.354911670E+02  3.354911670E+02  0.000000000E+00  0.00000E+00  9.000E+00
      21    -1     0     0   501   511  0.000000000E+00  0.000000000E+00 -2.695417490E+02  2.695417490E+02  0.000000000E+00  0.00000E+00  9.000E+00
      25     1     1     2     0     0 -2.118201879E+02 -7.172512564E+01  1.746109489E+02  3.100423667E+02  1.250000000E+02  0.00000E+00  9.000E+00
      25     1     1     2     0     0  1.432559520E+02  5.284349463E+01 -1.055947671E+02  2.238078585E+02  1.250000000E+02  0.00000E+00  9.000E+00
      21     1     1     2   502   511  6.856423584E+01  1.888163101E+01 -3.066763852E+00  7.118269078E+01  1.479948642E-06  0.00000E+00  9.000E+00
#rwgt            1           1   1.4519489781348999E-002           4      475976           0
</event>
<event>
      5   9999  3.79277E-02  4.58811E+01 -1.00000E+00  1.41240E-01
       3    -1     0     0   502     0  0.000000000E+00  0.000000000E+00  8.210216485E+01  8.210216485E+01  0.000000000E+00  0.00000E+00  9.000E+00
      21    -1     0     0   501   502  0.000000000E+00  0.000000000E+00 -1.999820669E+03  1.999820669E+03  0.000000000E+00  0.00000E+00  9.000E+00
      25     1     1     2     0     0 -8.502899803E+01  1.196845261E+02 -9.014459310E+02  9.218373408E+02  1.250000000E+02  0.00000E+00  9.000E+00
      25     1     1     2     0     0  4.077618249E+01 -1.075700131E+02 -1.073431112E+03  1.086790393E+03  1.250000000E+02  0.00000E+00  9.000E+00
       3     1     1     2   501     0  4.425281554E+01 -1.211451303E+01  5.715853929E+01  7.329510027E+01  3.754619538E-06  0.00000E+00  9.000E+00
#rwgt            1           1   9.2199330090749793E-002           4      476062           0
</event>
<event>
      5   9999  3.79277E-02  5.42110E+01 -1.00000E+00  1.37101E-01
      21    -1     0     0   502   501  0.000000000E+00  0.000000000E+00  5.483400540E+02  5.483400540E+02  0.000000000E+00  0.00000E+00  9.000E+00
      21    -1     0     0   501   511  0.000000000E+00  0.000000000E+00 -1.279776082E+02  1.279776082E+02  0.000000000E+00  0.00000E+00  9.000E+00
      25     1     1     2     0     0 -1.665443987E+02  3.430825812E+01  2.930914947E+02  3.611671601E+02  1.250000000E+02  0.00000E+00  9.000E+00
      25     1     1     2     0     0  1.775884405E+02 -8.738236987E+01  1.024592707E+02  2.555312797E+02  1.250000000E+02  0.00000E+00  9.000E+00
      21     1     1     2   502   511 -1.104404185E+01  5.307411175E+01  2.481168038E+01  5.961922242E+01  8.920806376E-07  0.00000E+00  9.000E+00
#rwgt            1           1   3.7366876993791862E-002           4      476338           0
</event>
<event>
      5   9999  3.79277E-02  1.26705E+02 -1.00000E+00  1.19374E-01
       2    -1     0     0   502     0  0.000000000E+00  0.000000000E+00  1.769158540E+03  1.769158540E+03  0.000000000E+00  0.00000E+00  9.000E+00
      21    -1     0     0   501   502  0.000000000E+00  0.000000000E+00 -6.448564016E+01  6.448564016E+01  0.000000000E+00  0.00000E+00  9.000E+00
      25     1     1     2     0     0 -1.458137264E+02 -8.851621001E+01  4.262701196E+02  4.758444884E+02  1.250000000E+02  0.00000E+00  9.000E+00
      25     1     1     2     0     0  1.233327317E+02 -3.617856770E+01  1.869879305E+02  2.590547001E+02  1.250000000E+02  0.00000E+00  9.000E+00
       2     1     1     2   501     0  2.248099471E+01  1.246947777E+02  1.091414850E+03  1.098744992E+03  2.157918644E-05  0.00000E+00  9.000E+00
#rwgt            1           1   1.5337591669594511E-002           4      476456           0
</event>
<event>
      5   9999  3.79277E-02  5.08460E+01 -1.00000E+00  1.38661E-01
      21    -1     0     0   502   511  0.000000000E+00  0.000000000E+00  1.834240787E+03  1.834240787E+03  0.000000000E+00  0.00000E+00  9.000E+00
      21    -1     0     0   501   502  0.000000000E+00  0.000000000E+00 -1.453685322E+02  1.453685322E+02  0.000000000E+00  0.00000E+00  9.000E+00
      25     1     1     2     0     0  1.859735926E+02  1.489539366E+02  4.827555454E+02  5.526765501E+02  1.250000000E+02  0.00000E+00  9.000E+00
      25     1     1     2     0     0 -2.282060414E+02 -1.772689314E+02  1.158521595E+02  3.354832250E+02  1.250000000E+02  0.00000E+00  9.000E+00
      21     1     1     2   501   511  4.223244877E+01  2.831499482E+01  1.090264550E+03  1.091449544E+03  0.000000000E+00  0.00000E+00  9.000E+00
#rwgt            1           1  0.35076141117812515                4      476559           0
</event>
<event>
      5   9999  3.79277E-02  5.41522E+01 -1.00000E+00  1.37127E-01
      21    -1     0     0   512   501  0.000000000E+00  0.000000000E+00  1.749284914E+03  1.749284914E+03  0.000000000E+00  0.00000E+00  9.000E+00
      21    -1     0     0   501   502  0.000000000E+00  0.000000000E+00 -1.203658264E+02  1.203658264E+02  0.000000000E+00  0.00000E+00  9.000E+00
      25     1     1     2     0     0  8.940803117E-01 -4.087246934E+02  7.079777303E+02  8.269910162E+02  1.250000000E+02  0.00000E+00  9.000E+00
      25     1     1     2     0     0  1.243953221E+01  3.562396601E+02  5.466074286E+02  6.644291673E+02  1.250000000E+02  0.00000E+00  9.000E+00
      21     1     1     2   512   502 -1.333361253E+01  5.248503324E+01  3.743339291E+02  3.782305572E+02  5.394796609E-06  0.00000E+00  9.000E+00
#rwgt            1           1   6.3889091555424382E-002           4      476755           0
</event>
<event>
      5   9999  3.79277E-02  5.19912E+01 -1.00000E+00  1.38115E-01
      21    -1     0     0   502   501  0.000000000E+00  0.000000000E+00  1.129227101E+03  1.129227101E+03  0.000000000E+00  0.00000E+00  9.000E+00
      -1    -1     0     0     0   502  0.000000000E+00  0.000000000E+00 -2.908606673E+02  2.908606673E+02  0.000000000E+00  0.00000E+00  9.000E+00
      25     1     1     2     0     0 -6.039200055E+01 -3.889911898E+01  9.196323761E+02  9.308646746E+02  1.250000000E+02  0.00000E+00  9.000E+00
      25     1     1     2     0     0  1.098424943E+02  2.284489867E+01  1.662362103E+02  2.363191498E+02  1.250000000E+02  0.00000E+00  9.000E+00
      -1     1     1     2     0   501 -4.945049374E+01  1.605422030E+01 -2.475021527E+02  2.529039440E+02  3.814697266E-06  0.00000E+00  9.000E+00
#rwgt            1           1   1.4646221116305284E-002           4      477125           0
</event>
<event>
      5   9999  3.79277E-02  7.46394E+01 -1.00000E+00  1.29825E-01
      21    -1     0     0   502   501  0.000000000E+00  0.000000000E+00  2.006574586E+02  2.006574586E+02  0.000000000E+00  0.00000E+00  9.000E+00
      21    -1     0     0   511   502  0.000000000E+00  0.000000000E+00 -1.197197321E+03  1.197197321E+03  0.000000000E+00  0.00000E+00  9.000E+00
      25     1     1     2     0     0  2.289518796E+02 -1.427717219E+02 -2.007390650E+02  3.587811310E+02  1.250000000E+02  0.00000E+00  9.000E+00
      25     1     1     2     0     0 -2.237267654E+02  2.172279626E+02 -1.163468235E+02  3.555323285E+02  1.250000000E+02  0.00000E+00  9.000E+00
      21     1     1     2   511   501 -5.225114270E+00 -7.445624075E+01 -6.794539741E+02  6.835413203E+02  1.078959322E-05  0.00000E+00  9.000E+00
#rwgt            1           1   7.2985066030131274E-002           4      477215           0
</event>
<event>
      5   9999 -3.79277E-02  1.65887E+01 -1.00000E+00  1.73361E-01
      21    -1     0     0   512   501  0.000000000E+00  0.000000000E+00  4.285503924E+02  4.285503924E+02  0.000000000E+00  0.00000E+00  9.000E+00
      21    -1     0     0   501   502  0.000000000E+00  0.000000000E+00 -1.773554524E+02  1.773554524E+02  0.000000000E+00  0.00000E+00  9.000E+00
      25     1     1     2     0     0 -1.841851205E+02 -1.849144394E+01  1.157013583E+02  2.515509817E+02  1.250000000E+02  0.00000E+00  9.000E+00
      25     1     1     2     0     0  2.000190592E+02  2.343822756E+01  2.021389185E+01  2.378877382E+02  1.250000000E+02  0.00000E+00  9.000E+00
      21     1     1     2   512   502 -1.583393873E+01 -4.946783626E+00  1.152796898E+02  1.164671248E+02  1.907348633E-06  0.00000E+00  9.000E+00
#rwgt            1           1  -1.7717141814903643E-002           4      477373           0
</event>
<event>
      5   9999  3.79277E-02  9.84676E+01 -1.00000E+00  1.24130E-01
      21    -1     0     0   502   511  0.000000000E+00  0.000000000E+00  3.547392971E+02  3.547392971E+02  0.000000000E+00  0.00000E+00  9.000E+00
      21    -1     0     0   501   502  0.000000000E+00  0.000000000E+00 -4.496869333E+02  4.496869333E+02  0.000000000E+00  0.00000E+00  9.000E+00
      25     1     1     2     0     0  6.708516506E+01  5.185757441E+01 -1.938484551E+02  2.457475349E+02  1.250000000E+02  0.00000E+00  9.000E+00
      25     1     1     2     0     0 -1.372495627E+02  1.722812703E+01 -1.822892436E+02  2.607462735E+02  1.250000000E+02  0.00000E+00  9.000E+00
      21     1     1     2   501   511  7.016439765E+01 -6.908570144E+01  2.811900625E+02  2.979324220E+02  3.814697266E-06  0.00000E+00  9.000E+00
#rwgt            1           1   3.6690376124825244E-002           4      477534           0
</event>
<event>
      5   9999  3.79277E-02  1.97004E+02 -1.00000E+00  1.11887E-01
      21    -1     0     0   512   501  0.000000000E+00  0.000000000E+00  8.782161220E+02  8.782161220E+02  0.000000000E+00  0.00000E+00  9.000E+00
      21    -1     0     0   501   502  0.000000000E+00  0.000000000E+00 -5.618466491E+02  5.618466491E+02  0.000000000E+00  0.00000E+00  9.000E+00
      25     1     1     2     0     0 -1.278612634E+02  1.392454952E+01 -4.600364360E+02  4.937620056E+02  1.250000000E+02  0.00000E+00  9.000E+00
      25     1     1     2     0     0  2.266704188E+02  1.565085940E+02  6.363493700E+02  7.045849413E+02  1.250000000E+02  0.00000E+00  9.000E+00
      21     1     1     2   512   502 -9.880915546E+01 -1.704331436E+02  1.400565388E+02  2.417158242E+02  2.697398305E-06  0.00000E+00  9.000E+00
#rwgt            1           1   2.4899419036002617E-002           4      477574           0
</event>
<event>
      5   9999  3.79277E-02  1.16445E+02 -1.00000E+00  1.20925E-01
       3    -1     0     0   502     0  0.000000000E+00  0.000000000E+00  6.028685059E+01  6.028685059E+01  0.000000000E+00  0.00000E+00  9.000E+00
      21    -1     0     0   501   502  0.000000000E+00  0.000000000E+00 -1.740568743E+03  1.740568743E+03  0.000000000E+00  0.00000E+00  9.000E+00
      25     1     1     2     0     0 -1.479464966E+02 -5.169279326E+01 -1.023562930E+03  1.043008333E+03  1.250000000E+02  0.00000E+00  9.000E+00
      25     1     1     2     0     0  9.489233225E+01  1.553491815E+02 -5.740028488E+02  6.150139781E+02  1.250000000E+02  0.00000E+00  9.000E+00
       3     1     1     2   501     0  5.305416438E+01 -1.036563882E+02 -8.271611376E+01  1.428332827E+02  3.015782986E-06  0.00000E+00  9.000E+00
#rwgt            1           1   3.7772293114373717E-002           4      477765           0
</event>
<event>
      5   9999  3.79277E-02  9.50435E+00 -1.00000E+00  1.98344E-01
      21    -1     0     0   511   501  0.000000000E+00  0.000000000E+00  4.410552039E+01  4.410552039E+01  0.000000000E+00  0.00000E+00  9.000E+00
      21    -1     0     0   501   502  0.000000000E+00  0.000000000E+00 -1.023859270E+03  1.023859270E+03  0.000000000E+00  0.00000E+00  9.000E+00
      25     1     1     2     0     0 -5.681801084E+01 -1.483491279E+02 -5.444350148E+02  5.807497184E+02  1.250000000E+02  0.00000E+00  9.000E+00
      25     1     1     2     0     0  6.291446398E+01  1.556406262E+02 -4.163830753E+02  4.660280031E+02  1.250000000E+02  0.00000E+00  9.000E+00
      21     1     1     2   511   502 -6.096453143E+00 -7.291498308E+00 -1.893566002E+01  2.118706938E+01  2.384185791E-07  0.00000E+00  9.000E+00
#rwgt            1           1   4.5711858693936139E-002           4      477907           0
</event>
<event>
      5   9999 -3.79277E-02  3.60959E+01 -1.00000E+00  1.47662E-01
      21    -1     0     0   502   512  0.000000000E+00  0.000000000E+00  4.034285653E+02  4.034285653E+02  0.000000000E+00  0.00000E+00  9.000E+00
      21    -1     0     0   501   502  0.000000000E+00  0.000000000E+00 -1.343430921E+02  1.343430921E+02  0.000000000E+00  0.00000E+00  9.000E+00
      25     1     1     2     0     0  6.121707528E+01 -9.720729936E+01  1.073407186E+02  2.008577089E+02  1.250000000E+02  0.00000E+00  9.000E+00
      25     1     1     2     0     0 -9.643707144E+01  1.051106670E+02  2.008404174E+01  1.907268461E+02  1.250000000E+02  0.00000E+00  9.000E+00
      21     1     1     2   501   512  3.521999616E+01 -7.903367677E+00  1.416607129E+02  1.461871024E+02  0.000000000E+00  0.00000E+00  9.000E+00
#rwgt            1           1 -0.16012273031083593                4      478143           0
</event>
<event>
      5   9999  3.79277E-02  4.44655E+01 -1.00000E+00  1.42046E-01
      21    -1     0     0   511   501  0.000000000E+00  0.000000000E+00  4.842068707E+01  4.842068707E+01  0.000000000E+00  0.00000E+00  9.000E+00
      21    -1     0     0   501   502  0.000000000E+00  0.000000000E+00 -1.482575891E+03  1.482575891E+03  0.000000000E+00  0.00000E+00  9.000E+00
      25     1     1     2     0     0 -9.325590346E+01  1.417160860E+02 -3.686730260E+02  4.246468094E+02  1.250000000E+02  0.00000E+00  9.000E+00
      25     1     1     2     0     0  1.290749807E+02 -1.153689568E+02 -1.022316201E+03  1.044378170E+03  1.250000000E+02  0.00000E+00  9.000E+00
      21     1     1     2   511   502 -3.581907723E+01 -2.634712914E+01 -4.316597695E+01  6.197159892E+01  1.261592536E-06  0.00000E+00  9.000E+00
#rwgt            1           1   2.8403279432875808E-002           4      478311           0
</event>
<event>
      5   9999  3.79277E-02  6.36961E+01 -1.00000E+00  1.33331E-01
      21    -1     0     0   512   501  0.000000000E+00  0.000000000E+00  6.369146612E+02  6.369146612E+02  0.000000000E+00  0.00000E+00  9.000E+00
      21    -1     0     0   501   502  0.000000000E+00  0.000000000E+00 -7.627854412E+01  7.627854412E+01  0.000000000E+00  0.00000E+00  9.000E+00
      25     1     1     2     0     0  8.571295138E+00 -2.490097897E+01  3.738380234E+02  3.950612529E+02  1.250000000E+02  0.00000E+00  9.000E+00
      25     1     1     2     0     0 -4.995386421E+01 -2.352081762E+01  1.814423970E+01  1.378507557E+02  1.250000000E+02  0.00000E+00  9.000E+00
      21     1     1     2   512   502  4.138256908E+01  4.842179659E+01  1.686538540E+02  1.802811967E+02  2.697398305E-06  0.00000E+00  9.000E+00
#rwgt            1           1   2.3351544869402371E-002           4      478388           0
</event>
<event>
      5   9999  3.79277E-02  7.58894E+00 -1.00000E+00  2.10712E-01
      21    -1     0     0   502   501  0.000000000E+00  0.000000000E+00  8.655180218E+02  8.655180218E+02  0.000000000E+00  0.00000E+00  9.000E+00
      21    -1     0     0   501   511  0.000000000E+00  0.000000000E+00 -7.120770554E+01  7.120770554E+01  0.000000000E+00  0.00000E+00  9.000E+00
      25     1     1     2     0     0  2.136122904E+01  1.772279523E+02  1.962206383E+02  2.932466335E+02  1.250000000E+02  0.00000E+00  9.000E+00
      25     1     1     2     0     0 -2.803249783E+01 -1.808454305E+02  5.955938150E+02  6.354902699E+02  1.250000000E+02  0.00000E+00  9.000E+00
      21     1     1     2   502   511  6.671268796E+00  3.617478172E+00  2.495863000E+00  7.988823931E+00  1.154238983E-07  0.00000E+00  9.000E+00
#rwgt            1           1   3.4540803667247016E-002           4      478537           0
</event>
<event>
      5   9999  3.79277E-02  7.05892E+01 -1.00000E+00  1.31037E-01
      21    -1     0     0   512   501  0.000000000E+00  0.000000000E+00  2.926421980E+02  2.926421980E+02  0.000000000E+00  0.00000E+00  9.000E+00
      21    -1     0     0   501   502  0.000000000E+00  0.000000000E+00 -2.158849729E+02  2.158849729E+02  0.000000000E+00  0.00000E+00  9.000E+00
      25     1     1     2     0     0  1.041119520E+02  2.470641542E+01 -8.337445938E+01  1.844613943E+02  1.250000000E+02  0.00000E+00  9.000E+00
      25     1     1     2     0     0 -1.668427190E+02  7.661610085E+00  1.378411143E+02  2.500407286E+02  1.250000000E+02  0.00000E+00  9.000E+00
      21     1     1     2   512   502  6.273076706E+01 -3.236802551E+01  2.229057029E+01  7.402504802E+01  1.305872339E-06  0.00000E+00  9.000E+00
#rwgt            1           1   3.9158666404890970E-002           4      479228           0
</event>
<event>
      5   9999  3.79277E-02  7.42632E+01 -1.00000E+00  1.29933E-01
      -3    -1     0     0     0   501  0.000000000E+00  0.000000000E+00  2.017658975E+02  2.017658975E+02  0.000000000E+00  0.00000E+00  9.000E+00
      21    -1     0     0   501   502  0.000000000E+00  0.000000000E+00 -1.081522904E+03  1.081522904E+03  0.000000000E+00  0.00000E+00  9.000E+00
      25     1     1     2     0     0 -2.292322453E+01 -2.132856639E+02 -3.838734369E+02  4.571652482E+02  1.250000000E+02  0.00000E+00  9.000E+00
      25     1     1     2     0     0 -4.779726238E+01  2.359492126E+02 -6.226691246E+02  6.791895523E+02  1.250000000E+02  0.00000E+00  9.000E+00
      -3     1     1     2     0   502  7.072048690E+01 -2.266354870E+01  1.267855549E+02  1.469340010E+02  3.303624740E-06  0.00000E+00  9.000E+00
#rwgt            1           1   3.0353127494737678E-002           4      479326           0
</event>
<event>
      5   9999  3.79277E-02  8.37907E+01 -1.00000E+00  1.27384E-01
       2    -1     0     0   502     0  0.000000000E+00  0.000000000E+00  1.358070007E+03  1.358070007E+03  0.000000000E+00  0.00000E+00  9.000E+00
      21    -1     0     0   501   502  0.000000000E+00  0.000000000E+00 -3.515291457E+02  3.515291457E+02  0.000000000E+00  0.00000E+00  9.000E+00
      25     1     1     2     0     0 -9.821884832E+01  9.921629074E+01 -1.122009255E+02  2.184144276E+02  1.250000000E+02  0.00000E+00  9.000E+00
      25     1     1     2     0     0  3.523027159E+01 -1.544732025E+02 -1.297246632E+02  2.399096300E+02  1.250000000E+02  0.00000E+00  9.000E+00
       2     1     1     2   501     0  6.298857673E+01  5.525691174E+01  1.248466450E+03  1.251275095E+03  1.525878906E-05  0.00000E+00  9.000E+00
#rwgt            1           1   3.7527316415383268E-002           4      479535           0
</event>
<event>
      5   9999 -3.79277E-02  1.86687E+01 -1.00000E+00  1.68876E-01
      21    -1     0     0   502   501  0.000000000E+00  0.000000000E+00  3.220787386E+02  3.220787386E+02  0.000000000E+00  0.00000E+00  9.000E+00
      21    -1     0     0   511   502  0.000000000E+00  0.000000000E+00 -3.927617438E+02  3.927617438E+02  0.000000000E+00  0.00000E+00  9.000E+00
      25     1     1     2     0     0 -8.493315028E+01  7.614741504E+01  4.760457010E+01  1.757932420E+02  1.250000000E+02  0.00000E+00  9.000E+00
      25     1     1     2     0     0  7.614892697E+01 -9.262039769E+01  1.743795347E+02  2.457853113E+02  1.250000000E+02  0.00000E+00  9.000E+00
      21     1     1     2   511   501  8.784223317E+00  1.647298265E+01 -2.926671100E+02  2.932619290E+02  3.814697266E-06  0.00000E+00  9.000E+00
#rwgt            1           1  -8.1416110604201133E-002           4      479606           0
</event>
<event>
      5   9999  3.79277E-02  6.20998E+01 -1.00000E+00  1.33910E-01
      21    -1     0     0   512   501  0.000000000E+00  0.000000000E+00  1.606403905E+02  1.606403905E+02  0.000000000E+00  0.00000E+00  9.000E+00
      21    -1     0     0   501   502  0.000000000E+00  0.000000000E+00 -1.509520751E+03  1.509520751E+03  0.000000000E+00  0.00000E+00  9.000E+00
      25     1     1     2     0     0  7.959113995E+01  7.945295012E+01 -1.393854021E+03  1.403959242E+03  1.250000000E+02  0.00000E+00  9.000E+00
      25     1     1     2     0     0 -3.694383786E+01 -1.245926748E+02 -1.361335783E+01  1.808272803E+02  1.250000000E+02  0.00000E+00  9.000E+00
      21     1     1     2   512   502 -4.264730209E+01  4.513972470E+01  5.858701761E+01  8.537462008E+01  9.536743164E-07  0.00000E+00  9.000E+00
#rwgt            1           1   3.9144481011325463E-002           4      479807           0
</event>
<event>
      5   9999  3.79277E-02  5.69031E+01 -1.00000E+00  1.35945E-01
      21    -1     0     0   502   501  0.000000000E+00  0.000000000E+00  5.264597542E+02  5.264597542E+02  0.000000000E+00  0.00000E+00  9.000E+00
      21    -1     0     0   501   511  0.000000000E+00  0.000000000E+00 -4.559675085E+02  4.559675085E+02  0.000000000E+00  0.00000E+00  9.000E+00
      25     1     1     2     0     0 -3.083400158E+01  1.236948049E+02  1.300620819E+02  2.208897589E+02  1.250000000E+02  0.00000E+00  9.000E+00
      25     1     1     2     0     0 -2.568028533E+01 -1.170545074E+02  3.274171779E+02  3.703893129E+02  1.250000000E+02  0.00000E+00  9.000E+00
      21     1     1     2   502   511  5.651428691E+01 -6.640297505E+00 -3.869870141E+02  3.911481909E+02  7.629394531E-06  0.00000E+00  9.000E+00
#rwgt            1           1   3.2021735929967030E-002           4      479982           0
</event>
<event>
      5   9999  3.79277E-02  3.76744E+01 -1.00000E+00  1.46472E-01
      21    -1     0     0   502   501  0.000000000E+00  0.000000000E+00  7.382950100E+02  7.382950100E+02  0.000000000E+00  0.00000E+00  9.000E+00
      21    -1     0     0   501   512  0.000000000E+00  0.000000000E+00 -2.444288780E+02  2.444288780E+02  0.000000000E+00  0.00000E+00  9.000E+00
      25     1     1     2     0     0 -1.131495855E+02  9.639270212E+01  2.553777015E+02  3.208382025E+02  1.250000000E+02  0.00000E+00  9.000E+00
      25     1     1     2     0     0  7.673667907E+01 -8.672504459E+01  4.321831231E+02  4.645610866E+02  1.250000000E+02  0.00000E+00  9.000E+00
      21     1     1     2   502   512  3.641290646E+01 -9.667657532E+00 -1.936946927E+02  1.973245989E+02  2.697398305E-06  0.00000E+00  9.000E+00
#rwgt            1           1   2.7120331422706211E-002           4      480120           0
</event>
<event>
      5   9999  3.79277E-02  1.76948E+02 -1.00000E+00  1.13619E-01
      21    -1     0     0   511   501  0.000000000E+00  0.000000000E+00  1.035506005E+03  1.035506005E+03  0.000000000E+00  0.00000E+00  9.000E+00
      21    -1     0     0   501   502  0.000000000E+00  0.000000000E+00 -6.477269743E+02  6.477269743E+02  0.000000000E+00  0.00000E+00  9.000E+00
      25     1     1     2     0     0 -1.002701595E+02  6.089945671E+02 -7.502982170E+01  6.341789667E+02  1.250000000E+02  0.00000E+00  9.000E+00
      25     1     1     2     0     0 -5.507768201E+00 -4.671439119E+02 -6.906622837E+01  4.885170559E+02  1.250000000E+02  0.00000E+00  9.000E+00
      21     1     1     2   511   502  1.057779277E+02 -1.418506552E+02  5.318750809E+02  5.605369569E+02  0.000000000E+00  0.00000E+00  9.000E+00
#rwgt            2          11   3.7421768923468564E-003           4      480221           0
</event>
<event>
      5   9999  3.79277E-02  2.47556E+01 -1.00000E+00  1.59071E-01
      21    -1     0     0   502   501  0.000000000E+00  0.000000000E+00  6.930714566E+02  6.930714566E+02  0.000000000E+00  0.00000E+00  9.000E+00
      21    -1     0     0   512   502  0.000000000E+00  0.000000000E+00 -7.151813441E+01  7.151813441E+01  0.000000000E+00  0.00000E+00  9.000E+00
      25     1     1     2     0     0  4.736597157E+01  1.547670926E+02  2.280747624E+02  3.063323122E+02  1.250000000E+02  0.00000E+00  9.000E+00
      25     1     1     2     0     0 -2.329486856E+01 -1.489857266E+02  3.852276115E+02  4.321628285E+02  1.250000000E+02  0.00000E+00  9.000E+00
      21     1     1     2   512   501 -2.407110300E+01 -5.781366010E+00  8.250948254E+00  2.609445037E+01  6.743495762E-07  0.00000E+00  9.000E+00
#rwgt            1           1   4.3768315849126611E-002           4      480241           0
</event>
<event>
      5   9999  3.79277E-02  7.40400E+01 -1.00000E+00  1.29998E-01
      21    -1     0     0   511   501  0.000000000E+00  0.000000000E+00  2.575824411E+03  2.575824411E+03  0.000000000E+00  0.00000E+00  9.000E+00
      21    -1     0     0   501   502  0.000000000E+00  0.000000000E+00 -2.140673503E+01  2.140673503E+01  0.000000000E+00  0.00000E+00  9.000E+00
      25     1     1     2     0     0 -7.274413814E+01  2.121369983E+00  3.634502738E+02  3.911742723E+02  1.250000000E+02  0.00000E+00  9.000E+00
      25     1     1     2     0     0  1.236753998E+02  5.161809659E+01  1.512899604E+03  1.523958741E+03  1.250000000E+02  0.00000E+00  9.000E+00
      21     1     1     2   511   502 -5.093126166E+01 -5.373946657E+01  6.780677982E+02  6.820981327E+02  0.000000000E+00  0.00000E+00  9.000E+00
#rwgt            1           1   5.6721873107271552E-002           4      480489           0
</event>
<event>
      5   9999  3.79277E-02  3.99605E+01 -1.00000E+00  1.44867E-01
      21    -1     0     0   512   501  0.000000000E+00  0.000000000E+00  2.328369372E+02  2.328369372E+02  0.000000000E+00  0.00000E+00  9.000E+00
      21    -1     0     0   501   502  0.000000000E+00  0.000000000E+00 -2.441317614E+02  2.441317614E+02  0.000000000E+00  0.00000E+00  9.000E+00
      25     1     1     2     0     0 -6.446781515E+01  3.858491529E+01 -1.645989113E+02  2.199152029E+02  1.250000000E+02  0.00000E+00  9.000E+00
      25     1     1     2     0     0  9.603084396E+01 -1.407748225E+01  8.962008130E+01  1.818704414E+02  1.250000000E+02  0.00000E+00  9.000E+00
      21     1     1     2   512   502 -3.156302881E+01 -2.450743305E+01  6.368400580E+01  7.518305431E+01  1.168007728E-06  0.00000E+00  9.000E+00
#rwgt            1           1   6.7949558015546654E-002           4      480589           0
</event>
<event>
      5   9999  3.79277E-02  1.01345E+01 -1.00000E+00  1.95089E-01
      21    -1     0     0   502   511  0.000000000E+00  0.000000000E+00  4.927773992E+02  4.927773992E+02  0.000000000E+00  0.00000E+00  9.000E+00
      21    -1     0     0   501   502  0.000000000E+00  0.000000000E+00 -3.746577537E+02  3.746577537E+02  0.000000000E+00  0.00000E+00  9.000E+00
      25     1     1     2     0     0  4.089284971E+01  1.940430709E+02 -1.806894263E+02  2.959706189E+02  1.250000000E+02  0.00000E+00  9.000E+00
      25     1     1     2     0     0 -3.200307693E+01 -1.989092301E+02 -3.310558517E+01  2.393951932E+02  1.250000000E+02  0.00000E+00  9.000E+00
      21     1     1     2   501   511 -8.889772776E+00  4.866159257E+00  3.319146570E+02  3.320693408E+02  3.814697266E-06  0.00000E+00  9.000E+00
#rwgt            1           1   3.2894975316514981E-002           4      480709           0
</event>
<event>
      5   9999  3.79277E-02  1.72734E+02 -1.00000E+00  1.14015E-01
       2    -1     0     0   502     0  0.000000000E+00  0.000000000E+00  4.714432836E+02  4.714432836E+02  0.000000000E+00  0.00000E+00  9.000E+00
      21    -1     0     0   501   502  0.000000000E+00  0.000000000E+00 -1.647996661E+03  1.647996661E+03  0.000000000E+00  0.00000E+00  9.000E+00
      25     1     1     2     0     0  5.558797576E+01 -1.330352474E+01 -1.179880546E+03  1.187859465E+03  1.250000000E+02  0.00000E+00  9.000E+00
      25     1     1     2     0     0 -1.900738852E+02 -9.509677580E+01 -4.129085987E+02  4.809261789E+02  1.250000000E+02  0.00000E+00  9.000E+00
       2     1     1     2   501     0  1.344859095E+02  1.084003005E+02  4.162357669E+02  4.506543006E+02  1.078959322E-05  0.00000E+00  9.000E+00
#rwgt            1           1   4.4689532622596735E-002           4      481018           0
</event>
<event>
      5   9999  3.79277E-02  7.90849E+00 -1.00000E+00  2.08326E-01
      21    -1     0     0   502   501  0.000000000E+00  0.000000000E+00  3.486939710E+01  3.486939710E+01  0.000000000E+00  0.00000E+00  9.000E+00
       2    -1     0     0   501     0  0.000000000E+00  0.000000000E+00 -4.242016542E+03  4.242016542E+03  0.000000000E+00  0.00000E+00  9.000E+00
      25     1     1     2     0     0 -1.334088939E+02 -1.212637313E+02 -7.712930507E+02  8.018857746E+02  1.250000000E+02  0.00000E+00  9.000E+00
      25     1     1     2     0     0  1.405533215E+02  1.178723598E+02 -6.099728633E+02  6.491078673E+02  1.250000000E+02  0.00000E+00  9.000E+00
       2     1     1     2   502     0 -7.144427609E+00  3.391371523E+00 -2.825881231E+03  2.825892298E+03  4.315837288E-05  0.00000E+00  9.000E+00
#rwgt            1           1   3.7578021257175367E-002           4      481073           0
</event>
<event>
      5   9999  3.79277E-02  1.74997E+01 -1.00000E+00  1.71301E-01
      21    -1     0     0   502   511  0.000000000E+00  0.000000000E+00  1.212736106E+02  1.212736106E+02  0.000000000E+00  0.00000E+00  9.000E+00
      21    -1     0     0   501   502  0.000000000E+00  0.000000000E+00 -1.200447332E+03  1.200447332E+03  0.000000000E+00  0.00000E+00  9.000E+00
      25     1     1     2     0     0  3.068520326E+02 -3.726659074E+01 -5.486467002E+02  6.420164876E+02  1.250000000E+02  0.00000E+00  9.000E+00
      25     1     1     2     0     0 -2.897809062E+02  4.111582702E+01 -5.607558589E+02  6.447756339E+02  1.250000000E+02  0.00000E+00  9.000E+00
      21     1     1     2   501   511 -1.707112642E+01 -3.849236277E+00  3.022883719E+01  3.492882155E+01  3.371747881E-07  0.00000E+00  9.000E+00
#rwgt            1           1   3.7132832957417698E-002           4      481443           0
</event>
<event>
      5   9999  3.79277E-02  4.69065E+01 -1.00000E+00  1.40677E-01
      21    -1     0     0   502   501  0.000000000E+00  0.000000000E+00  1.647850617E+02  1.647850617E+02  0.000000000E+00  0.00000E+00  9.000E+00
      21    -1     0     0   501   512  0.000000000E+00  0.000000000E+00 -7.575900936E+02  7.575900936E+02  0.000000000E+00  0.00000E+00  9.000E+00
      25     1     1     2     0     0  7.609164997E+01  6.535648781E+00  1.158360382E+02  1.867502119E+02  1.250000000E+02  0.00000E+00  9.000E+00
      25     1     1     2     0     0 -3.249821360E+01  1.078013085E+01 -3.374665375E+02  3.614982836E+02  1.250000000E+02  0.00000E+00  9.000E+00
      21     1     1     2   502   512 -4.359343637E+01 -1.731577963E+01 -3.711745326E+02  3.741266598E+02  7.629394531E-06  0.00000E+00  9.000E+00
#rwgt            1           1   4.0097909771503279E-002           4      481729           0
</event>
<event>
      5   9999  3.79277E-02  1.50280E+01 -1.00000E+00  1.77307E-01
      21    -1     0     0   511   501  0.000000000E+00  0.000000000E+00  7.407043870E+02  7.407043870E+02  0.000000000E+00  0.00000E+00  9.000E+00
      21    -1     0     0   501   502  0.000000000E+00  0.000000000E+00 -5.699545223E+02  5.699545223E+02  0.000000000E+00  0.00000E+00  9.000E+00
      25     1     1     2     0     0  9.251505757E+01  1.184386600E+02 -3.745246560E+02  4.224694900E+02  1.250000000E+02  0.00000E+00  9.000E+00
      25     1     1     2     0     0 -8.858100061E+01 -1.039347071E+02 -1.213735496E+02  2.213719846E+02  1.250000000E+02  0.00000E+00  9.000E+00
      21     1     1     2   511   502 -3.934056958E+00 -1.450395289E+01  6.666480703E+02  6.668174346E+02  7.629394531E-06  0.00000E+00  9.000E+00
#rwgt            1           1   1.7750840614283735E-002           4      482029           0
</event>
<event>
      5   9999  3.79277E-02  7.19972E+01 -1.00000E+00  1.30605E-01
      21    -1     0     0   502   501  0.000000000E+00  0.000000000E+00  8.623690156E+02  8.623690156E+02  0.000000000E+00  0.00000E+00  9.000E+00
      -1    -1     0     0     0   502  0.000000000E+00  0.000000000E+00 -3.958381490E+02  3.958381490E+02  0.000000000E+00  0.00000E+00  9.000E+00
      25     1     1     2     0     0 -5.771299927E+01  9.843545875E+01  5.196627979E+02  5.465297369E+02  1.250000000E+02  0.00000E+00  9.000E+00
      25     1     1     2     0     0  1.252823656E+02 -1.232945909E+02  2.898071414E+02  3.612622406E+02  1.250000000E+02  0.00000E+00  9.000E+00
      -1     1     1     2     0   501 -6.756936628E+01  2.485913216E+01 -3.429390727E+02  3.504151871E+02  7.629394531E-06  0.00000E+00  9.000E+00
#rwgt            1           1   1.4625121167874410E-002           4      482200           0
</event>
<event>
      5   9999  3.79277E-02  6.85322E+01 -1.00000E+00  1.31688E-01
      21    -1     0     0   502   501  0.000000000E+00  0.000000000E+00  3.688099485E+02  3.688099485E+02  0.000000000E+00  0.00000E+00  9.000E+00
      21    -1     0     0   511   502  0.000000000E+00  0.000000000E+00 -1.442821084E+02  1.442821084E+02  0.000000000E+00  0.00000E+00  9.000E+00
      25     1     1     2     0     0  9.246524724E+01 -8.917298232E+01  2.030434974E+02  2.708381519E+02  1.250000000E+02  0.00000E+00  9.000E+00
      25     1     1     2     0     0 -2.393378520E+01  8.949123749E+01  5.620875909E+01  1.654265162E+02  1.250000000E+02  0.00000E+00  9.000E+00
      21     1     1     2   511   501 -6.853146204E+01 -3.182551676E-01 -3.472441629E+01  7.682738875E+01  1.066240300E-06  0.00000E+00  9.000E+00
#rwgt            1           1   3.5144282543516578E-002           4      482429           0
</event>
<event>
      5   9999  3.79277E-02  1.96460E+02 -1.00000E+00  1.11931E-01
      -2    -1     0     0     0   501  0.000000000E+00  0.000000000E+00  1.786881233E+02  1.786881233E+02  0.000000000E+00  0.00000E+00  9.000E+00
      21    -1     0     0   501   502  0.000000000E+00  0.000000000E+00 -9.058965823E+02  9.058965823E+02  0.000000000E+00  0.00000E+00  9.000E+00
      25     1     1     2     0     0  3.456106715E+01 -3.066058769E+01 -5.163370415E+02  5.332574232E+02  1.250000000E+02  0.00000E+00  9.000E+00
      25     1     1     2     0     0 -2.180379672E+02 -3.957180191E+01 -2.435077021E+02  3.521753592E+02  1.250000000E+02  0.00000E+00  9.000E+00
      -2     1     1     2     0   502  1.834769001E+02  7.023238961E+01  3.263628454E+01  1.991519231E+02  1.907348633E-06  0.00000E+00  9.000E+00
#rwgt            2           4   5.2496420691225962E-005           4      482507           0
</event>
<event>
      5   9999  3.79277E-02  3.16676E+02 -1.00000E+00  1.04834E-01
      21    -1     0     0   502   501  0.000000000E+00  0.000000000E+00  2.119034701E+02  2.119034701E+02  0.000000000E+00  0.00000E+00  9.000E+00
       2    -1     0     0   501     0  0.000000000E+00  0.000000000E+00 -2.794263728E+03  2.794263728E+03  0.000000000E+00  0.00000E+00  9.000E+00
      25     1     1     2     0     0 -3.449797821E+02 -2.968892134E+02 -7.496317963E+02  8.858482292E+02  1.250000000E+02  0.00000E+00  9.000E+00
      25     1     1     2     0     0  4.340625604E+01  2.002617477E+02  1.986984039E+01  2.408499143E+02  1.250000000E+02  0.00000E+00  9.000E+00
       2     1     1     2   502     0  3.015735261E+02  9.662746571E+01 -1.852598302E+03  1.879469055E+03  2.157918644E-05  0.00000E+00  9.000E+00
#rwgt            2          13   7.8065691951653823E-004           4      482616           0
</event>
<event>
      5   9999  3.79277E-02  8.97642E+01 -1.00000E+00  1.25975E-01
      21    -1     0     0   511   501  0.000000000E+00  0.000000000E+00  3.053398930E+02  3.053398930E+02  0.000000000E+00  0.00000E+00  9.000E+00
      21    -1     0     0   501   502  0.000000000E+00  0.000000000E+00 -5.276260974E+02  5.276260974E+02  0.000000000E+00  0.00000E+00  9.000E+00
      25     1     1     2     0     0  2.290927299E+02 -1.340228206E+02 -2.781235725E+02  4.042564989E+02  1.250000000E+02  0.00000E+00  9.000E+00
      25     1     1     2     0     0 -1.656209317E+02  1.974967309E+02 -4.907655710E+01  2.906350980E+02  1.250000000E+02  0.00000E+00  9.000E+00
      21     1     1     2   511   502 -6.347179827E+01 -6.347391023E+01  1.049139252E+02  1.380743935E+02  1.907348633E-06  0.00000E+00  9.000E+00
#rwgt            1           1   4.3991963145838073E-002           4      482680           0
</event>
<event>
      5   9999  3.79277E-02  5.23135E+01 -1.00000E+00  1.37964E-01
      21    -1     0     0   502   501  0.000000000E+00  0.000000000E+00  5.320655233E+02  5.320655233E+02  0.000000000E+00  0.00000E+00  9.000E+00
      21    -1     0     0   501   512  0.000000000E+00  0.000000000E+00 -1.464892944E+02  1.464892944E+02  0.000000000E+00  0.00000E+00  9.000E+00
      25     1     1     2     0     0 -1.458778962E+02  1.552076047E+02  9.790968491E+01  2.656709761E+02  1.250000000E+02  0.00000E+00  9.000E+00
      25     1     1     2     0     0  1.298807941E+02 -1.053999840E+02  2.935476605E+02  3.602407615E+02  1.250000000E+02  0.00000E+00  9.000E+00
      21     1     1     2   502   512  1.599710206E+01 -4.980762068E+01 -5.881116526E+00  5.264308011E+01  7.052516679E-07  0.00000E+00  9.000E+00
#rwgt            1           1   3.4153371850700116E-002           4      482736           0
</event>
<event>
      5   9999  3.79277E-02  3.97186E+01 -1.00000E+00  1.45031E-01
       1    -1     0     0   502     0  0.000000000E+00  0.000000000E+00  5.597415171E+02  5.597415171E+02  0.000000000E+00  0.00000E+00  9.000E+00
      21    -1     0     0   501   502  0.000000000E+00  0.000000000E+00 -1.096908600E+02  1.096908600E+02  0.000000000E+00  0.00000E+00  9.000E+00
      25     1     1     2     0     0 -1.959163888E+01 -1.000571596E+02  1.028251703E+02  1.912937091E+02  1.250000000E+02  0.00000E+00  9.000E+00
      25     1     1     2     0     0 -1.513906973E+01  1.193274490E+02  5.320810414E+01  1.814506375E+02  1.250000000E+02  0.00000E+00  9.000E+00
       1     1     1     2   501     0  3.473070861E+01 -1.927028936E+01  2.940173827E+02  2.966880306E+02  0.000000000E+00  0.00000E+00  9.000E+00
#rwgt            1           1   2.9123322455804668E-002           4      482808           0
</event>
<event>
      5   9999  3.79277E-02  6.07850E+01 -1.00000E+00  1.34402E-01
      21    -1     0     0   511   501  0.000000000E+00  0.000000000E+00  4.250633472E+02  4.250633472E+02  0.000000000E+00  0.00000E+00  9.000E+00
      21    -1     0     0   501   502  0.000000000E+00  0.000000000E+00 -7.149710728E+02  7.149710728E+02  0.000000000E+00  0.00000E+00  9.000E+00
      25     1     1     2     0     0 -3.310385638E+02  1.123157866E+02 -3.245690225E+02  4.931241396E+02  1.250000000E+02  0.00000E+00  9.000E+00
      25     1     1     2     0     0  2.981796688E+02 -6.117770408E+01 -2.129467069E+02  3.919504131E+02  1.250000000E+02  0.00000E+00  9.000E+00
      21     1     1     2   511   502  3.285889507E+01 -5.113808253E+01  2.476080037E+02  2.549598674E+02  3.814697266E-06  0.00000E+00  9.000E+00
#rwgt            1           1   3.2302573943406687E-002           4      483164           0
</event>
<event>
      5   9999  3.79277E-02  2.82812E+01 -1.00000E+00  1.54841E-01
      21    -1     0     0   512   501  0.000000000E+00  0.000000000E+00  5.777869886E+01  5.777869886E+01  0.000000000E+00  0.00000E+00  9.000E+00
      21    -1     0     0   501   502  0.000000000E+00  0.000000000E+00 -9.171512943E+02  9.171512943E+02  0.000000000E+00  0.00000E+00  9.000E+00
      25     1     1     2     0     0  3.980161216E+01  1.409369943E+02 -5.537317529E+02  5.862518732E+02  1.250000000E+02  0.00000E+00  9.000E+00
      25     1     1     2     0     0 -6.102498608E+01 -1.596290263E+02 -2.731474091E+02  3.456009000E+02  1.250000000E+02  0.00000E+00  9.000E+00
      21     1     1     2   512   502  2.122337391E+01  1.869203205E+01 -3.249343347E+01  4.307721997E+01  0.000000000E+00  0.00000E+00  9.000E+00
#rwgt            1           1   4.0365614405023661E-002           4      483291           0
</event>
<event>
      5   9999  3.79277E-02  6.42269E+01 -1.00000E+00  1.33142E-01
      21    -1     0     0   511   501  0.000000000E+00  0.000000000E+00  1.603790963E+03  1.603790963E+03  0.000000000E+00  0.00000E+00  9.000E+00
      21    -1     0     0   501   502  0.000000000E+00  0.000000000E+00 -2.713728711E+02  2.713728711E+02  0.000000000E+00  0.00000E+00  9.000E+00
      25     1     1     2     0     0 -4.596419951E+02 -3.725493541E+02  6.647076716E+02  8.986239890E+02  1.250000000E+02  0.00000E+00  9.000E+00
      25     1     1     2     0     0  4.178808899E+02  4.213459575E+02  4.658875507E+02  7.647437898E+02  1.250000000E+02  0.00000E+00  9.000E+00
      21     1     1     2   511   502  4.176110519E+01 -4.879660345E+01  2.018228698E+02  2.117960557E+02  0.000000000E+00  0.00000E+00  9.000E+00
#rwgt            1           1   1.7734934994234990E-002           4      483491           0
</event>
<event>
      5   9999  3.79277E-02  1.46718E+02 -1.00000E+00  1.16776E-01
      21    -1     0     0   502   501  0.000000000E+00  0.000000000E+00  8.833483372E+02  8.833483372E+02  0.000000000E+00  0.00000E+00  9.000E+00
      21    -1     0     0   512   502  0.000000000E+00  0.000000000E+00 -6.847794686E+02  6.847794686E+02  0.000000000E+00  0.00000E+00  9.000E+00
      25     1     1     2     0     0 -4.834930959E+02 -1.918821315E+02  4.114595293E+02  6.749135281E+02  1.250000000E+02  0.00000E+00  9.000E+00
      25     1     1     2     0     0  3.872221789E+02  3.025982946E+02  1.272287877E+02  5.227991088E+02  1.250000000E+02  0.00000E+00  9.000E+00
      21     1     1     2   512   501  9.627091707E+01 -1.107161632E+02 -3.401194483E+02  3.704151689E+02  5.394796609E-06  0.00000E+00  9.000E+00
#rwgt            1           1   7.7505880700254090E-002           4      483682           0
</event>
<event>
      5   9999  3.79277E-02  9.71881E+01 -1.00000E+00  1.24388E-01
      21    -1     0     0   502   501  0.000000000E+00  0.000000000E+00  1.114046934E+03  1.114046934E+03  0.000000000E+00  0.00000E+00  9.000E+00
       2    -1     0     0   501     0  0.000000000E+00  0.000000000E+00 -9.228124264E+02  9.228124264E+02  0.000000000E+00  0.00000E+00  9.000E+00
      25     1     1     2     0     0 -1.802800092E+02 -1.518520047E+01  9.678166185E+02  9.924844982E+02  1.250000000E+02  0.00000E+00  9.000E+00
      25     1     1     2     0     0  1.003260486E+02 -4.006775000E+01  7.911233904E+01  1.831788820E+02  1.250000000E+02  0.00000E+00  9.000E+00
       2     1     1     2   502     0  7.995396057E+01  5.525295048E+01 -8.556944501E+02  8.611959802E+02  1.525878906E-05  0.00000E+00  9.000E+00
#rwgt            1           1   3.8910260444290773E-002           4      483775           0
</event>
<event>
      5   9999  3.79277E-02  2.83371E+01 -1.00000E+00  1.54780E-01
      21    -1     0     0   511   501  0.000000000E+00  0.000000000E+00  6.618058502E+01  6.618058502E+01  0.000000000E+00  0.00000E+00  9.000E+00
      21    -1     0     0   501   502  0.000000000E+00  0.000000000E+00 -2.163972610E+03  2.163972610E+03  0.000000000E+00  0.00000E+00  9.000E+00
      25     1     1     2     0     0 -8.621272738E+01 -2.326050672E+02 -1.624391177E+03  1.647971313E+03  1.250000000E+02  0.00000E+00  9.000E+00
      25     1     1     2     0     0  1.010333311E+02  2.567575437E+02 -4.601395091E+02  5.508952152E+02  1.250000000E+02  0.00000E+00  9.000E+00
      21     1     1     2   511   502 -1.482060375E+01 -2.415247645E+01 -1.326133837E+01  3.128666664E+01  5.057621821E-07  0.00000E+00  9.000E+00
#rwgt            1           1   2.3904213481274895E-002           4      483840           0
</event>
<event>
      5   9999  3.79277E-02  1.02242E+02 -1.00000E+00  1.23396E-01
      21    -1     0     0   502   512  0.000000000E+00  0.000000000E+00  1.538341761E+02  1.538341761E+02  0.000000000E+00  0.00000E+00  9.000E+00
      21    -1     0     0   501   502  0.000000000E+00  0.000000000E+00 -4.015465446E+02  4.015465446E+02  0.000000000E+00  0.00000E+00  9.000E+00
      25     1     1     2     0     0  1.739032836E+02  9.293759169E+01 -1.448683748E+02  2.747573366E+02  1.250000000E+02  0.00000E+00  9.000E+00
      25     1     1     2     0     0 -9.331743272E+01 -3.001468468E+01 -6.173306459E+01  1.704259247E+02  1.250000000E+02  0.00000E+00  9.000E+00
      21     1     1     2   501   512 -8.058585085E+01 -6.292290701E+01 -4.111092905E+01  1.101974595E+02  1.261592536E-06  0.00000E+00  9.000E+00
#rwgt            1           1   3.4183298265235681E-002           4      484095           0
</event>
<event>
      5   9999  3.79277E-02  1.70122E+01 -1.00000E+00  1.72384E-01
       2    -1     0     0   502     0  0.000000000E+00  0.000000000E+00  2.197500636E+03  2.197500636E+03  0.000000000E+00  0.00000E+00  9.000E+00
      21    -1     0     0   501   502  0.000000000E+00  0.000000000E+00 -5.518236561E+01  5.518236561E+01  0.000000000E+00  0.00000E+00  9.000E+00
      25     1     1     2     0     0 -1.526418394E+02  1.251484947E+02  3.619414529E+02  4.307995963E+02  1.250000000E+02  0.00000E+00  9.000E+00
      25     1     1     2     0     0  1.356521719E+02 -1.242728597E+02  5.769708038E+02  6.183571491E+02  1.250000000E+02  0.00000E+00  9.000E+00
       2     1     1     2   501     0  1.698966755E+01 -8.756349414E-01  1.203406014E+03  1.203526257E+03  1.525878906E-05  0.00000E+00  9.000E+00
#rwgt            1           1  0.39870641287304154                4      484214           0
</event>
<event>
      5   9999  3.79277E-02  2.39875E+01 -1.00000E+00  1.60108E-01
      21    -1     0     0   502   501  0.000000000E+00  0.000000000E+00  2.277258799E+02  2.277258799E+02  0.000000000E+00  0.00000E+00  9.000E+00
      21    -1     0     0   501   511  0.000000000E+00  0.000000000E+00 -3.589066425E+02  3.589066425E+02  0.000000000E+00  0.00000E+00  9.000E+00
      25     1     1     2     0     0  1.075181969E+02  1.953714352E+02  4.142183694E+01  2.589805571E+02  1.250000000E+02  0.00000E+00  9.000E+00
      25     1     1     2     0     0 -1.164479539E+02 -1.731079950E+02 -1.229795160E+02  2.725352550E+02  1.250000000E+02  0.00000E+00  9.000E+00
      21     1     1     2   502   511  8.929756985E+00 -2.226344025E+01 -4.962308350E+01  5.511671024E+01  0.000000000E+00  0.00000E+00  9.000E+00
#rwgt            1           1   4.5849228134815158E-002           4      484441           0
</event>
<event>
      5   9999  3.79277E-02  3.03035E+02 -1.00000E+00  1.05450E-01
      21    -1     0     0   502   501  0.000000000E+00  0.000000000E+00  5.088096096E+02  5.088096096E+02  0.000000000E+00  0.00000E+00  9.000E+00
       2    -1     0     0   501     0  0.000000000E+00  0.000000000E+00 -3.899697037E+02  3.899697037E+02  0.000000000E+00  0.00000E+00  9.000E+00
      25     1     1     2     0     0  1.351461776E+02  2.707494841E+02  1.536863200E+02  3.616825368E+02  1.250000000E+02  0.00000E+00  9.000E+00
      25     1     1     2     0     0 -1.947357116E+02  2.636865795E+01 -1.229899621E+01  2.332242886E+02  1.250000000E+02  0.00000E+00  9.000E+00
       2     1     1     2   502     0  5.958953396E+01 -2.971181420E+02 -2.254741790E+01  3.038724880E+02  2.556754421E-06  0.00000E+00  9.000E+00
#rwgt            2          13   5.5927656870339834E-005           4      484681           0
</event>
<event>
      5   9999  3.79277E-02  2.52537E+01 -1.00000E+00  1.58423E-01
      21    -1     0     0   502   511  0.000000000E+00  0.000000000E+00  1.099325748E+03  1.099325748E+03  0.000000000E+00  0.00000E+00  9.000E+00
      21    -1     0     0   501   502  0.000000000E+00  0.000000000E+00 -1.100573011E+02  1.100573011E+02  0.000000000E+00  0.00000E+00  9.000E+00
      25     1     1     2     0     0 -3.587742628E+01 -1.003101840E+02 -2.319161727E+01  1.658679410E+02  1.250000000E+02  0.00000E+00  9.000E+00
      25     1     1     2     0     0  1.064809285E+01  9.920212265E+01  4.036365238E+02  4.341680393E+02  1.250000000E+02  0.00000E+00  9.000E+00
      21     1     1     2   501   511  2.522933343E+01  1.108061333E+00  6.088235405E+02  6.093470690E+02  0.000000000E+00  0.00000E+00  9.000E+00
#rwgt            1           1   6.8189348531211003E-002           4      484700           0
</event>
<event>
      5   9999  3.79277E-02  2.77549E+01 -1.00000E+00  1.55424E-01
      21    -1     0     0   502   512  0.000000000E+00  0.000000000E+00  1.614221608E+02  1.614221608E+02  0.000000000E+00  0.00000E+00  9.000E+00
      21    -1     0     0   501   502  0.000000000E+00  0.000000000E+00 -2.842244303E+02  2.842244303E+02  0.000000000E+00  0.00000E+00  9.000E+00
      25     1     1     2     0     0 -1.101813384E+01  1.002352510E+02 -1.712019254E+02  2.347415687E+02  1.250000000E+02  0.00000E+00  9.000E+00
      25     1     1     2     0     0  2.669053159E+01 -1.231418612E+02  4.050883125E+01  1.820501795E+02  1.250000000E+02  0.00000E+00  9.000E+00
      21     1     1     2   501   512 -1.567239774E+01  2.290661024E+01  7.890824669E+00  2.885484288E+01  2.384185791E-07  0.00000E+00  9.000E+00
#rwgt            1           1   4.8859592100359533E-002           4      484915           0
</event>
<event>
      5   9999  3.79277E-02  4.81255E+01 -1.00000E+00  1.40029E-01
      21    -1     0     0   502   511  0.000000000E+00  0.000000000E+00  4.322232023E+02  4.322232023E+02  0.000000000E+00  0.00000E+00  9.000E+00
      21    -1     0     0   501   502  0.000000000E+00  0.000000000E+00 -1.608982446E+02  1.608982446E+02  0.000000000E+00  0.00000E+00  9.000E+00
      25     1     1     2     0     0 -1.447541152E+02 -7.766132192E+01  1.763183689E+01  2.071736385E+02  1.250000000E+02  0.00000E+00  9.000E+00
      25     1     1     2     0     0  1.924548392E+02  7.128113994E+01  2.286285496E+02  3.316864178E+02  1.250000000E+02  0.00000E+00  9.000E+00
      21     1     1     2   501   511 -4.770072398E+01  6.380181978E+00  2.506457115E+01  5.426139066E+01  8.259061849E-07  0.00000E+00  9.000E+00
#rwgt            1           1   3.3131083721857017E-002           4      485109           0
</event>
<event>
      5   9999  3.79277E-02  7.34929E+01 -1.00000E+00  1.30159E-01
      21    -1     0     0   502   501  0.000000000E+00  0.000000000E+00  3.713712193E+02  3.713712193E+02  0.000000000E+00  0.00000E+00  9.000E+00
      21    -1     0     0   512   502  0.000000000E+00  0.000000000E+00 -8.405928720E+02  8.405928720E+02  0.000000000E+00  0.00000E+00  9.000E+00
      25     1     1     2     0     0 -2.138601565E+02  4.302282812E+01  2.348123271E+02  3.440188355E+02  1.250000000E+02  0.00000E+00  9.000E+00
      25     1     1     2     0     0  2.840914019E+02 -2.137148788E+01 -2.265952312E+02  3.848831822E+02  1.250000000E+02  0.00000E+00  9.000E+00
      21     1     1     2   512   501 -7.023124546E+01 -2.165134023E+01 -4.774387485E+02  4.830620736E+02  5.394796609E-06  0.00000E+00  9.000E+00
#rwgt            1           1   4.6859406487997801E-002           4      485310           0
</event>
<event>
      5   9999  3.79277E-02  3.14965E+01 -1.00000E+00  1.51586E-01
      21    -1     0     0   502   501  0.000000000E+00  0.000000000E+00  1.784030085E+02  1.784030085E+02  0.000000000E+00  0.00000E+00  9.000E+00
      21    -1     0     0   511   502  0.000000000E+00  0.000000000E+00 -1.434162536E+02  1.434162536E+02  0.000000000E+00  0.00000E+00  9.000E+00
      25     1     1     2     0     0  4.223650490E+01  4.669382528E+01  1.846068955E+01  1.411737678E+02  1.250000000E+02  0.00000E+00  9.000E+00
      25     1     1     2     0     0 -2.738307940E+01 -7.446806511E+01  1.781174680E+01  1.491227148E+02  1.250000000E+02  0.00000E+00  9.000E+00
      21     1     1     2   511   501 -1.485342550E+01  2.777423983E+01 -1.285681493E+00  3.152277945E+01  5.993898321E-07  0.00000E+00  9.000E+00
#rwgt            2          11   1.3316317265350242E-003           4      485452           0
</event>
<event>
      5   9999  3.79277E-02  6.32819E+01 -1.00000E+00  1.33479E-01
      21    -1     0     0   502   501  0.000000000E+00  0.000000000E+00  7.614364516E+02  7.614364516E+02  0.000000000E+00  0.00000E+00  9.000E+00
      21    -1     0     0   501   512  0.000000000E+00  0.000000000E+00 -5.087646042E+02  5.087646042E+02  0.000000000E+00  0.00000E+00  9.000E+00
      25     1     1     2     0     0 -1.464506864E+02  2.062600584E+02  3.163267016E+02  4.238851228E+02  1.250000000E+02  0.00000E+00  9.000E+00
      25     1     1     2     0     0  1.876408492E+02 -2.543014142E+02  3.144127014E+02  4.629888167E+02  1.250000000E+02  0.00000E+00  9.000E+00
      21     1     1     2   502   512 -4.119016282E+01  4.804135584E+01 -3.780675556E+02  3.833271162E+02  5.394796609E-06  0.00000E+00  9.000E+00
#rwgt            1           1   3.8423326302292747E-002           4      485517           0
</event>
<event>
      5   9999  3.79277E-02  5.19479E+01 -1.00000E+00  1.38135E-01
      21    -1     0     0   502   511  0.000000000E+00  0.000000000E+00  8.753839900E+01  8.753839900E+01  0.000000000E+00  0.00000E+00  9.000E+00
      21    -1     0     0   501   502  0.000000000E+00  0.000000000E+00 -6.751760803E+02  6.751760803E+02  0.000000000E+00  0.00000E+00  9.000E+00
      25     1     1     2     0     0 -6.755824140E+00  1.617790142E+02 -2.691745794E+02  3.380799385E+02  1.250000000E+02  0.00000E+00  9.000E+00
      25     1     1     2     0     0 -4.293752345E+01 -1.769169001E+02 -2.926613906E+02  3.666318453E+02  1.250000000E+02  0.00000E+00  9.000E+00
      21     1     1     2   501   511  4.969334759E+01  1.513788591E+01 -2.580171130E+01  5.800269554E+01  1.118282261E-06  0.00000E+00  9.000E+00
#rwgt            1           1   4.6874373292912691E-002           4      485594           0
</event>
<event>
      5   9999  3.79277E-02  1.39078E+01 -1.00000E+00  1.80534E-01
      21    -1     0     0   502   501  0.000000000E+00  0.000000000E+00  4.725669996E+02  4.725669996E+02  0.000000000E+00  0.00000E+00  9.000E+00
      21    -1     0     0   512   502  0.000000000E+00  0.000000000E+00 -4.203378893E+02  4.203378893E+02  0.000000000E+00  0.00000E+00  9.000E+00
      25     1     1     2     0     0 -1.229132447E+02  2.675918016E+02  2.660897396E+02  4.161030973E+02  1.250000000E+02  0.00000E+00  9.000E+00
      25     1     1     2     0     0  1.129066643E+02 -2.772507649E+02 -6.949613365E+01  3.317689167E+02  1.250000000E+02  0.00000E+00  9.000E+00
      21     1     1     2   512   501  1.000658039E+01  9.658963259E+00 -1.443644957E+02  1.450328750E+02  1.907348633E-06  0.00000E+00  9.000E+00
#rwgt            1           1   4.1961561287085274E-002           4      485710           0
</event>
<event>
      5   9999  3.79277E-02  1.68062E+02 -1.00000E+00  1.14470E-01
      21    -1     0     0   502   501  0.000000000E+00  0.000000000E+00  1.076157751E+03  1.076157751E+03  0.000000000E+00  0.00000E+00  9.000E+00
      21    -1     0     0   511   502  0.000000000E+00  0.000000000E+00 -1.139116121E+02  1.139116121E+02  0.000000000E+00  0.00000E+00  9.000E+00
      25     1     1     2     0     0 -1.301262008E+02 -2.332280777E+01  1.193860049E+02  2.176115798E+02  1.250000000E+02  0.00000E+00  9.000E+00
      25     1     1     2     0     0  2.654338385E+02 -7.635993548E+01  6.461054647E+02  7.136968782E+02  1.250000000E+02  0.00000E+00  9.000E+00
      21     1     1     2   511   501 -1.353076377E+02  9.968274325E+01  1.967546696E+02  2.587609054E+02  2.697398305E-06  0.00000E+00  9.000E+00
#rwgt            2          11   2.2668046856540022E-003           4      486335           0
</event>
<event>
      5   9999  3.79277E-02  4.01885E+01 -1.00000E+00  1.44714E-01
      21    -1     0     0   512   501  0.000000000E+00  0.000000000E+00  1.808118647E+02  1.808118647E+02  0.000000000E+00  0.00000E+00  9.000E+00
      21    -1     0     0   501   502  0.000000000E+00  0.000000000E+00 -2.224502445E+02  2.224502445E+02  0.000000000E+00  0.00000E+00  9.000E+00
      25     1     1     2     0     0 -3.039835630E+01 -1.096306692E+02 -6.233143913E+01  1.801475839E+02  1.250000000E+02  0.00000E+00  9.000E+00
      25     1     1     2     0     0  7.055278022E+01  1.112843523E+02  2.169121696E+01  1.829136702E+02  1.250000000E+02  0.00000E+00  9.000E+00
      21     1     1     2   512   502 -4.015442391E+01 -1.653683060E+00 -9.981576253E-01  4.020085504E+01  8.239547194E-07  0.00000E+00  9.000E+00
#rwgt            1           1   3.7820856880305592E-002           4      486370           0
</event>
<event>
      5   9999  3.79277E-02  2.63544E+01 -1.00000E+00  1.57054E-01
      21    -1     0     0   502   501  0.000000000E+00  0.000000000E+00  2.113173188E+02  2.113173188E+02  0.000000000E+00  0.00000E+00  9.000E+00
      21    -1     0     0   511   502  0.000000000E+00  0.000000000E+00 -2.915115839E+03  2.915115839E+03  0.000000000E+00  0.00000E+00  9.000E+00
      25     1     1     2     0     0  1.699672614E+02 -7.132140434E+01 -2.521988457E+02  3.364593146E+02  1.250000000E+02  0.00000E+00  9.000E+00
      25     1     1     2     0     0 -1.936482808E+02  5.975584547E+01  8.530851664E+01  2.529287661E+02  1.250000000E+02  0.00000E+00  9.000E+00
      21     1     1     2   511   501  2.368101939E+01  1.156555888E+01 -2.536908191E+03  2.537045077E+03  3.051757812E-05  0.00000E+00  9.000E+00
#rwgt            1           1   3.8235023388653713E-002           4      486643           0
</event>
<event>
      5   9999 -3.79277E-02  1.49828E+01 -1.00000E+00  1.77430E-01
      21    -1     0     0   502   501  0.000000000E+00  0.000000000E+00  9.550222414E+01  9.550222414E+01  0.000000000E+00  0.00000E+00  9.000E+00
       1    -1     0     0   501     0  0.000000000E+00  0.000000000E+00 -1.680829345E+03  1.680829345E+03  0.000000000E+00  0.00000E+00  9.000E+00
      25     1     1     2     0     0 -1.341416809E+02 -1.973980678E+02 -3.161987313E+02  4.154113930E+02  1.250000000E+02  0.00000E+00  9.000E+00
      25     1     1     2     0     0  1.357788737E+02  1.825049426E+02 -3.216036388E+02  4.132769738E+02  1.250000000E+02  0.00000E+00  9.000E+00
       1     1     1     2   502     0 -1.637192775E+00  1.489312527E+01 -9.475247512E+02  9.476432027E+02  1.525878906E-05  0.00000E+00  9.000E+00
#rwgt            1           1 -0.10992353155169261                4      486931           0
</event>
<event>
      5   9999  3.79277E-02  6.25735E+01 -1.00000E+00  1.33736E-01
      21    -1     0     0   502   511  0.000000000E+00  0.000000000E+00  1.103629067E+03  1.103629067E+03  0.000000000E+00  0.00000E+00  9.000E+00
      21    -1     0     0   501   502  0.000000000E+00  0.000000000E+00 -2.343724902E+03  2.343724902E+03  0.000000000E+00  0.00000E+00  9.000E+00
      25     1     1     2     0     0  1.103946797E+00 -3.201990817E+02 -1.325385640E+03  1.369233642E+03  1.250000000E+02  0.00000E+00  9.000E+00
      25     1     1     2     0     0 -5.140565484E+01  2.829811352E+02 -9.707913204E+02  1.020187067E+03  1.250000000E+02  0.00000E+00  9.000E+00
      21     1     1     2   501   511  5.030170805E+01  3.721794648E+01  1.056081126E+03  1.057933260E+03  1.525878906E-05  0.00000E+00  9.000E+00
#rwgt            1           1   8.6304675728041305E-002           4      487146           0
</event>
<event>
      5   9999 -3.79277E-02  3.42523E+01 -1.00000E+00  1.49146E-01
       2    -1     0     0   502     0  0.000000000E+00  0.000000000E+00  1.502758993E+03  1.502758993E+03  0.000000000E+00  0.00000E+00  9.000E+00
      21    -1     0     0   501   502  0.000000000E+00  0.000000000E+00 -4.611312318E+02  4.611312318E+02  0.000000000E+00  0.00000E+00  9.000E+00
      25     1     1     2     0     0 -2.970808896E+02 -1.593963708E+02  1.430089557E+02  3.869635892E+02  1.250000000E+02  0.00000E+00  9.000E+00
      25     1     1     2     0     0  2.655173143E+02  1.726990431E+02 -2.533655609E+02  4.244331645E+02  1.250000000E+02  0.00000E+00  9.000E+00
       2     1     1     2   501     0  3.156357529E+01 -1.330267230E+01  1.151984366E+03  1.152493471E+03  2.157918644E-05  0.00000E+00  9.000E+00
#rwgt            1           1 -0.41283047848205129                4      487291           0
</event>
<event>
      5   9999 -3.79277E-02  6.93954E+00 -1.00000E+00  2.16088E-01
      21    -1     0     0   511   501  0.000000000E+00  0.000000000E+00  5.231607561E+01  5.231607561E+01  0.000000000E+00  0.00000E+00  9.000E+00
      21    -1     0     0   501   502  0.000000000E+00  0.000000000E+00 -1.963676785E+03  1.963676785E+03  0.000000000E+00  0.00000E+00  9.000E+00
      25     1     1     2     0     0  2.162948785E+02 -7.773046672E+01 -3.876169758E+02  4.676509594E+02  1.250000000E+02  0.00000E+00  9.000E+00
      25     1     1     2     0     0 -2.213125785E+02  7.293673182E+01 -1.509630373E+03  1.532614722E+03  1.250000000E+02  0.00000E+00  9.000E+00
      21     1     1     2   511   502  5.017699933E+00  4.793734904E+00 -1.411336130E+01  1.572717947E+01  1.685873940E-07  0.00000E+00  9.000E+00
#rwgt            1           1  -4.3095444663484084E-002           4      487534           0
</event>
<event>
      5   9999 -3.79277E-02  2.05937E+01 -1.00000E+00  1.65328E-01
      21    -1     0     0   502   501  0.000000000E+00  0.000000000E+00  9.028315973E+01  9.028315973E+01  0.000000000E+00  0.00000E+00  9.000E+00
      21    -1     0     0   512   502  0.000000000E+00  0.000000000E+00 -1.176342972E+03  1.176342972E+03  0.000000000E+00  0.00000E+00  9.000E+00
      25     1     1     2     0     0 -5.065923797E+01  1.406427418E+02 -1.653863824E+02  2.555863742E+02  1.250000000E+02  0.00000E+00  9.000E+00
      25     1     1     2     0     0  7.089593538E+01 -1.444606256E+02 -1.854285883E+02  2.755065650E+02  1.250000000E+02  0.00000E+00  9.000E+00
      21     1     1     2   512   501 -2.023669741E+01  3.817883868E+00 -7.352448414E+02  7.355331923E+02  0.000000000E+00  0.00000E+00  9.000E+00
#rwgt            1           1 -0.14742269643948741                4      487900           0
</event>
<event>
      5   9999  3.79277E-02  6.83303E+01 -1.00000E+00  1.31754E-01
      21    -1     0     0   511   501  0.000000000E+00  0.000000000E+00  2.797259375E+02  2.797259375E+02  0.000000000E+00  0.00000E+00  9.000E+00
      21    -1     0     0   501   502  0.000000000E+00  0.000000000E+00 -5.685194546E+02  5.685194546E+02  0.000000000E+00  0.00000E+00  9.000E+00
      25     1     1     2     0     0 -3.494893928E+01  7.624758692E+01 -5.164432101E+02  5.379346728E+02  1.250000000E+02  0.00000E+00  9.000E+00
      25     1     1     2     0     0  1.324128535E+00 -1.676308967E+01  8.486758886E+01  1.520205977E+02  1.250000000E+02  0.00000E+00  9.000E+00
      21     1     1     2   511   502  3.362481075E+01 -5.948449726E+01  1.427821042E+02  1.582901216E+02  0.000000000E+00  0.00000E+00  9.000E+00
#rwgt            1           1   4.8939502005764683E-002           4      488253           0
</event>
<event>
      5   9999  3.79277E-02  1.13418E+01 -1.00000E+00  1.89641E-01
      21    -1     0     0   512   501  0.000000000E+00  0.000000000E+00  5.724384857E+02  5.724384857E+02  0.000000000E+00  0.00000E+00  9.000E+00
      21    -1     0     0   501   502  0.000000000E+00  0.000000000E+00 -9.072645629E+01  9.072645629E+01  0.000000000E+00  0.00000E+00  9.000E+00
      25     1     1     2     0     0  1.399918229E+02 -1.018906326E+02  2.604080779E+02  3.367740764E+02  1.250000000E+02  0.00000E+00  9.000E+00
      25     1     1     2     0     0 -1.474058699E+02  1.104736603E+02  1.885690649E+02  2.917468292E+02  1.250000000E+02  0.00000E+00  9.000E+00
      21     1     1     2   512   502  7.414047008E+00 -8.583027738E+00  3.273488658E+01  3.464403640E+01  4.768371582E-07  0.00000E+00  9.000E+00
#rwgt            1           1   3.2891757513742195E-002           4      488316           0
</event>
<event>
      5   9999  3.79277E-02  6.68368E+01 -1.00000E+00  1.32246E-01
      21    -1     0     0   502   501  0.000000000E+00  0.000000000E+00  2.130629878E+02  2.130629878E+02  0.000000000E+00  0.00000E+00  9.000E+00
       2    -1     0     0   501     0  0.000000000E+00  0.000000000E+00 -1.501361235E+03  1.501361235E+03  0.000000000E+00  0.00000E+00  9.000E+00
      25     1     1     2     0     0 -3.214048410E+01  2.572131660E+01 -2.365968671E+02  2.707354325E+02  1.250000000E+02  0.00000E+00  9.000E+00
      25     1     1     2     0     0  2.784289820E+01 -9.241976828E+01  1.631109370E+02  2.270392440E+02  1.250000000E+02  0.00000E+00  9.000E+00
       2     1     1     2   502     0  4.297585901E+00  6.669845167E+01 -1.214812317E+03  1.216649546E+03  0.000000000E+00  0.00000E+00  9.000E+00
#rwgt            1           1   3.8785219075529238E-002           4      488694           0
</event>
<event>
      5   9999  3.79277E-02  1.17456E+02 -1.00000E+00  1.20765E-01
      21    -1     0     0   502   501  0.000000000E+00  0.000000000E+00  1.827915547E+03  1.827915547E+03  0.000000000E+00  0.00000E+00  9.000E+00
      21    -1     0     0   511   502  0.000000000E+00  0.000000000E+00 -4.912360941E+01  4.912360941E+01  0.000000000E+00  0.00000E+00  9.000E+00
      25     1     1     2     0     0 -6.657359554E+01  1.741989744E+01  7.069867023E+02  7.212424653E+02  1.250000000E+02  0.00000E+00  9.000E+00
      25     1     1     2     0     0  1.263143987E+02 -1.185481727E+02  9.896919627E+02  1.012484162E+03  1.250000000E+02  0.00000E+00  9.000E+00
      21     1     1     2   511   501 -5.974080318E+01  1.011282753E+02  8.211327295E+01  1.433125299E+02  2.861022949E-06  0.00000E+00  9.000E+00
#rwgt            1           1   7.2409246265268651E-002           4      489085           0
</event>
<event>
      5   9999  3.79277E-02  5.52334E+00 -1.00000E+00  2.31204E-01
      21    -1     0     0   502   501  0.000000000E+00  0.000000000E+00  9.458577917E+01  9.458577917E+01  0.000000000E+00  0.00000E+00  9.000E+00
      21    -1     0     0   512   502  0.000000000E+00  0.000000000E+00 -4.340425023E+02  4.340425023E+02  0.000000000E+00  0.00000E+00  9.000E+00
      25     1     1     2     0     0  3.806416555E+01  9.383288633E+01 -3.152704149E+02  3.539405682E+02  1.250000000E+02  0.00000E+00  9.000E+00
      25     1     1     2     0     0 -3.631146943E+01 -9.907076677E+01 -1.539222370E+01  1.643029525E+02  1.250000000E+02  0.00000E+00  9.000E+00
      21     1     1     2   512   501 -1.752696118E+00  5.237880446E+00 -8.794084499E+00  1.038476083E+01  1.192092896E-07  0.00000E+00  9.000E+00
#rwgt            1           1   3.6231530382405813E-002           4      489271           0
</event>
<event>
      5   9999  3.79277E-02  1.41231E+02 -1.00000E+00  1.17440E-01
      21    -1     0     0   502   501  0.000000000E+00  0.000000000E+00  3.139213699E+02  3.139213699E+02  0.000000000E+00  0.00000E+00  9.000E+00
      21    -1     0     0   501   511  0.000000000E+00  0.000000000E+00 -5.074039376E+02  5.074039376E+02  0.000000000E+00  0.00000E+00  9.000E+00
      25     1     1     2     0     0 -6.907269330E+01  2.428778017E+02  1.790640505E+02  3.338406771E+02  1.250000000E+02  0.00000E+00  9.000E+00
      25     1     1     2     0     0  6.191310369E+01 -1.018282390E+02 -2.181190083E+02  2.782141701E+02  1.250000000E+02  0.00000E+00  9.000E+00
      21     1     1     2   502   511  7.159589612E+00 -1.410495627E+02 -1.544276099E+02  2.092704603E+02  1.907348633E-06  0.00000E+00  9.000E+00
#rwgt            1           1   3.8281621467754476E-002           4      489617           0
</event>
<event>
      5   9999  3.79277E-02  5.49121E+00 -1.00000E+00  2.31619E-01
      21    -1     0     0   502   501  0.000000000E+00  0.000000000E+00  8.221544770E+01  8.221544770E+01  0.000000000E+00  0.00000E+00  9.000E+00
      21    -1     0     0   501   512  0.000000000E+00  0.000000000E+00 -8.160297066E+02  8.160297066E+02  0.000000000E+00  0.00000E+00  9.000E+00
      25     1     1     2     0     0  1.557888733E+02  4.315649215E+01 -1.951639491E+02  2.825714474E+02  1.250000000E+02  0.00000E+00  9.000E+00
      25     1     1     2     0     0 -1.612776746E+02 -4.331896660E+01 -2.441615160E+02  3.211337215E+02  1.250000000E+02  0.00000E+00  9.000E+00
      21     1     1     2   502   512  5.488801314E+00  1.624744431E-01 -2.944887938E+02  2.945399854E+02  0.000000000E+00  0.00000E+00  9.000E+00
#rwgt            1           1   3.1681383526592666E-002           4      489685           0
</event>
<event>
      5   9999  3.79277E-02  1.19229E+01 -1.00000E+00  1.87323E-01
      21    -1     0     0   502   501  0.000000000E+00  0.000000000E+00  1.106707069E+03  1.106707069E+03  0.000000000E+00  0.00000E+00  9.000E+00
      21    -1     0     0   501   511  0.000000000E+00  0.000000000E+00 -9.229867388E+01  9.229867388E+01  0.000000000E+00  0.00000E+00  9.000E+00
      25     1     1     2     0     0 -1.859458401E+01  1.025166873E+02  5.380270644E+02  5.620974576E+02  1.250000000E+02  0.00000E+00  9.000E+00
      25     1     1     2     0     0  1.758135929E+01 -1.143964439E+02  5.430699637E+02  5.691622230E+02  1.250000000E+02  0.00000E+00  9.000E+00
      21     1     1     2   502   511  1.013224724E+00  1.187975663E+01 -6.668863284E+01  6.774606255E+01  2.336015456E-06  0.00000E+00  9.000E+00
#rwgt            1           1   3.9711578743978772E-002           4      489964           0
</event>
<event>
      5   9999  3.79277E-02  2.18540E+01 -1.00000E+00  1.63254E-01
      21    -1     0     0   512   501  0.000000000E+00  0.000000000E+00  9.987170829E+01  9.987170829E+01  0.000000000E+00  0.00000E+00  9.000E+00
      21    -1     0     0   501   502  0.000000000E+00  0.000000000E+00 -5.557390715E+02  5.557390715E+02  0.000000000E+00  0.00000E+00  9.000E+00
      25     1     1     2     0     0  2.063949572E+01 -8.471126032E+01 -3.835115801E+02  4.126840419E+02  1.250000000E+02  0.00000E+00  9.000E+00
      25     1     1     2     0     0 -3.775810262E+01  7.112629450E+01 -1.196318183E+02  1.908439049E+02  1.250000000E+02  0.00000E+00  9.000E+00
      21     1     1     2   512   502  1.711860690E+01  1.358496582E+01  4.727603512E+01  5.208283302E+01  1.348699152E-06  0.00000E+00  9.000E+00
#rwgt            1           1   4.8702563973021092E-002           4      490236           0
</event>
<event>
      5   9999  3.79277E-02  9.53839E+01 -1.00000E+00  1.24758E-01
      21    -1     0     0   502   511  0.000000000E+00  0.000000000E+00  2.852722588E+02  2.852722588E+02  0.000000000E+00  0.00000E+00  9.000E+00
      21    -1     0     0   501   502  0.000000000E+00  0.000000000E+00 -2.891365596E+02  2.891365596E+02  0.000000000E+00  0.00000E+00  9.000E+00
      25     1     1     2     0     0 -1.969673216E+02  2.798375825E+01 -6.449306094E+01  2.436464065E+02  1.250000000E+02  0.00000E+00  9.000E+00
      25     1     1     2     0     0  1.781528141E+02  6.552614729E+01  2.383626707E+01  2.285284857E+02  1.250000000E+02  0.00000E+00  9.000E+00
      21     1     1     2   501   511  1.881450751E+01 -9.350990554E+01  3.679249299E+01  1.022339262E+02  2.431401974E-06  0.00000E+00  9.000E+00
#rwgt            1           1   4.1738637026095461E-002           4      490381           0
</event>
<event>
      5   9999  3.79277E-02  2.36177E+01 -1.00000E+00  1.60624E-01
      21    -1     0     0   502   501  0.000000000E+00  0.000000000E+00  8.729692009E+01  8.729692009E+01  0.000000000E+00  0.00000E+00  9.000E+00
      21    -1     0     0   501   512  0.000000000E+00  0.000000000E+00 -5.616291878E+02  5.616291878E+02  0.000000000E+00  0.00000E+00  9.000E+00
      25     1     1     2     0     0 -1.064569682E+02  6.565299084E+01 -3.543229062E+02  3.959963676E+02  1.250000000E+02  0.00000E+00  9.000E+00
      25     1     1     2     0     0  1.213940012E+02 -8.394733222E+01 -8.635620080E+01  2.118160795E+02  1.250000000E+02  0.00000E+00  9.000E+00
      21     1     1     2   502   512 -1.493703300E+01  1.829434138E+01 -3.365316074E+01  4.111366086E+01  6.743495762E-07  0.00000E+00  9.000E+00
#rwgt            1           1   4.0468357629815356E-002           4      490473           0
</event>
<event>
      5   9999  3.79277E-02  2.56729E+02 -1.00000E+00  1.07838E-01
      21    -1     0     0   502   501  0.000000000E+00  0.000000000E+00  2.335338582E+02  2.335338582E+02  0.000000000E+00  0.00000E+00  9.000E+00
      21    -1     0     0   501   511  0.000000000E+00  0.000000000E+00 -1.183712672E+03  1.183712672E+03  0.000000000E+00  0.00000E+00  9.000E+00
      25     1     1     2     0     0  6.530950594E+01  3.014838989E+02 -3.433494424E+01  3.346068757E+02  1.250000000E+02  0.00000E+00  9.000E+00
      25     1     1     2     0     0  6.509665377E+00 -5.500483910E+01 -5.548662394E+00  1.368345560E+02  1.250000000E+02  0.00000E+00  9.000E+00
      21     1     1     2   502   511 -7.181917132E+01 -2.464790598E+02 -9.102952070E+02  9.458050984E+02  1.078959322E-05  0.00000E+00  9.000E+00
#rwgt            1           1   3.9097938050796414E-002           4      490726           0
</event>
<event>
      5   9999  3.79277E-02  1.06951E+02 -1.00000E+00  1.22529E-01
      -1    -1     0     0     0   501  0.000000000E+00  0.000000000E+00  3.786432084E+02  3.786432084E+02  0.000000000E+00  0.00000E+00  9.000E+00
      21    -1     0     0   501   502  0.000000000E+00  0.000000000E+00 -5.907091898E+02  5.907091898E+02  0.000000000E+00  0.00000E+00  9.000E+00
      25     1     1     2     0     0  3.165418303E+01  4.400757262E+01  9.421687682E+01  1.656516635E+02  1.250000000E+02  0.00000E+00  9.000E+00
      25     1     1     2     0     0 -7.693412645E-01  5.838685809E+01 -5.343116019E+02  5.518364839E+02  1.250000000E+02  0.00000E+00  9.000E+00
      -1     1     1     2     0   502 -3.088484176E+01 -1.023944307E+02  2.280287437E+02  2.518642508E+02  4.672030912E-06  0.00000E+00  9.000E+00
#rwgt            1           1   3.0574534050743698E-002           4      490796           0
</event>
<event>
      5   9999  3.79277E-02  7.38804E+00 -1.00000E+00  2.12294E-01
      21    -1     0     0   502   501  0.000000000E+00  0.000000000E+00  1.428112929E+02  1.428112929E+02  0.000000000E+00  0.00000E+00  9.000E+00
      21    -1     0     0   511   502  0.000000000E+00  0.000000000E+00 -7.864161690E+02  7.864161690E+02  0.000000000E+00  0.00000E+00  9.000E+00
      25     1     1     2     0     0 -3.727730550E+01 -9.210159000E+00  9.912812516E+01  1.640908582E+02  1.250000000E+02  0.00000E+00  9.000E+00
      25     1     1     2     0     0  3.676115466E+01  1.658014848E+01 -3.751266626E+02  3.974560313E+02  1.250000000E+02  0.00000E+00  9.000E+00
      21     1     1     2   511   501  5.161508424E-01 -7.369989484E+00 -3.676063387E+02  3.676805725E+02  0.000000000E+00  0.00000E+00  9.000E+00
#rwgt            1           1   3.7517962851053285E-002           4      490872           0
</event>
<event>
      5   9999  3.79277E-02  4.10571E+01 -1.00000E+00  1.44141E-01
      21    -1     0     0   502   512  0.000000000E+00  0.000000000E+00  3.361415929E+02  3.361415929E+02  0.000000000E+00  0.00000E+00  9.000E+00
      21    -1     0     0   501   502  0.000000000E+00  0.000000000E+00 -3.356867502E+02  3.356867502E+02  0.000000000E+00  0.00000E+00  9.000E+00
      25     1     1     2     0     0  7.633991537E+01  1.148450706E+02  1.049186636E+02  2.136588376E+02  1.250000000E+02  0.00000E+00  9.000E+00
      25     1     1     2     0     0 -5.300960001E+01 -8.106068904E+01 -2.561476181E+02  3.010273330E+02  1.250000000E+02  0.00000E+00  9.000E+00
      21     1     1     2   501   512 -2.333031537E+01 -3.378438152E+01  1.516837971E+02  1.571421725E+02  1.907348633E-06  0.00000E+00  9.000E+00
#rwgt            1           1   3.8332698281578433E-002           4      491226           0
</event>
<event>
      5   9999  3.79277E-02  4.71579E+01 -1.00000E+00  1.40541E-01
      21    -1     0     0   502   511  0.000000000E+00  0.000000000E+00  4.019562355E+02  4.019562355E+02  0.000000000E+00  0.00000E+00  9.000E+00
      21    -1     0     0   501   502  0.000000000E+00  0.000000000E+00 -7.123628743E+02  7.123628743E+02  0.000000000E+00  0.00000E+00  9.000E+00
      25     1     1     2     0     0  1.209850045E+02  2.957362281E+01 -6.059817517E+02  6.311504210E+02  1.250000000E+02  0.00000E+00  9.000E+00
      25     1     1     2     0     0 -1.019600503E+02 -7.272358394E+01 -6.860988973E+00  1.770780751E+02  1.250000000E+02  0.00000E+00  9.000E+00
      21     1     1     2   501   511 -1.902495422E+01  4.314996113E+01  3.024361020E+02  3.060906137E+02  3.814697266E-06  0.00000E+00  9.000E+00
#rwgt            1           1   3.4837372465171067E-002           4      491349           0
</event>
<event>
      5   9999  3.79277E-02  1.86167E+01 -1.00000E+00  1.68979E-01
      21    -1     0     0   512   501  0.000000000E+00  0.000000000E+00  3.457582129E+02  3.457582129E+02  0.000000000E+00  0.00000E+00  9.000E+00
      21    -1     0     0   501   502  0.000000000E+00  0.000000000E+00 -1.902073945E+02  1.902073945E+02  0.000000000E+00  0.00000E+00  9.000E+00
      25     1     1     2     0     0 -9.146332609E+01  1.987177516E+02  7.632949842E+01  2.632593344E+02  1.250000000E+02  0.00000E+00  9.000E+00
      25     1     1     2     0     0  7.917373503E+01 -1.847338887E+02  5.650690622E+01  2.433374620E+02  1.250000000E+02  0.00000E+00  9.000E+00
      21     1     1     2   512   502  1.228959107E+01 -1.398386286E+01  2.271441374E+01  2.936881102E+01  4.768371582E-07  0.00000E+00  9.000E+00
#rwgt            1           1   3.9620965323384348E-002           4      491483           0
</event>
<event>
      5   9999  3.79277E-02  2.42287E+01 -1.00000E+00  1.59777E-01
      21    -1     0     0   502   501  0.000000000E+00  0.000000000E+00  8.796941468E+01  8.796941468E+01  0.000000000E+00  0.00000E+00  9.000E+00
      21    -1     0     0   511   502  0.000000000E+00  0.000000000E+00 -3.663456286E+02  3.663456286E+02  0.000000000E+00  0.00000E+00  9.000E+00
      25     1     1     2     0     0  3.457769326E+01  2.930340431E+01 -1.828154574E+02  2.260548559E+02  1.250000000E+02  0.00000E+00  9.000E+00
      25     1     1     2     0     0 -5.522877631E+01 -4.197475489E+01 -1.454188565E+01  1.436960828E+02  1.250000000E+02  0.00000E+00  9.000E+00
      21     1     1     2   511   501  2.065108305E+01  1.267135058E+01 -8.101887085E+01  8.456410462E+01  1.348699152E-06  0.00000E+00  9.000E+00
#rwgt            1           1   4.0993990839337364E-002           4      491730           0
</event>
<event>
      5   9999  3.79277E-02  1.33781E+01 -1.00000E+00  1.82197E-01
      21    -1     0     0   502   512  0.000000000E+00  0.000000000E+00  5.950711168E+01  5.950711168E+01  0.000000000E+00  0.00000E+00  9.000E+00
      21    -1     0     0   501   502  0.000000000E+00  0.000000000E+00 -9.969967320E+02  9.969967320E+02  0.000000000E+00  0.00000E+00  9.000E+00
      25     1     1     2     0     0 -1.006411137E+02 -8.109210742E+01 -7.970376878E+02  8.170670960E+02  1.250000000E+02  0.00000E+00  9.000E+00
      25     1     1     2     0     0  1.090144188E+02  7.065840334E+01 -1.337145734E+02  2.244578816E+02  1.250000000E+02  0.00000E+00  9.000E+00
      21     1     1     2   501   512 -8.373305140E+00  1.043370409E+01 -6.737359107E+00  1.497886604E+01  3.862822472E-07  0.00000E+00  9.000E+00
#rwgt            1           1   3.8716438525837407E-002           4      491893           0
</event>
<event>
      5   9999  3.79277E-02  3.48318E+01 -1.00000E+00  1.48668E-01
      21    -1     0     0   502   511  0.000000000E+00  0.000000000E+00  8.987741952E+01  8.987741952E+01  0.000000000E+00  0.00000E+00  9.000E+00
      21    -1     0     0   501   502  0.000000000E+00  0.000000000E+00 -1.314466750E+03  1.314466750E+03  0.000000000E+00  0.00000E+00  9.000E+00
      25     1     1     2     0     0  1.185900923E+02 -2.036134154E+01 -6.599650776E+02  6.823907223E+02  1.250000000E+02  0.00000E+00  9.000E+00
      25     1     1     2     0     0 -1.522360872E+02  2.937260920E+01 -6.229542209E+02  6.540149370E+02  1.250000000E+02  0.00000E+00  9.000E+00
      21     1     1     2   501   511  3.364599490E+01 -9.011267666E+00  5.832996839E+01  6.793850992E+01  3.162979880E-06  0.00000E+00  9.000E+00
#rwgt            1           1  0.14731317871081098                4      492083           0
</event>
<event>
      5   9999  3.79277E-02  4.71938E+01 -1.00000E+00  1.40522E-01
      21    -1     0     0   502   512  0.000000000E+00  0.000000000E+00  1.586742675E+03  1.586742675E+03  0.000000000E+00  0.00000E+00  9.000E+00
      21    -1     0     0   501   502  0.000000000E+00  0.000000000E+00 -2.899854322E+02  2.899854322E+02  0.000000000E+00  0.00000E+00  9.000E+00
      25     1     1     2     0     0 -1.546882471E+02 -1.858151285E+02 -2.677008120E+01  2.734910474E+02  1.250000000E+02  0.00000E+00  9.000E+00
      25     1     1     2     0     0  1.405940375E+02  2.308552298E+02  1.958927318E+01  2.984452381E+02  1.250000000E+02  0.00000E+00  9.000E+00
      21     1     1     2   501   512  1.409420962E+01 -4.504010131E+01  1.303938051E+03  1.304791822E+03  2.642899792E-05  0.00000E+00  9.000E+00
#rwgt            1           1   2.3533331025990901E-002           4      492238           0
</event>
<event>
      5   9999  3.79277E-02  5.04778E+01 -1.00000E+00  1.38840E-01
      21    -1     0     0   502   511  0.000000000E+00  0.000000000E+00  7.018126639E+02  7.018126639E+02  0.000000000E+00  0.00000E+00  9.000E+00
      21    -1     0     0   501   502  0.000000000E+00  0.000000000E+00 -8.080231645E+01  8.080231645E+01  0.000000000E+00  0.00000E+00  9.000E+00
      25     1     1     2     0     0 -6.081898941E+00 -1.167944815E+02  5.398721290E+01  1.794925056E+02  1.250000000E+02  0.00000E+00  9.000E+00
      25     1     1     2     0     0 -3.325639053E+01  8.516368657E+01  4.383226017E+02  4.648769129E+02  1.250000000E+02  0.00000E+00  9.000E+00
      21     1     1     2   501   511  3.933828947E+01  3.163079495E+01  1.287005329E+02  1.382455618E+02  1.907348633E-06  0.00000E+00  9.000E+00
#rwgt            1           1   3.1712849734837498E-002           4      492358           0
</event>
<event>
      5   9999  3.79277E-02  2.68576E+02 -1.00000E+00  1.07177E-01
      21    -1     0     0   502   501  0.000000000E+00  0.000000000E+00  4.016900888E+02  4.016900888E+02  0.000000000E+00  0.00000E+00  9.000E+00
      21    -1     0     0   501   512  0.000000000E+00  0.000000000E+00 -7.615556065E+02  7.615556065E+02  0.000000000E+00  0.00000E+00  9.000E+00
      25     1     1     2     0     0  4.766298358E+01  2.674353910E+01  2.582020043E+02  2.920278273E+02  1.250000000E+02  0.00000E+00  9.000E+00
      25     1     1     2     0     0  1.275449996E+01 -2.884358524E+02 -1.951448597E+02  3.702221421E+02  1.250000000E+02  0.00000E+00  9.000E+00
      21     1     1     2   502   512 -6.041748354E+01  2.616923133E+02 -4.229226622E+02  5.009957259E+02  0.000000000E+00  0.00000E+00  9.000E+00
#rwgt            2          11   1.4527510328772165E-003           4      492484           0
</event>
<event>
      5   9999  3.79277E-02  7.06763E+01 -1.00000E+00  1.31010E-01
      21    -1     0     0   502   511  0.000000000E+00  0.000000000E+00  1.591191092E+02  1.591191092E+02  0.000000000E+00  0.00000E+00  9.000E+00
      21    -1     0     0   501   502  0.000000000E+00  0.000000000E+00 -1.590852250E+03  1.590852250E+03  0.000000000E+00  0.00000E+00  9.000E+00
      25     1     1     2     0     0 -2.175265385E+02 -1.355933824E+02 -1.096612805E+03  1.133087819E+03  1.250000000E+02  0.00000E+00  9.000E+00
      25     1     1     2     0     0  2.528943892E+02  1.967836963E+02 -3.953472378E+02  5.240265582E+02  1.250000000E+02  0.00000E+00  9.000E+00
      21     1     1     2   501   511 -3.536785073E+01 -6.119031389E+01  6.022690228E+01  9.285698217E+01  1.784161275E-06  0.00000E+00  9.000E+00
#rwgt            1           1   4.5845099046887293E-002           4      492564           0
</event>
<event>
      5   9999  3.79277E-02  5.04918E+01 -1.00000E+00  1.38833E-01
       1    -1     0     0   502     0  0.000000000E+00  0.000000000E+00  1.116063545E+03  1.116063545E+03  0.000000000E+00  0.00000E+00  9.000E+00
      21    -1     0     0   501   502  0.000000000E+00  0.000000000E+00 -1.314521369E+02  1.314521369E+02  0.000000000E+00  0.00000E+00  9.000E+00
      25     1     1     2     0     0 -1.561388476E+02 -1.060298141E+02  3.752674695E+02  4.382605787E+02  1.250000000E+02  0.00000E+00  9.000E+00
      25     1     1     2     0     0  1.091131944E+02  8.764474718E+01 -9.943568609E+00  1.879126538E+02  1.250000000E+02  0.00000E+00  9.000E+00
       1     1     1     2   501     0  4.702565325E+01  1.838506688E+01  6.192875074E+02  6.213424495E+02  1.078959322E-05  0.00000E+00  9.000E+00
#rwgt            1           1   4.4518368567803591E-002           4      492765           0
</event>
<event>
      5   9999  3.79277E-02  1.43324E+01 -1.00000E+00  1.79267E-01
      21    -1     0     0   502   511  0.000000000E+00  0.000000000E+00  8.485012661E+01  8.485012661E+01  0.000000000E+00  0.00000E+00  9.000E+00
      21    -1     0     0   501   502  0.000000000E+00  0.000000000E+00 -1.962103882E+03  1.962103882E+03  0.000000000E+00  0.00000E+00  9.000E+00
      25     1     1     2     0     0 -1.556016310E+02  8.407327700E+01 -7.556570460E+02  7.860806286E+02  1.250000000E+02  0.00000E+00  9.000E+00
      25     1     1     2     0     0  1.419024339E+02 -8.828625407E+01 -1.181238684E+03  1.199533489E+03  1.250000000E+02  0.00000E+00  9.000E+00
      21     1     1     2   501   511  1.369919711E+01  4.212977077E+00  5.964197410E+01  6.133989120E+01  4.909339018E-06  0.00000E+00  9.000E+00
#rwgt            1           1  0.19187035576505518                4      492844           0
</event>
<event>
      5   9999  3.79277E-02  6.12709E+01 -1.00000E+00  1.34219E-01
      21    -1     0     0   512   501  0.000000000E+00  0.000000000E+00  1.130731413E+03  1.130731413E+03  0.000000000E+00  0.00000E+00  9.000E+00
      21    -1     0     0   501   502  0.000000000E+00  0.000000000E+00 -4.635619806E+02  4.635619806E+02  0.000000000E+00  0.00000E+00  9.000E+00
      25     1     1     2     0     0 -1.010893290E+02  1.766498352E+02 -3.403111047E+02  4.157653962E+02  1.250000000E+02  0.00000E+00  9.000E+00
      25     1     1     2     0     0  1.531123906E+02 -1.442812290E+02  9.267925696E+01  2.616771328E+02  1.250000000E+02  0.00000E+00  9.000E+00
      21     1     1     2   512   502 -5.202306161E+01 -3.236860619E+01  9.148012801E+02  9.168508645E+02  1.078959322E-05  0.00000E+00  9.000E+00
#rwgt            1           1   2.8219586314477092E-002           4      492974           0
</event>
<event>
      5   9999  3.79277E-02  6.07397E+01 -1.00000E+00  1.34420E-01
      21    -1     0     0   502   501  0.000000000E+00  0.000000000E+00  3.892061618E+01  3.892061618E+01  0.000000000E+00  0.00000E+00  9.000E+00
       2    -1     0     0   501     0  0.000000000E+00  0.000000000E+00 -2.150302310E+03  2.150302310E+03  0.000000000E+00  0.00000E+00  9.000E+00
      25     1     1     2     0     0  5.789302884E+01  1.561317743E+02 -3.760490430E+02  4.298448749E+02  1.250000000E+02  0.00000E+00  9.000E+00
      25     1     1     2     0     0 -1.358862509E+00 -1.783398315E+02 -1.114420024E+03  1.135501621E+03  1.250000000E+02  0.00000E+00  9.000E+00
       2     1     1     2   502     0 -5.653416633E+01  2.220805718E+01 -6.209126267E+02  6.238764299E+02  0.000000000E+00  0.00000E+00  9.000E+00
#rwgt            1           1   3.7413158623472074E-002           4      493062           0
</event>
<event>
      5   9999  3.79277E-02  1.09906E+01 -1.00000E+00  1.91132E-01
      21    -1     0     0   502   511  0.000000000E+00  0.000000000E+00  1.403887362E+03  1.403887362E+03  0.000000000E+00  0.00000E+00  9.000E+00
      21    -1     0     0   501   502  0.000000000E+00  0.000000000E+00 -4.009877441E+01  4.009877441E+01  0.000000000E+00  0.00000E+00  9.000E+00
      25     1     1     2     0     0 -1.387381074E+02  3.586128759E+01  4.412388771E+02  4.804696047E+02  1.250000000E+02  0.00000E+00  9.000E+00
      25     1     1     2     0     0  1.466886413E+02 -2.827302772E+01  4.440919160E+02  4.849325225E+02  1.250000000E+02  0.00000E+00  9.000E+00
      21     1     1     2   501   511 -7.950533852E+00 -7.588259870E+00  4.784577945E+02  4.785840091E+02  1.078959322E-05  0.00000E+00  9.000E+00
#rwgt            1           1   3.2594006365205326E-002           4      493151           0
</event>
<event>
      5   9999  3.79277E-02  6.29095E+01 -1.00000E+00  1.33614E-01
      21    -1     0     0   502   501  0.000000000E+00  0.000000000E+00  4.926689073E+02  4.926689073E+02  0.000000000E+00  0.00000E+00  9.000E+00
       4    -1     0     0   501     0  0.000000000E+00  0.000000000E+00 -2.416350814E+02  2.416350814E+02  0.000000000E+00  0.00000E+00  9.000E+00
      25     1     1     2     0     0 -7.971470609E+01  2.449445251E+02  2.207197282E+02  3.615168781E+02  1.250000000E+02  0.00000E+00  9.000E+00
      25     1     1     2     0     0  4.824412867E+01 -1.904724393E+02  1.209843893E+02  2.624299307E+02  1.250000000E+02  0.00000E+00  9.000E+00
       4     1     1     2   502     0  3.147057742E+01 -5.447208585E+01 -9.067029163E+01  1.103571799E+02  0.000000000E+00  0.00000E+00  9.000E+00
#rwgt            1           1   3.2931932983269206E-002           4      493424           0
</event>
<event>
      5   9999  3.79277E-02  1.16115E+01 -1.00000E+00  1.88543E-01
      21    -1     0     0   502   511  0.000000000E+00  0.000000000E+00  7.922247089E+01  7.922247089E+01  0.000000000E+00  0.00000E+00  9.000E+00
      21    -1     0     0   501   502  0.000000000E+00  0.000000000E+00 -6.277041194E+02  6.277041194E+02  0.000000000E+00  0.00000E+00  9.000E+00
      25     1     1     2     0     0  1.276844043E+02  3.479484450E+00 -4.589420036E+02  4.925121080E+02  1.250000000E+02  0.00000E+00  9.000E+00
      25     1     1     2     0     0 -1.329866475E+02 -1.380973082E+01 -8.630800676E+01  2.023616296E+02  1.250000000E+02  0.00000E+00  9.000E+00
      21     1     1     2   501   511  5.302243255E+00  1.033024637E+01 -3.231638216E+00  1.205285274E+01  1.576990671E-07  0.00000E+00  9.000E+00
#rwgt            1           1   3.5900152529198814E-002           4      493492           0
</event>
<event>
      5   9999  3.79277E-02  1.17461E+02 -1.00000E+00  1.20764E-01
      21    -1     0     0   502   501  0.000000000E+00  0.000000000E+00  1.502650357E+03  1.502650357E+03  0.000000000E+00  0.00000E+00  9.000E+00
      21    -1     0     0   512   502  0.000000000E+00  0.000000000E+00 -8.216895407E+01  8.216895407E+01  0.000000000E+00  0.00000E+00  9.000E+00
      25     1     1     2     0     0  1.673648013E+01  9.221885542E+01  2.473720445E+02  2.925788021E+02  1.250000000E+02  0.00000E+00  9.000E+00
      25     1     1     2     0     0 -1.287393824E+02 -5.682831563E+01  1.158711969E+03  1.173900214E+03  1.250000000E+02  0.00000E+00  9.000E+00
      21     1     1     2   512   501  1.120029022E+02 -3.539053979E+01  1.439738896E+01  1.183402942E+02  1.936921693E-06  0.00000E+00  9.000E+00
#rwgt            1           1   5.8594825515035399E-002           4      493768           0
</event>
<event>
      5   9999  3.79277E-02  1.69319E+01 -1.00000E+00  1.72566E-01
      -5    -1     0     0     0   501  0.000000000E+00  0.000000000E+00  3.151023704E+02  3.151023704E+02  0.000000000E+00  0.00000E+00  9.000E+00
      21    -1     0     0   501   502  0.000000000E+00  0.000000000E+00 -6.863550517E+02  6.863550517E+02  0.000000000E+00  0.00000E+00  9.000E+00
      25     1     1     2     0     0  3.414430031E+01 -2.139366208E+01 -5.938134729E+02  6.081635986E+02  1.250000000E+02  0.00000E+00  9.000E+00
      25     1     1     2     0     0 -3.203549286E+01  4.593581545E+00 -3.610504238E+01  1.340744117E+02  1.250000000E+02  0.00000E+00  9.000E+00
      -5     1     1     2     0   502 -2.108807456E+00  1.680008054E+01  2.586658340E+02  2.592194118E+02  3.814697266E-06  0.00000E+00  9.000E+00
#rwgt            1           1   3.3153908506746078E-002           4      493921           0
</event>
<event>
      5   9999  3.79277E-02  1.02578E+02 -1.00000E+00  1.23333E-01
      21    -1     0     0   502   501  0.000000000E+00  0.000000000E+00  7.984380859E+01  7.984380859E+01  0.000000000E+00  0.00000E+00  9.000E+00
      21    -1     0     0   501   511  0.000000000E+00  0.000000000E+00 -1.195661384E+03  1.195661384E+03  0.000000000E+00  0.00000E+00  9.000E+00
      25     1     1     2     0     0 -2.087613280E+02  9.609631835E+01 -3.052602202E+02  4.020256167E+02  1.250000000E+02  0.00000E+00  9.000E+00
      25     1     1     2     0     0  1.845512342E+02  3.583572555E+00 -5.588811839E+02  6.017019010E+02  1.250000000E+02  0.00000E+00  9.000E+00
      21     1     1     2   502   511  2.421009380E+01 -9.967989090E+01 -2.516761712E+02  2.717776747E+02  6.031565972E-06  0.00000E+00  9.000E+00
#rwgt            1           1   3.8471103036101940E-002           4      494061           0
</event>
<event>
      5   9999  3.79277E-02  3.46521E+01 -1.00000E+00  1.48815E-01
      21    -1     0     0   512   501  0.000000000E+00  0.000000000E+00  7.415768595E+02  7.415768595E+02  0.000000000E+00  0.00000E+00  9.000E+00
      21    -1     0     0   501   502  0.000000000E+00  0.000000000E+00 -4.930584713E+01  4.930584713E+01  0.000000000E+00  0.00000E+00  9.000E+00
      25     1     1     2     0     0 -3.603555657E+01  8.804041410E+01  2.169084505E+02  2.678132778E+02  1.250000000E+02  0.00000E+00  9.000E+00
      25     1     1     2     0     0  3.256475129E+01 -1.225182169E+02  3.456231286E+02  3.887821029E+02  1.250000000E+02  0.00000E+00  9.000E+00
      21     1     1     2   512   502  3.470805277E+00  3.447780280E+01  1.297394333E+02  1.342873260E+02  1.907348633E-06  0.00000E+00  9.000E+00
#rwgt            1           1   4.2381904668707969E-002           4      494194           0
</event>
<event>
      5   9999  3.79277E-02  1.89202E+02 -1.00000E+00  1.12533E-01
      21    -1     0     0   502   501  0.000000000E+00  0.000000000E+00  4.005524129E+02  4.005524129E+02  0.000000000E+00  0.00000E+00  9.000E+00
      21    -1     0     0   501   511  0.000000000E+00  0.000000000E+00 -6.728966596E+02  6.728966596E+02  0.000000000E+00  0.00000E+00  9.000E+00
      25     1     1     2     0     0 -7.699762470E+01 -2.180829707E+02  2.981429265E+02  3.974959383E+02  1.250000000E+02  0.00000E+00  9.000E+00
      25     1     1     2     0     0 -4.619867534E+01  7.448571341E+01 -1.461501629E+02  2.113464199E+02  1.250000000E+02  0.00000E+00  9.000E+00
      21     1     1     2   502   511  1.231963000E+02  1.435972573E+02 -4.243370103E+02  4.646067143E+02  5.394796609E-06  0.00000E+00  9.000E+00
#rwgt            2          11   1.9866753708895372E-003           4      494309           0
</event>
<event>
      5   9999  3.79277E-02  3.99548E+01 -1.00000E+00  1.44871E-01
       1    -1     0     0   502     0  0.000000000E+00  0.000000000E+00  3.122012672E+02  3.122012672E+02  0.000000000E+00  0.00000E+00  9.000E+00
      21    -1     0     0   501   502  0.000000000E+00  0.000000000E+00 -8.889188606E+02  8.889188606E+02  0.000000000E+00  0.00000E+00  9.000E+00
      25     1     1     2     0     0  1.018724888E+02  5.928371300E+00 -6.304541145E+02  6.507768742E+02  1.250000000E+02  0.00000E+00  9.000E+00
      25     1     1     2     0     0 -1.330760369E+02  1.902605936E+01 -2.126824606E+02  2.809449262E+02  1.250000000E+02  0.00000E+00  9.000E+00
       1     1     1     2   501     0  3.120354807E+01 -2.495443066E+01  2.664189816E+02  2.693983274E+02  0.000000000E+00  0.00000E+00  9.000E+00
#rwgt            1           1   3.7060913241307912E-002           4      494344           0
</event>
<event>
      5   9999 -3.79277E-02  2.07699E+01 -1.00000E+00  1.65027E-01
      21    -1     0     0   511   501  0.000000000E+00  0.000000000E+00  3.497880206E+02  3.497880206E+02  0.000000000E+00  0.00000E+00  9.000E+00
      21    -1     0     0   501   502  0.000000000E+00  0.000000000E+00 -1.803803256E+02  1.803803256E+02  0.000000000E+00  0.00000E+00  9.000E+00
      25     1     1     2     0     0 -3.970131799E+01 -1.666303922E+02  3.058704945E+01  2.142485702E+02  1.250000000E+02  0.00000E+00  9.000E+00
      25     1     1     2     0     0  3.397352785E+01  1.865949406E+02  6.074896365E+01  2.351325350E+02  1.250000000E+02  0.00000E+00  9.000E+00
      21     1     1     2   511   502  5.727790143E+00 -1.996454836E+01  7.807168194E+01  8.078724090E+01  9.536743164E-07  0.00000E+00  9.000E+00
#rwgt            1           1 -0.12104408462951295                4      494499           0
</event>
<event>
      5   9999  3.79277E-02  1.60470E+02 -1.00000E+00  1.15244E-01
      21    -1     0     0   502   501  0.000000000E+00  0.000000000E+00  1.266626315E+03  1.266626315E+03  0.000000000E+00  0.00000E+00  9.000E+00
      21    -1     0     0   501   512  0.000000000E+00  0.000000000E+00 -1.644439937E+02  1.644439937E+02  0.000000000E+00  0.00000E+00  9.000E+00
      25     1     1     2     0     0 -8.506636110E+01  2.072058665E+02  1.022175974E+03  1.053868720E+03  1.250000000E+02  0.00000E+00  9.000E+00
      25     1     1     2     0     0 -5.967478193E+01 -1.379200163E+02 -5.150356008E+00  1.955365354E+02  1.250000000E+02  0.00000E+00  9.000E+00
      21     1     1     2   502   512  1.447411430E+02 -6.928585014E+01  8.515670324E+01  1.816650534E+02  2.523185073E-06  0.00000E+00  9.000E+00
#rwgt            1           1   3.4252595651619512E-002           4      494641           0
</event>
<event>
      5   9999  3.79277E-02  1.06354E+02 -1.00000E+00  1.22637E-01
      21    -1     0     0   511   501  0.000000000E+00  0.000000000E+00  6.841447387E+02  6.841447387E+02  0.000000000E+00  0.00000E+00  9.000E+00
      21    -1     0     0   501   502  0.000000000E+00  0.000000000E+00 -2.678754388E+02  2.678754388E+02  0.000000000E+00  0.00000E+00  9.000E+00
      25     1     1     2     0     0 -1.210289461E+02 -3.285068011E+02  1.470328023E+02  3.997603896E+02  1.250000000E+02  0.00000E+00  9.000E+00
      25     1     1     2     0     0  8.204361907E+01  2.295560195E+02  1.235779391E+01  2.742350025E+02  1.250000000E+02  0.00000E+00  9.000E+00
      21     1     1     2   511   502  3.898532705E+01  9.895078157E+01  2.568787037E+02  2.780247854E+02  3.814697266E-06  0.00000E+00  9.000E+00
#rwgt            1           1   1.8273847426188317E-002           4      494818           0
</event>
<event>
      5   9999  3.79277E-02  4.12321E+01 -1.00000E+00  1.44028E-01
      21    -1     0     0   502   512  0.000000000E+00  0.000000000E+00  7.970655389E+01  7.970655389E+01  0.000000000E+00  0.00000E+00  9.000E+00
      21    -1     0     0   501   502  0.000000000E+00  0.000000000E+00 -6.552832150E+02  6.552832150E+02  0.000000000E+00  0.00000E+00  9.000E+00
      25     1     1     2     0     0 -4.755274887E+01  8.253707989E+01 -5.818196911E+01  1.675821441E+02  1.250000000E+02  0.00000E+00  9.000E+00
      25     1     1     2     0     0  8.774376359E+01 -9.174410192E+01 -4.790297115E+02  5.110874806E+02  1.250000000E+02  0.00000E+00  9.000E+00
      21     1     1     2   501   512 -4.019101472E+01  9.207022021E+00 -3.836498046E+01  5.632014422E+01  8.259061849E-07  0.00000E+00  9.000E+00
#rwgt            1           1   5.3519673779054332E-002           4      494932           0
</event>
<event>
      5   9999  3.79277E-02  1.37964E+02 -1.00000E+00  1.17852E-01
       2    -1     0     0   502     0  0.000000000E+00  0.000000000E+00  2.507528109E+02  2.507528109E+02  0.000000000E+00  0.00000E+00  9.000E+00
      21    -1     0     0   501   502  0.000000000E+00  0.000000000E+00 -4.887426465E+02  4.887426465E+02  0.000000000E+00  0.00000E+00  9.000E+00
      25     1     1     2     0     0  8.570906682E+01  3.327740198E+01 -3.945504988E+02  4.239675999E+02  1.250000000E+02  0.00000E+00  9.000E+00
      25     1     1     2     0     0  2.921717918E+01  4.305131165E+01  6.723312599E+01  1.511699448E+02  1.250000000E+02  0.00000E+00  9.000E+00
       2     1     1     2   501     0 -1.149262460E+02 -7.632871362E+01  8.932753723E+01  1.643579126E+02  2.132480600E-06  0.00000E+00  9.000E+00
#rwgt            1           1   4.5079386194539918E-002           4      495197           0
</event>
<event>
      5   9999  3.79277E-02  9.05341E+01 -1.00000E+00  1.25802E-01
      21    -1     0     0   502   501  0.000000000E+00  0.000000000E+00  3.965271928E+02  3.965271928E+02  0.000000000E+00  0.00000E+00  9.000E+00
      21    -1     0     0   511   502  0.000000000E+00  0.000000000E+00 -5.431737227E+02  5.431737227E+02  0.000000000E+00  0.00000E+00  9.000E+00
      25     1     1     2     0     0  7.755931554E+01 -2.854389014E+02 -2.160736385E+02  3.870447405E+02  1.250000000E+02  0.00000E+00  9.000E+00
      25     1     1     2     0     0 -6.171359395E+01  1.963022885E+02  2.522101478E+02  3.486805340E+02  1.250000000E+02  0.00000E+00  9.000E+00
      21     1     1     2   511   501 -1.584572159E+01  8.913661297E+01 -1.827830393E+02  2.039756410E+02  2.697398305E-06  0.00000E+00  9.000E+00
#rwgt            1           1   4.2381148482971559E-002           4      495276           0
</event>
<event>
      5   9999  3.79277E-02  8.31165E+00 -1.00000E+00  2.05524E-01
      21    -1     0     0   502   501  0.000000000E+00  0.000000000E+00  2.407231607E+02  2.407231607E+02  0.000000000E+00  0.00000E+00  9.000E+00
      21    -1     0     0   512   502  0.000000000E+00  0.000000000E+00 -1.844675629E+02  1.844675629E+02  0.000000000E+00  0.00000E+00  9.000E+00
      25     1     1     2     0     0  1.763739944E+01 -1.032550312E+02  1.136791596E+02  1.987979644E+02  1.250000000E+02  0.00000E+00  9.000E+00
      25     1     1     2     0     0 -1.105901003E+01  9.817484176E+01  8.874658226E+00  1.595755646E+02  1.250000000E+02  0.00000E+00  9.000E+00
      21     1     1     2   512   501 -6.578389403E+00  5.080189456E+00 -6.629821992E+01  6.681719462E+01  1.348699152E-06  0.00000E+00  9.000E+00
#rwgt            1           1   3.9017855303796145E-002           4      495359           0
</event>
<event>
      5   9999  3.79277E-02  7.64323E+01 -1.00000E+00  1.29316E-01
       2    -1     0     0   502     0  0.000000000E+00  0.000000000E+00  1.019172809E+03  1.019172809E+03  0.000000000E+00  0.00000E+00  9.000E+00
      21    -1     0     0   501   502  0.000000000E+00  0.000000000E+00 -2.990955852E+02  2.990955852E+02  0.000000000E+00  0.00000E+00  9.000E+00
      25     1     1     2     0     0 -1.238064209E+02 -3.569722345E+01 -2.352747163E+02  2.959417404E+02  1.250000000E+02  0.00000E+00  9.000E+00
      25     1     1     2     0     0  1.840778920E+02 -1.130547647E+01  3.692166666E+02  4.312289775E+02  1.250000000E+02  0.00000E+00  9.000E+00
       2     1     1     2   501     0 -6.027147113E+01  4.700269992E+01  5.861352736E+02  5.910976763E+02  7.629394531E-06  0.00000E+00  9.000E+00
#rwgt            1           1   4.7560459440323576E-002           4      495630           0
</event>
<event>
      5   9999  3.79277E-02  2.41382E+01 -1.00000E+00  1.59901E-01
      21    -1     0     0   511   501  0.000000000E+00  0.000000000E+00  1.554578578E+02  1.554578578E+02  0.000000000E+00  0.00000E+00  9.000E+00
      21    -1     0     0   501   502  0.000000000E+00  0.000000000E+00 -2.992193970E+02  2.992193970E+02  0.000000000E+00  0.00000E+00  9.000E+00
      25     1     1     2     0     0  9.016621669E+01 -5.231396816E+00 -1.619068856E+01  1.550627374E+02  1.250000000E+02  0.00000E+00  9.000E+00
      25     1     1     2     0     0 -7.648418938E+01  2.511743397E+01 -1.849869781E+02  2.373307792E+02  1.250000000E+02  0.00000E+00  9.000E+00
      21     1     1     2   511   502 -1.368202731E+01 -1.988603716E+01  5.741612746E+01  6.228373815E+01  0.000000000E+00  0.00000E+00  9.000E+00
#rwgt            1           1   2.3293393689255006E-002           4      495794           0
</event>
<event>
      5   9999  3.79277E-02  5.14444E+01 -1.00000E+00  1.38373E-01
      21    -1     0     0   502   501  0.000000000E+00  0.000000000E+00  3.332532085E+02  3.332532085E+02  0.000000000E+00  0.00000E+00  9.000E+00
       2    -1     0     0   501     0  0.000000000E+00  0.000000000E+00 -2.768693466E+02  2.768693466E+02  0.000000000E+00  0.00000E+00  9.000E+00
      25     1     1     2     0     0  2.362014436E+01  2.671439969E+01 -4.400673815E+01  1.372339731E+02  1.250000000E+02  0.00000E+00  9.000E+00
      25     1     1     2     0     0  1.147337331E+01  1.090172358E+01  2.687633753E+02  2.968320026E+02  1.250000000E+02  0.00000E+00  9.000E+00
       2     1     1     2   502     0 -3.509351767E+01 -3.761612327E+01 -1.683727753E+02  1.760565794E+02  1.907348633E-06  0.00000E+00  9.000E+00
#rwgt            1           1   3.5486833513519320E-002           4      495899           0
</event>
<event>
      5   9999  3.79277E-02  6.57031E+01 -1.00000E+00  1.32629E-01
      21    -1     0     0   502   501  0.000000000E+00  0.000000000E+00  1.321936514E+03  1.321936514E+03  0.000000000E+00  0.00000E+00  9.000E+00
      21    -1     0     0   501   511  0.000000000E+00  0.000000000E+00 -5.543670435E+01  5.543670435E+01  0.000000000E+00  0.00000E+00  9.000E+00
      25     1     1     2     0     0  1.085169276E+02  9.780603679E+01  1.062287072E+03  1.079546557E+03  1.250000000E+02  0.00000E+00  9.000E+00
      25     1     1     2     0     0 -6.234380521E+01 -5.106263974E+01  1.205332569E+02  1.914351307E+02  1.250000000E+02  0.00000E+00  9.000E+00
      21     1     1     2   502   511 -4.617312236E+01 -4.674339704E+01  8.367948050E+01  1.063915309E+02  9.536743164E-07  0.00000E+00  9.000E+00
#rwgt            1           1   4.2972609225378822E-002           4      495946           0
</event>
<event>
      5   9999  3.79277E-02  1.50223E+01 -1.00000E+00  1.77323E-01
      21    -1     0     0   502   501  0.000000000E+00  0.000000000E+00  5.321921533E+02  5.321921533E+02  0.000000000E+00  0.00000E+00  9.000E+00
      21    -1     0     0   512   502  0.000000000E+00  0.000000000E+00 -1.568212480E+02  1.568212480E+02  0.000000000E+00  0.00000E+00  9.000E+00
      25     1     1     2     0     0  1.459075155E+02  1.244361855E+02 -5.477395431E+00  2.289724202E+02  1.250000000E+02  0.00000E+00  9.000E+00
      25     1     1     2     0     0 -1.551038158E+02 -1.125577327E+02  3.816677978E+02  4.449963424E+02  1.250000000E+02  0.00000E+00  9.000E+00
      21     1     1     2   512   501  9.196300311E+00 -1.187845275E+01 -8.194971429E-01  1.504463874E+01  1.369772577E-07  0.00000E+00  9.000E+00
#rwgt            1           1   3.7360679928703268E-002           4      496131           0
</event>
<event>
      5   9999  3.79277E-02  4.56692E+01 -1.00000E+00  1.41358E-01
      21    -1     0     0   502   501  0.000000000E+00  0.000000000E+00  1.476739240E+02  1.476739240E+02  0.000000000E+00  0.00000E+00  9.000E+00
      21    -1     0     0   511   502  0.000000000E+00  0.000000000E+00 -1.430122225E+03  1.430122225E+03  0.000000000E+00  0.00000E+00  9.000E+00
      25     1     1     2     0     0  1.561414237E+02  3.187124682E+02 -4.454559973E+02  5.831070460E+02  1.250000000E+02  0.00000E+00  9.000E+00
      25     1     1     2     0     0 -1.570363801E+02 -3.643728963E+02 -4.816638663E+02  6.364378307E+02  1.250000000E+02  0.00000E+00  9.000E+00
      21     1     1     2   511   501  8.949563534E-01  4.566042812E+01 -3.553284372E+02  3.582512720E+02  5.394796609E-06  0.00000E+00  9.000E+00
#rwgt            1           1   4.9769284974507652E-002           4      496428           0
</event>
<event>
      5   9999  3.79277E-02  4.98385E+01 -1.00000E+00  1.39156E-01
      21    -1     0     0   502   512  0.000000000E+00  0.000000000E+00  3.204376044E+01  3.204376044E+01  0.000000000E+00  0.00000E+00  9.000E+00
      21    -1     0     0   501   502  0.000000000E+00  0.000000000E+00 -1.313154375E+03  1.313154375E+03  0.000000000E+00  0.00000E+00  9.000E+00
      25     1     1     2     0     0  1.191145614E+02 -7.625849552E+00 -4.351037178E+02  4.681737686E+02  1.250000000E+02  0.00000E+00  9.000E+00
      25     1     1     2     0     0 -1.182545280E+02 -4.220518769E+01 -7.209798588E+02  7.424300425E+02  1.250000000E+02  0.00000E+00  9.000E+00
      21     1     1     2   501   512 -8.600334950E-01  4.983103724E+01 -1.250270381E+02  1.345943245E+02  2.336015456E-06  0.00000E+00  9.000E+00
#rwgt            1           1   3.6155919443290371E-002           4      496565           0
</event>
<event>
      5   9999  3.79277E-02  1.09773E+02 -1.00000E+00  1.22034E-01
      21    -1     0     0   502   511  0.000000000E+00  0.000000000E+00  2.942326153E+02  2.942326153E+02  0.000000000E+00  0.00000E+00  9.000E+00
      21    -1     0     0   501   502  0.000000000E+00  0.000000000E+00 -5.482641750E+02  5.482641750E+02  0.000000000E+00  0.00000E+00  9.000E+00
      25     1     1     2     0     0 -4.761921151E+01 -2.252071256E+02 -6.068370034E+01  2.688742275E+02  1.250000000E+02  0.00000E+00  9.000E+00
      25     1     1     2     0     0  3.388635657E+01  1.162967772E+02 -3.449921759E+02  3.864166495E+02  1.250000000E+02  0.00000E+00  9.000E+00
      21     1     1     2   501   511  1.373285494E+01  1.089103484E+02  1.516443164E+02  1.872059134E+02  3.814697266E-06  0.00000E+00  9.000E+00
#rwgt            1           1   4.1839484373243724E-002           4      496710           0
</event>
<event>
      5   9999  3.79277E-02  6.44683E+01 -1.00000E+00  1.33057E-01
      21    -1     0     0   502   501  0.000000000E+00  0.000000000E+00  1.910650543E+02  1.910650543E+02  0.000000000E+00  0.00000E+00  9.000E+00
      21    -1     0     0   501   512  0.000000000E+00  0.000000000E+00 -3.015130133E+02  3.015130133E+02  0.000000000E+00  0.00000E+00  9.000E+00
      25     1     1     2     0     0 -2.607510590E+01  1.302254974E+02  1.878072110E+00  1.823927588E+02  1.250000000E+02  0.00000E+00  9.000E+00
      25     1     1     2     0     0  7.695459211E+01 -1.698163911E+02 -8.242415199E+01  2.391199631E+02  1.250000000E+02  0.00000E+00  9.000E+00
      21     1     1     2   502   512 -5.087948620E+01  3.959089366E+01 -2.990187912E+01  7.106534564E+01  1.066240300E-06  0.00000E+00  9.000E+00
#rwgt            1           1   4.2306869136868958E-002           4      496814           0
</event>
<event>
      5   9999  3.79277E-02  8.65540E+00 -1.00000E+00  2.03298E-01
      21    -1     0     0   502   501  0.000000000E+00  0.000000000E+00  2.547757085E+02  2.547757085E+02  0.000000000E+00  0.00000E+00  9.000E+00
      21    -1     0     0   511   502  0.000000000E+00  0.000000000E+00 -3.372034604E+02  3.372034604E+02  0.000000000E+00  0.00000E+00  9.000E+00
      25     1     1     2     0     0 -2.478778738E+01 -1.841015895E+02 -4.177943370E+01  2.277681952E+02  1.250000000E+02  0.00000E+00  9.000E+00
      25     1     1     2     0     0  1.752274364E+01  1.793968038E+02  8.721541010E+01  2.360546282E+02  1.250000000E+02  0.00000E+00  9.000E+00
      21     1     1     2   511   501  7.265043742E+00  4.704785692E+00 -1.278637283E+02  1.281563455E+02  0.000000000E+00  0.00000E+00  9.000E+00
#rwgt            1           1   3.1176143091359285E-002           4      496894           0
</event>
<event>
      5   9999  3.79277E-02  1.26698E+01 -1.00000E+00  1.84581E-01
      21    -1     0     0   502   512  0.000000000E+00  0.000000000E+00  1.538733757E+03  1.538733757E+03  0.000000000E+00  0.00000E+00  9.000E+00
      21    -1     0     0   501   502  0.000000000E+00  0.000000000E+00 -3.054815297E+01  3.054815297E+01  0.000000000E+00  0.00000E+00  9.000E+00
      25     1     1     2     0     0 -1.320918199E+02 -1.127145833E+02  7.447931216E+02  7.749158794E+02  1.250000000E+02  0.00000E+00  9.000E+00
      25     1     1     2     0     0  1.194438146E+02  1.119711392E+02  6.980740965E+02  7.278302034E+02  1.250000000E+02  0.00000E+00  9.000E+00
      21     1     1     2   501   512  1.264800533E+01  7.434440523E-01  6.531838576E+01  6.653582694E+01  0.000000000E+00  0.00000E+00  9.000E+00
#rwgt            1           1   3.7674389351059379E-002           4      497185           0
</event>
<event>
      5   9999  3.79277E-02  1.18033E+01 -1.00000E+00  1.87786E-01
      21    -1     0     0   502   511  0.000000000E+00  0.000000000E+00  2.078547091E+02  2.078547091E+02  0.000000000E+00  0.00000E+00  9.000E+00
      21    -1     0     0   501   502  0.000000000E+00  0.000000000E+00 -3.538539885E+02  3.538539885E+02  0.000000000E+00  0.00000E+00  9.000E+00
      25     1     1     2     0     0 -6.438991331E+01 -1.542650621E+02  8.922482438E+01  2.270018493E+02  1.250000000E+02  0.00000E+00  9.000E+00
      25     1     1     2     0     0  6.633100504E+01  1.426225102E+02 -2.467561059E+02  3.182052144E+02  1.250000000E+02  0.00000E+00  9.000E+00
      21     1     1     2   501   511 -1.941091731E+00  1.164255189E+01  1.153200211E+01  1.650163398E+01  2.920019320E-07  0.00000E+00  9.000E+00
#rwgt            1           1   3.3659498889242509E-002           4      497649           0
</event>
<event>
      5   9999  3.79277E-02  4.99401E+01 -1.00000E+00  1.39105E-01
      21    -1     0     0   502   501  0.000000000E+00  0.000000000E+00  2.717285085E+01  2.717285085E+01  0.000000000E+00  0.00000E+00  9.000E+00
       1    -1     0     0   501     0  0.000000000E+00  0.000000000E+00 -3.016413463E+03  3.016413463E+03  0.000000000E+00  0.00000E+00  9.000E+00
      25     1     1     2     0     0  2.905686790E+01 -8.477182194E+01 -2.309103247E+02  2.774439429E+02  1.250000000E+02  0.00000E+00  9.000E+00
      25     1     1     2     0     0  6.393470466E+00  4.959674150E+01 -1.299069876E+03  1.306027663E+03  1.250000000E+02  0.00000E+00  9.000E+00
       1     1     1     2   502     0 -3.545033837E+01  3.517508044E+01 -1.459260411E+03  1.460114708E+03  2.157918644E-05  0.00000E+00  9.000E+00
#rwgt            1           1   3.7385839489433484E-002           4      497885           0
</event>
<event>
      5   9999  3.79277E-02  4.26563E+01 -1.00000E+00  1.43129E-01
      21    -1     0     0   502   511  0.000000000E+00  0.000000000E+00  2.093701908E+02  2.093701908E+02  0.000000000E+00  0.00000E+00  9.000E+00
      21    -1     0     0   501   502  0.000000000E+00  0.000000000E+00 -2.472862090E+02  2.472862090E+02  0.000000000E+00  0.00000E+00  9.000E+00
      25     1     1     2     0     0  9.353521549E+01  3.388062636E+01  6.820736472E+01  1.737065859E+02  1.250000000E+02  0.00000E+00  9.000E+00
      25     1     1     2     0     0 -7.695900337E+01 -7.318447767E+01 -1.496304552E+02  2.220201096E+02  1.250000000E+02  0.00000E+00  9.000E+00
      21     1     1     2   501   511 -1.657621212E+01  3.930385131E+01  4.350707224E+01  6.092970434E+01  1.066240300E-06  0.00000E+00  9.000E+00
#rwgt            1           1   3.8218603225869854E-002           4      497993           0
</event>
<event>
      5   9999  3.79277E-02  5.63367E+01 -1.00000E+00  1.36182E-01
      21    -1     0     0   512   501  0.000000000E+00  0.000000000E+00  2.754184442E+02  2.754184442E+02  0.000000000E+00  0.00000E+00  9.000E+00
      21    -1     0     0   501   502  0.000000000E+00  0.000000000E+00 -1.436449096E+03  1.436449096E+03  0.000000000E+00  0.00000E+00  9.000E+00
      25     1     1     2     0     0 -1.834813497E+02  6.732527685E+01 -6.449108487E+02  6.853707766E+02  1.250000000E+02  0.00000E+00  9.000E+00
      25     1     1     2     0     0  1.461051010E+02 -2.517274263E+01 -7.558016792E+02  7.802829908E+02  1.250000000E+02  0.00000E+00  9.000E+00
      21     1     1     2   512   502  3.737624866E+01 -4.215253422E+01  2.396818762E+02  2.462137727E+02  7.136645101E-06  0.00000E+00  9.000E+00
#rwgt            1           1   3.7383882467590550E-002           4      498106           0
</event>
<event>
      5   9999  3.79277E-02  5.01298E+01 -1.00000E+00  1.39011E-01
      21    -1     0     0   502   511  0.000000000E+00  0.000000000E+00  3.855360990E+01  3.855360990E+01  0.000000000E+00  0.00000E+00  9.000E+00
      21    -1     0     0   501   502  0.000000000E+00  0.000000000E+00 -1.483009422E+03  1.483009422E+03  0.000000000E+00  0.00000E+00  9.000E+00
      25     1     1     2     0     0  1.732591559E+02  9.595760233E-01 -4.517529273E+02  4.997252877E+02  1.250000000E+02  0.00000E+00  9.000E+00
      25     1     1     2     0     0 -1.340322151E+02 -3.217241342E+01 -8.619067650E+02  8.817641240E+02  1.250000000E+02  0.00000E+00  9.000E+00
      21     1     1     2   501   511 -3.922694077E+01  3.121283740E+01 -1.307961195E+02  1.400736199E+02  2.697398305E-06  0.00000E+00  9.000E+00
#rwgt            1           1   3.5211116088249401E-002           4      498226           0
</event>
<event>
      5   9999  3.79277E-02  8.19283E+01 -1.00000E+00  1.27851E-01
      21    -1     0     0   502   501  0.000000000E+00  0.000000000E+00  1.847433835E+02  1.847433835E+02  0.000000000E+00  0.00000E+00  9.000E+00
      21    -1     0     0   512   502  0.000000000E+00  0.000000000E+00 -4.170837616E+02  4.170837616E+02  0.000000000E+00  0.00000E+00  9.000E+00
      25     1     1     2     0     0  1.418950112E+02 -7.988877903E+01 -2.608573110E+01  2.069344742E+02  1.250000000E+02  0.00000E+00  9.000E+00
      25     1     1     2     0     0 -2.155964605E+02  4.410682834E+01 -1.380382980E+02  2.882825312E+02  1.250000000E+02  0.00000E+00  9.000E+00
      21     1     1     2   512   501  7.370144926E+01  3.578195069E+01 -6.821634899E+01  1.066101397E+02  1.651812370E-06  0.00000E+00  9.000E+00
#rwgt            1           1   8.9054526922597341E-002           4      498295           0
</event>
<event>
      5   9999  3.79277E-02  3.46317E+01 -1.00000E+00  1.48832E-01
      21    -1     0     0   511   501  0.000000000E+00  0.000000000E+00  1.977692222E+02  1.977692222E+02  0.000000000E+00  0.00000E+00  9.000E+00
      21    -1     0     0   501   502  0.000000000E+00  0.000000000E+00 -5.592003919E+02  5.592003919E+02  0.000000000E+00  0.00000E+00  9.000E+00
      25     1     1     2     0     0 -2.743810541E+02 -4.759588611E+00 -2.645698072E+02  4.011605657E+02  1.250000000E+02  0.00000E+00  9.000E+00
      25     1     1     2     0     0  2.624719347E+02  3.727925210E+01 -1.171832623E+02  3.156551538E+02  1.250000000E+02  0.00000E+00  9.000E+00
      21     1     1     2   511   502  1.190911939E+01 -3.251966349E+01  2.032189984E+01  4.015389460E+01  4.129530925E-07  0.00000E+00  9.000E+00
#rwgt            1           1   1.9086797484339588E-002           4      498406           0
</event>
<event>
      5   9999  3.79277E-02  2.19315E+01 -1.00000E+00  1.63132E-01
      21    -1     0     0   502   501  0.000000000E+00  0.000000000E+00  1.570030518E+02  1.570030518E+02  0.000000000E+00  0.00000E+00  9.000E+00
      21    -1     0     0   501   512  0.000000000E+00  0.000000000E+00 -6.972285543E+02  6.972285543E+02  0.000000000E+00  0.00000E+00  9.000E+00
      25     1     1     2     0     0  2.819291346E+01  7.526286154E+01 -5.447547578E+02  5.646610353E+02  1.250000000E+02  0.00000E+00  9.000E+00
      25     1     1     2     0     0 -4.948401500E+01 -8.052419130E+01  1.037589826E+02  1.879461082E+02  1.250000000E+02  0.00000E+00  9.000E+00
      21     1     1     2   502   512  2.129110154E+01  5.261329763E+00 -9.922972736E+01  1.016244625E+02  1.348699152E-06  0.00000E+00  9.000E+00
#rwgt            1           1   2.9278046381595632E-002           4      498710           0
</event>
<event>
      5   9999  3.79277E-02  3.77481E+01 -1.00000E+00  1.46418E-01
      21    -1     0     0   502   501  0.000000000E+00  0.000000000E+00  6.575687285E+02  6.575687285E+02  0.000000000E+00  0.00000E+00  9.000E+00
      21    -1     0     0   511   502  0.000000000E+00  0.000000000E+00 -2.700751515E+02  2.700751515E+02  0.000000000E+00  0.00000E+00  9.000E+00
      25     1     1     2     0     0 -3.700562686E+02  3.409056792E+01  3.355185157E+02  5.160440709E+02  1.250000000E+02  0.00000E+00  9.000E+00
      25     1     1     2     0     0  3.405813817E+02 -1.050773516E+01  7.021290770E+01  3.696768081E+02  1.250000000E+02  0.00000E+00  9.000E+00
      21     1     1     2   511   501  2.947488698E+01 -2.358283275E+01 -1.823784641E+01  4.192300090E+01  5.331201500E-07  0.00000E+00  9.000E+00
#rwgt            1           1   2.0689956886559904E-002           4      498952           0
</event>
<event>
      5   9999  3.79277E-02  1.18019E+02 -1.00000E+00  1.20676E-01
      21    -1     0     0   502   501  0.000000000E+00  0.000000000E+00  2.638211228E+02  2.638211228E+02  0.000000000E+00  0.00000E+00  9.000E+00
      21    -1     0     0   501   512  0.000000000E+00  0.000000000E+00 -7.378298333E+02  7.378298333E+02  0.000000000E+00  0.00000E+00  9.000E+00
      25     1     1     2     0     0 -2.944483698E+02 -1.048616014E+02 -1.179105217E+02  3.566842989E+02  1.250000000E+02  0.00000E+00  9.000E+00
      25     1     1     2     0     0  2.402912145E+02  2.238824425E-03 -1.096749825E+00  2.708617186E+02  1.250000000E+02  0.00000E+00  9.000E+00
      21     1     1     2   502   512  5.415715530E+01  1.048593626E+02 -3.550014390E+02  3.741049386E+02  3.814697266E-06  0.00000E+00  9.000E+00
#rwgt            1           1   3.2519891166000660E-002           4      499150           0
</event>
<event>
      5   9999  3.79277E-02  9.52217E+01 -1.00000E+00  1.24792E-01
      21    -1     0     0   502   501  0.000000000E+00  0.000000000E+00  4.764907832E+02  4.764907832E+02  0.000000000E+00  0.00000E+00  9.000E+00
      21    -1     0     0   511   502  0.000000000E+00  0.000000000E+00 -1.861785908E+02  1.861785908E+02  0.000000000E+00  0.00000E+00  9.000E+00
      25     1     1     2     0     0 -9.526416587E+01  1.279612568E+02  3.229289027E+02  3.812576829E+02  1.250000000E+02  0.00000E+00  9.000E+00
      25     1     1     2     0     0  1.188418965E-01 -1.317737555E+02 -2.871899558E+00  1.816523728E+02  1.250000000E+02  0.00000E+00  9.000E+00
      21     1     1     2   511   501  9.514532397E+01  3.812498624E+00 -2.974481080E+01  9.975931831E+01  2.261837239E-06  0.00000E+00  9.000E+00
#rwgt            1           1   3.6085240768829310E-002           4      499319           0
</event>
<event>
      5   9999  3.79277E-02  3.88502E+01 -1.00000E+00  1.45630E-01
      21    -1     0     0   502   501  0.000000000E+00  0.000000000E+00  4.560521930E+02  4.560521930E+02  0.000000000E+00  0.00000E+00  9.000E+00
      -4    -1     0     0     0   502  0.000000000E+00  0.000000000E+00 -5.206828378E+02  5.206828378E+02  0.000000000E+00  0.00000E+00  9.000E+00
      25     1     1     2     0     0  3.026555025E+01 -1.331575004E+02  2.232408515E+02  2.900144846E+02  1.250000000E+02  0.00000E+00  9.000E+00
      25     1     1     2     0     0 -6.503023150E+01  1.504997106E+02  1.450377790E+02  2.520715201E+02  1.250000000E+02  0.00000E+00  9.000E+00
      -4     1     1     2     0   501  3.476468125E+01 -1.734221018E+01 -4.329092753E+02  4.346490262E+02  0.000000000E+00  0.00000E+00  9.000E+00
#rwgt            1           1   3.6284133497718467E-002           4      499443           0
</event>
<event>
      5   9999  3.79277E-02  6.31641E+01 -1.00000E+00  1.33521E-01
      21    -1     0     0   511   501  0.000000000E+00  0.000000000E+00  2.112872582E+02  2.112872582E+02  0.000000000E+00  0.00000E+00  9.000E+00
      21    -1     0     0   501   502  0.000000000E+00  0.000000000E+00 -2.031554588E+02  2.031554588E+02  0.000000000E+00  0.00000E+00  9.000E+00
      25     1     1     2     0     0 -7.326870342E+01 -7.858734693E+01  2.431593252E+01  1.666149410E+02  1.250000000E+02  0.00000E+00  9.000E+00
      25     1     1     2     0     0  1.269011053E+02  4.522171405E+01 -1.785122826E+01  1.846417079E+02  1.250000000E+02  0.00000E+00  9.000E+00
      21     1     1     2   511   502 -5.363240189E+01  3.336563289E+01  1.667095065E+00  6.318606806E+01  1.375757323E-06  0.00000E+00  9.000E+00
#rwgt            1           1   3.7018089042730837E-002           4      499609           0
</event>
<event>
      5   9999  3.79277E-02  2.62143E+02 -1.00000E+00  1.07531E-01
       1    -1     0     0   502     0  0.000000000E+00  0.000000000E+00  6.551960807E+02  6.551960807E+02  0.000000000E+00  0.00000E+00  9.000E+00
      21    -1     0     0   501   502  0.000000000E+00  0.000000000E+00 -1.322247381E+03  1.322247381E+03  0.000000000E+00  0.00000E+00  9.000E+00
      25     1     1     2     0     0  8.309497235E+01  2.505398267E+01 -1.108162076E+03  1.118561873E+03  1.250000000E+02  0.00000E+00  9.000E+00
      25     1     1     2     0     0 -3.389999132E+02  3.179102327E+01  2.052206333E+01  3.632874418E+02  1.250000000E+02  0.00000E+00  9.000E+00
       1     1     1     2   501     0  2.559049408E+02 -5.684500594E+01  4.205887125E+02  4.955941470E+02  0.000000000E+00  0.00000E+00  9.000E+00
#rwgt            1           1   9.2498373563412159E-002           4      499681           0
</event>
<event>
      5   9999  3.79277E-02  1.89492E+01 -1.00000E+00  1.68326E-01
      21    -1     0     0   502   511  0.000000000E+00  0.000000000E+00  1.452553648E+02  1.452553648E+02  0.000000000E+00  0.00000E+00  9.000E+00
      21    -1     0     0   501   502  0.000000000E+00  0.000000000E+00 -2.143564772E+02  2.143564772E+02  0.000000000E+00  0.00000E+00  9.000E+00
      25     1     1     2     0     0 -6.362291173E+01 -7.135797746E+01 -1.047018285E+02  1.890166891E+02  1.250000000E+02  0.00000E+00  9.000E+00
      25     1     1     2     0     0  4.841804183E+01  6.004931596E+01  2.536815797E+01  1.490596208E+02  1.250000000E+02  0.00000E+00  9.000E+00
      21     1     1     2   501   511  1.520486991E+01  1.130866150E+01  1.023255819E+01  2.153553206E+01  3.153981341E-07  0.00000E+00  9.000E+00
#rwgt            1           1   3.7675603639645866E-002           4      499753           0
</event>
<event>
      5   9999  3.79277E-02  2.07743E+01 -1.00000E+00  1.65019E-01
       2    -1     0     0   502     0  0.000000000E+00  0.000000000E+00  2.179646898E+03  2.179646898E+03  0.000000000E+00  0.00000E+00  9.000E+00
      21    -1     0     0   501   502  0.000000000E+00  0.000000000E+00 -4.305047036E+02  4.305047036E+02  0.000000000E+00  0.00000E+00  9.000E+00
      25     1     1     2     0     0 -5.711517640E+01 -1.867908306E+02 -7.069844103E+01  2.424380897E+02  1.250000000E+02  0.00000E+00  9.000E+00
      25     1     1     2     0     0  7.786215262E+01  1.857265462E+02 -2.226010058E+02  3.251662230E+02  1.250000000E+02  0.00000E+00  9.000E+00
       2     1     1     2   501     0 -2.074697622E+01  1.064284414E+00  2.042441642E+03  2.042547289E+03  2.157918644E-05  0.00000E+00  9.000E+00
#rwgt            1           1   7.9071189492325611E-002           4      499969           0
</event>
<event>
      5   9999  3.79277E-02  2.00996E+01 -1.00000E+00  1.66191E-01
      21    -1     0     0   511   501  0.000000000E+00  0.000000000E+00  8.617932372E+02  8.617932372E+02  0.000000000E+00  0.00000E+00  9.000E+00
      21    -1     0     0   501   502  0.000000000E+00  0.000000000E+00 -1.090146957E+02  1.090146957E+02  0.000000000E+00  0.00000E+00  9.000E+00
      25     1     1     2     0     0  1.724442890E+01  2.179344899E+01 -6.107959954E+01  1.418733316E+02  1.250000000E+02  0.00000E+00  9.000E+00
      25     1     1     2     0     0 -1.893549430E+01 -1.765085912E+00  5.515242885E+02  5.658318737E+02  1.250000000E+02  0.00000E+00  9.000E+00
      21     1     1     2   511   502  1.691065394E+00 -2.002836308E+01  2.623338526E+02  2.631027275E+02  3.814697266E-06  0.00000E+00  9.000E+00
#rwgt            1           1   4.1278877936631105E-002           4      500191           0
</event>
<event>
      5   9999 -3.79277E-02  3.55550E+01 -1.00000E+00  1.48086E-01
      21    -1     0     0   502   512  0.000000000E+00  0.000000000E+00  1.376342499E+03  1.376342499E+03  0.000000000E+00  0.00000E+00  9.000E+00
      21    -1     0     0   501   502  0.000000000E+00  0.000000000E+00 -9.726153798E+01  9.726153798E+01  0.000000000E+00  0.00000E+00  9.000E+00
      25     1     1     2     0     0  2.063691144E+02 -2.546285706E+01  3.228542884E+02  4.038520273E+02  1.250000000E+02  0.00000E+00  9.000E+00
      25     1     1     2     0     0 -1.736837772E+02  1.146911621E+01  1.472859047E+02  2.600302537E+02  1.250000000E+02  0.00000E+00  9.000E+00
      21     1     1     2   501   512 -3.268533723E+01  1.399374085E+01  8.089407676E+02  8.097217556E+02  0.000000000E+00  0.00000E+00  9.000E+00
#rwgt            1           1 -0.12824130941984846                4      500407           0
</event>
<event>
      5   9999  3.79277E-02  1.65657E+01 -1.00000E+00  1.73416E-01
      21    -1     0     0   511   501  0.000000000E+00  0.000000000E+00  8.883405533E+02  8.883405533E+02  0.000000000E+00  0.00000E+00  9.000E+00
      21    -1     0     0   501   502  0.000000000E+00  0.000000000E+00 -7.409315836E+01  7.409315836E+01  0.000000000E+00  0.00000E+00  9.000E+00
      25     1     1     2     0     0  1.029325711E+02 -1.674244433E+02  3.111443681E+02  3.886667933E+02  1.250000000E+02  0.00000E+00  9.000E+00
      25     1     1     2     0     0 -1.139852358E+02  1.797638678E+02  4.051662983E+02  4.744390492E+02  1.250000000E+02  0.00000E+00  9.000E+00
      21     1     1     2   511   502  1.105266474E+01 -1.233942447E+01  9.793672858E+01  9.932786920E+01  0.000000000E+00  0.00000E+00  9.000E+00
#rwgt            1           1   4.4037892147418441E-002           4      500523           0
</event>
<event>
      5   9999  3.79277E-02  9.71469E+01 -1.00000E+00  1.24396E-01
      21    -1     0     0   512   501  0.000000000E+00  0.000000000E+00  6.713749664E+02  6.713749664E+02  0.000000000E+00  0.00000E+00  9.000E+00
      21    -1     0     0   501   502  0.000000000E+00  0.000000000E+00 -1.339372274E+02  1.339372274E+02  0.000000000E+00  0.00000E+00  9.000E+00
      25     1     1     2     0     0  1.794866056E+02  6.237703041E+01  1.332211583E+02  2.635890979E+02  1.250000000E+02  0.00000E+00  9.000E+00
      25     1     1     2     0     0 -2.235290074E+02  2.421270803E+01  2.452399955E+02  3.554140231E+02  1.250000000E+02  0.00000E+00  9.000E+00
      21     1     1     2   512   502  4.404240185E+01 -8.658973844E+01  1.589765852E+02  1.863090728E+02  3.303624740E-06  0.00000E+00  9.000E+00
#rwgt            1           1   3.6450124488927246E-002           4      500782           0
</event>
<event>
      5   9999  3.79277E-02  5.08115E+01 -1.00000E+00  1.38678E-01
      21    -1     0     0   502   501  0.000000000E+00  0.000000000E+00  4.147449039E+02  4.147449039E+02  0.000000000E+00  0.00000E+00  9.000E+00
      21    -1     0     0   511   502  0.000000000E+00  0.000000000E+00 -1.304490524E+02  1.304490524E+02  0.000000000E+00  0.00000E+00  9.000E+00
      25     1     1     2     0     0  4.307993282E+01  1.208913472E+02  2.630391429E+02  3.182533411E+02  1.250000000E+02  0.00000E+00  9.000E+00
      25     1     1     2     0     0  7.711611193E+00 -1.223153438E+02  1.406533236E+01  1.756227372E+02  1.250000000E+02  0.00000E+00  9.000E+00
      21     1     1     2   511   501 -5.079154401E+01  1.423996524E+00  7.191376217E+00  5.131787798E+01  9.610960183E-07  0.00000E+00  9.000E+00
#rwgt            1           1   2.0273417095553820E-002           4      500973           0
</event>
<event>
      5   9999  3.79277E-02  2.86770E+01 -1.00000E+00  1.54413E-01
      21    -1     0     0   502   501  0.000000000E+00  0.000000000E+00  1.242569491E+02  1.242569491E+02  0.000000000E+00  0.00000E+00  9.000E+00
       1    -1     0     0   501     0  0.000000000E+00  0.000000000E+00 -5.356087755E+02  5.356087755E+02  0.000000000E+00  0.00000E+00  9.000E+00
      25     1     1     2     0     0  1.467697285E+01  8.631005242E+01 -3.025403425E+02  3.388517338E+02  1.250000000E+02  0.00000E+00  9.000E+00
      25     1     1     2     0     0  1.388111189E+01 -8.891892855E+01  4.820996943E+01  1.613953601E+02  1.250000000E+02  0.00000E+00  9.000E+00
       1     1     1     2   502     0 -2.855808474E+01  2.608876132E+00 -1.570214534E+02  1.596186307E+02  2.697398305E-06  0.00000E+00  9.000E+00
#rwgt            1           1   3.2484453996625050E-002           4      501039           0
</event>
<event>
      5   9999  3.79277E-02  1.30869E+02 -1.00000E+00  1.18791E-01
      21    -1     0     0   502   501  0.000000000E+00  0.000000000E+00  3.276305251E+02  3.276305251E+02  0.000000000E+00  0.00000E+00  9.000E+00
      21    -1     0     0   501   511  0.000000000E+00  0.000000000E+00 -2.575964812E+02  2.575964812E+02  0.000000000E+00  0.00000E+00  9.000E+00
      25     1     1     2     0     0  5.017393181E+01  2.011178715E+02  7.366431249E+01  2.530163090E+02  1.250000000E+02  0.00000E+00  9.000E+00
      25     1     1     2     0     0  3.014743716E+01 -9.779687868E+01  7.651240909E+01  1.787519124E+02  1.250000000E+02  0.00000E+00  9.000E+00
      21     1     1     2   502   511 -8.032136897E+01 -1.033209929E+02 -8.014267761E+01  1.534587849E+02  9.536743164E-07  0.00000E+00  9.000E+00
#rwgt            2          11   2.0435192203492993E-003           4      501161           0
</event>
<event>
      5   9999  3.79277E-02  1.56924E+01 -1.00000E+00  1.75557E-01
      21    -1     0     0   512   501  0.000000000E+00  0.000000000E+00  4.247424394E+02  4.247424394E+02  0.000000000E+00  0.00000E+00  9.000E+00
      21    -1     0     0   501   502  0.000000000E+00  0.000000000E+00 -8.526174385E+01  8.526174385E+01  0.000000000E+00  0.00000E+00  9.000E+00
      25     1     1     2     0     0 -4.966554109E+00 -4.656506063E+01  3.195288268E+02  3.462898247E+02  1.250000000E+02  0.00000E+00  9.000E+00
      25     1     1     2     0     0  1.852885221E+01  3.867102249E+01 -7.208044266E+00  1.323469767E+02  1.250000000E+02  0.00000E+00  9.000E+00
      21     1     1     2   512   502 -1.356229810E+01  7.894038148E+00  2.715991302E+01  3.136738184E+01  0.000000000E+00  0.00000E+00  9.000E+00
#rwgt            2          11   6.1044626779283261E-003           4      501211           0
</event>
<event>
      5   9999  3.79277E-02  3.72855E+01 -1.00000E+00  1.46759E-01
      21    -1     0     0   511   501  0.000000000E+00  0.000000000E+00  4.716922924E+01  4.716922924E+01  0.000000000E+00  0.00000E+00  9.000E+00
      21    -1     0     0   501   502  0.000000000E+00  0.000000000E+00 -2.435317225E+03  2.435317225E+03  0.000000000E+00  0.00000E+00  9.000E+00
      25     1     1     2     0     0 -4.296110736E+00 -3.110453166E+02 -1.327890223E+03  1.369556530E+03  1.250000000E+02  0.00000E+00  9.000E+00
      25     1     1     2     0     0  2.493754786E+00  2.738034432E+02 -9.375425724E+02  9.846753878E+02  1.250000000E+02  0.00000E+00  9.000E+00
      21     1     1     2   511   502  1.802355950E+00  3.724187336E+01 -1.227152005E+02  1.282545362E+02  1.348699152E-06  0.00000E+00  9.000E+00
#rwgt            1           1  0.10309579242761517                4      501261           0
</event>
<event>
      5   9999  3.79277E-02  3.09888E+01 -1.00000E+00  1.52068E-01
       2    -1     0     0   502     0  0.000000000E+00  0.000000000E+00  2.343444875E+03  2.343444875E+03  0.000000000E+00  0.00000E+00  9.000E+00
      21    -1     0     0   501   502  0.000000000E+00  0.000000000E+00 -2.111517372E+01  2.111517372E+01  0.000000000E+00  0.00000E+00  9.000E+00
      25     1     1     2     0     0 -6.132826905E+00  1.232493901E+02  7.492957102E+02  7.696083972E+02  1.250000000E+02  0.00000E+00  9.000E+00
      25     1     1     2     0     0 -1.021510075E+01 -1.495752009E+02  8.872693400E+02  9.084871879E+02  1.250000000E+02  0.00000E+00  9.000E+00
       2     1     1     2   501     0  1.634792766E+01  2.632581082E+01  6.857646516E+02  6.864644641E+02  1.078959322E-05  0.00000E+00  9.000E+00
#rwgt            1           1   4.1483101221167530E-002           4      501474           0
</event>
<event>
      5   9999  3.79277E-02  2.95408E+01 -1.00000E+00  1.53507E-01
      21    -1     0     0   502   511  0.000000000E+00  0.000000000E+00  2.730881237E+01  2.730881237E+01  0.000000000E+00  0.00000E+00  9.000E+00
      21    -1     0     0   501   502  0.000000000E+00  0.000000000E+00 -2.303631656E+03  2.303631656E+03  0.000000000E+00  0.00000E+00  9.000E+00
      25     1     1     2     0     0  1.108802238E+02 -1.369674238E+02 -1.328288908E+03  1.345745490E+03  1.250000000E+02  0.00000E+00  9.000E+00
      25     1     1     2     0     0 -1.402716097E+02  1.340000903E+02 -8.971666004E+02  9.263719866E+02  1.250000000E+02  0.00000E+00  9.000E+00
      21     1     1     2   501   511  2.939138581E+01  2.967333565E+00 -5.086733480E+01  5.882299192E+01  1.907348633E-06  0.00000E+00  9.000E+00
#rwgt            1           1  0.19207092338031309                4      501732           0
</event>
<event>
      5   9999  3.79277E-02  8.75125E+01 -1.00000E+00  1.26491E-01
      21    -1     0     0   502   501  0.000000000E+00  0.000000000E+00  1.246322708E+03  1.246322708E+03  0.000000000E+00  0.00000E+00  9.000E+00
      21    -1     0     0   501   512  0.000000000E+00  0.000000000E+00 -1.036783851E+02  1.036783851E+02  0.000000000E+00  0.00000E+00  9.000E+00
      25     1     1     2     0     0  1.102575751E+02 -2.935964783E+02  6.513307833E+02  7.336296165E+02  1.250000000E+02  0.00000E+00  9.000E+00
      25     1     1     2     0     0 -3.633835545E+01  2.467522205E+02  4.161459113E+02  5.010085367E+02  1.250000000E+02  0.00000E+00  9.000E+00
      21     1     1     2   502   512 -7.391921967E+01  4.684425785E+01  7.516762818E+01  1.153629397E+02  9.536743164E-07  0.00000E+00  9.000E+00
#rwgt            1           1   3.5048418797905885E-002           4      501944           0
</event>
<event>
      5   9999  3.79277E-02  1.97460E+01 -1.00000E+00  1.66828E-01
      21    -1     0     0   511   501  0.000000000E+00  0.000000000E+00  9.150518810E+01  9.150518810E+01  0.000000000E+00  0.00000E+00  9.000E+00
      21    -1     0     0   501   502  0.000000000E+00  0.000000000E+00 -4.195334124E+02  4.195334124E+02  0.000000000E+00  0.00000E+00  9.000E+00
      25     1     1     2     0     0 -5.979106703E+01 -9.935887789E+01 -2.439152269E+02  2.976017410E+02  1.250000000E+02  0.00000E+00  9.000E+00
      25     1     1     2     0     0  7.924923123E+01  9.599984338E+01 -7.611929385E+01  1.921342173E+02  1.250000000E+02  0.00000E+00  9.000E+00
      21     1     1     2   511   502 -1.945816420E+01  3.359034505E+00 -7.993703501E+00  2.130264215E+01  1.192092896E-07  0.00000E+00  9.000E+00
#rwgt            1           1   4.1437131055910424E-002           4      502011           0
</event>
<event>
      5   9999  3.79277E-02  3.26830E+01 -1.00000E+00  1.50500E-01
      21    -1     0     0   502   512  0.000000000E+00  0.000000000E+00  1.428823927E+02  1.428823927E+02  0.000000000E+00  0.00000E+00  9.000E+00
      21    -1     0     0   501   502  0.000000000E+00  0.000000000E+00 -1.227027629E+03  1.227027629E+03  0.000000000E+00  0.00000E+00  9.000E+00
      25     1     1     2     0     0  1.575649516E+01 -2.163638260E+02 -4.016459209E+01  2.535739868E+02  1.250000000E+02  0.00000E+00  9.000E+00
      25     1     1     2     0     0  1.547718920E+01  2.067392447E+02 -1.054554879E+03  1.081985051E+03  1.250000000E+02  0.00000E+00  9.000E+00
      21     1     1     2   501   512 -3.123368436E+01  9.624581319E+00  1.057423499E+01  3.435098324E+01  7.052516679E-07  0.00000E+00  9.000E+00
#rwgt            1           1   3.3428746171967831E-002           4      502222           0
</event>
<event>
      5   9999  3.79277E-02  1.48676E+01 -1.00000E+00  1.77747E-01
      21    -1     0     0   511   501  0.000000000E+00  0.000000000E+00  1.694938275E+01  1.694938275E+01  0.000000000E+00  0.00000E+00  9.000E+00
      21    -1     0     0   501   502  0.000000000E+00  0.000000000E+00 -2.732715022E+03  2.732715022E+03  0.000000000E+00  0.00000E+00  9.000E+00
      25     1     1     2     0     0 -6.159244708E+01 -7.552555112E+01 -2.132492579E+03  2.138374929E+03  1.250000000E+02  0.00000E+00  9.000E+00
      25     1     1     2     0     0  7.208736558E+01  8.605650865E+01 -5.400879363E+02  5.656167341E+02  1.250000000E+02  0.00000E+00  9.000E+00
      21     1     1     2   511   502 -1.049491850E+01 -1.053095752E+01 -4.318512425E+01  4.567274173E+01  1.430511475E-06  0.00000E+00  9.000E+00
#rwgt            1           1   4.8225454893312265E-002           4      502447           0
</event>
<event>
      5   9999  3.79277E-02  2.58705E+01 -1.00000E+00  1.57645E-01
      21    -1     0     0   512   501  0.000000000E+00  0.000000000E+00  5.021707440E+02  5.021707440E+02  0.000000000E+00  0.00000E+00  9.000E+00
      21    -1     0     0   501   502  0.000000000E+00  0.000000000E+00 -1.079614930E+02  1.079614930E+02  0.000000000E+00  0.00000E+00  9.000E+00
      25     1     1     2     0     0  3.289815708E+01 -6.450670671E+01 -2.763773140E+01  1.470790541E+02  1.250000000E+02  0.00000E+00  9.000E+00
      25     1     1     2     0     0 -3.485746720E+01  9.030289352E+01  3.964039287E+02  4.267677709E+02  1.250000000E+02  0.00000E+00  9.000E+00
      21     1     1     2   512   502  1.959310116E+00 -2.579618681E+01  2.544305372E+01  3.628541212E+01  8.259061849E-07  0.00000E+00  9.000E+00
#rwgt            1           1   5.1740892231496909E-002           4      502779           0
</event>
<event>
      5   9999  3.79277E-02  4.43557E+01 -1.00000E+00  1.42110E-01
      21    -1     0     0   511   501  0.000000000E+00  0.000000000E+00  9.714500697E+02  9.714500697E+02  0.000000000E+00  0.00000E+00  9.000E+00
      21    -1     0     0   501   502  0.000000000E+00  0.000000000E+00 -1.410158855E+02  1.410158855E+02  0.000000000E+00  0.00000E+00  9.000E+00
      25     1     1     2     0     0 -8.436413964E+01  8.020192816E+01  3.936942403E+02  4.291501045E+02  1.250000000E+02  0.00000E+00  9.000E+00
      25     1     1     2     0     0  5.330085463E+01 -1.118641847E+02 -5.896949778E+01  1.856259104E+02  1.250000000E+02  0.00000E+00  9.000E+00
      21     1     1     2   511   502  3.106328501E+01  3.166225656E+01  4.957094417E+02  4.976899403E+02  0.000000000E+00  0.00000E+00  9.000E+00
#rwgt            1           1   3.9836954710911206E-002           4      503030           0
</event>
<event>
      5   9999  3.79277E-02  1.32936E+02 -1.00000E+00  1.18511E-01
      21    -1     0     0   502   512  0.000000000E+00  0.000000000E+00  5.432427040E+02  5.432427040E+02  0.000000000E+00  0.00000E+00  9.000E+00
      21    -1     0     0   501   502  0.000000000E+00  0.000000000E+00 -6.158528148E+02  6.158528148E+02  0.000000000E+00  0.00000E+00  9.000E+00
      25     1     1     2     0     0  2.475095781E+01  1.965827936E+02 -2.667406371E+02  3.550112282E+02  1.250000000E+02  0.00000E+00  9.000E+00
      25     1     1     2     0     0  9.909807164E+01 -2.448890019E+02 -2.221416607E+02  3.671007606E+02  1.250000000E+02  0.00000E+00  9.000E+00
      21     1     1     2   501   512 -1.238490295E+02  4.830620830E+01  4.162721870E+02  4.369835300E+02  0.000000000E+00  0.00000E+00  9.000E+00
#rwgt            1           1   3.0692234834090990E-002           4      503138           0
</event>
<event>
      5   9999  3.79277E-02  1.26789E+02 -1.00000E+00  1.19363E-01
      21    -1     0     0   502   501  0.000000000E+00  0.000000000E+00  2.404115781E+03  2.404115781E+03  0.000000000E+00  0.00000E+00  9.000E+00
      21    -1     0     0   511   502  0.000000000E+00  0.000000000E+00 -4.898756567E+01  4.898756567E+01  0.000000000E+00  0.00000E+00  9.000E+00
      25     1     1     2     0     0 -9.581870997E+00  1.153380938E+02  1.500493709E+03  1.510132795E+03  1.250000000E+02  0.00000E+00  9.000E+00
      25     1     1     2     0     0  5.776064172E+01 -2.326164779E+02  6.172974938E+02  6.738901345E+02  1.250000000E+02  0.00000E+00  9.000E+00
      21     1     1     2   511   501 -4.817877072E+01  1.172783840E+02  2.373370123E+02  2.690804168E+02  5.394796609E-06  0.00000E+00  9.000E+00
#rwgt            1           1   1.7441828005073261E-002           4      503307           0
</event>
<event>
      5   9999  3.79277E-02  4.46656E+01 -1.00000E+00  1.41930E-01
      21    -1     0     0   512   501  0.000000000E+00  0.000000000E+00  5.641009030E+02  5.641009030E+02  0.000000000E+00  0.00000E+00  9.000E+00
      21    -1     0     0   501   502  0.000000000E+00  0.000000000E+00 -7.947734648E+01  7.947734648E+01  0.000000000E+00  0.00000E+00  9.000E+00
      25     1     1     2     0     0 -9.970656230E+01 -5.172961649E+01  3.670738128E+02  4.037146713E+02  1.250000000E+02  0.00000E+00  9.000E+00
      25     1     1     2     0     0  5.758160551E+01  6.657913516E+01  5.390267385E+01  1.621077444E+02  1.250000000E+02  0.00000E+00  9.000E+00
      21     1     1     2   512   502  4.212495679E+01 -1.484951867E+01  6.364706991E+01  7.775583385E+01  6.743495762E-07  0.00000E+00  9.000E+00
#rwgt            1           1   6.7999827850398542E-002           4      503399           0
</event>
<event>
      5   9999  3.79277E-02  2.34985E+02 -1.00000E+00  1.09157E-01
      21    -1     0     0   502   501  0.000000000E+00  0.000000000E+00  9.466014844E+01  9.466014844E+01  0.000000000E+00  0.00000E+00  9.000E+00
      21    -1     0     0   501   511  0.000000000E+00  0.000000000E+00 -1.484587695E+03  1.484587695E+03  0.000000000E+00  0.00000E+00  9.000E+00
      25     1     1     2     0     0  2.430776823E+02 -1.555186365E+02 -6.877919809E+02  7.562774722E+02  1.250000000E+02  0.00000E+00  9.000E+00
      25     1     1     2     0     0 -1.357990030E+01  1.050357280E+02 -1.468673198E+02  2.200271062E+02  1.250000000E+02  0.00000E+00  9.000E+00
      21     1     1     2   502   511 -2.294977820E+02  5.048290853E+01 -5.552682458E+02  6.029432650E+02  0.000000000E+00  0.00000E+00  9.000E+00
#rwgt            1           1   3.7878643015184607E-002           4      503559           0
</event>
<event>
      5   9999  3.79277E-02  2.94392E+01 -1.00000E+00  1.53611E-01
      21    -1     0     0   502   501  0.000000000E+00  0.000000000E+00  3.918725793E+02  3.918725793E+02  0.000000000E+00  0.00000E+00  9.000E+00
      21    -1     0     0   501   512  0.000000000E+00  0.000000000E+00 -2.192932417E+02  2.192932417E+02  0.000000000E+00  0.00000E+00  9.000E+00
      25     1     1     2     0     0  1.783491412E+02  2.097063019E+01  1.606402243E+02  2.714377740E+02  1.250000000E+02  0.00000E+00  9.000E+00
      25     1     1     2     0     0 -1.650812996E+02  5.309276896E+00  1.119652633E+02  2.354596443E+02  1.250000000E+02  0.00000E+00  9.000E+00
      21     1     1     2   502   512 -1.326784159E+01 -2.627990708E+01 -1.000261499E+02  1.042684027E+02  1.907348633E-06  0.00000E+00  9.000E+00
#rwgt            1           1   3.0783289287676301E-002           4      503607           0
</event>
<event>
      5   9999  3.79277E-02  5.30345E+01 -1.00000E+00  1.37631E-01
      21    -1     0     0   502   511  0.000000000E+00  0.000000000E+00  1.151790421E+03  1.151790421E+03  0.000000000E+00  0.00000E+00  9.000E+00
      21    -1     0     0   501   502  0.000000000E+00  0.000000000E+00 -3.908438890E+01  3.908438890E+01  0.000000000E+00  0.00000E+00  9.000E+00
      25     1     1     2     0     0 -1.394562274E+01 -7.324284935E+01  1.577101283E+02  2.146077350E+02  1.250000000E+02  0.00000E+00  9.000E+00
      25     1     1     2     0     0  5.165452855E+01  3.595080861E+01  8.072419040E+02  8.192833103E+02  1.250000000E+02  0.00000E+00  9.000E+00
      21     1     1     2   501   511 -3.770890581E+01  3.729204074E+01  1.477540000E+02  1.569837648E+02  0.000000000E+00  0.00000E+00  9.000E+00
#rwgt            1           1   3.5715851894772596E-002           4      503888           0
</event>
<event>
      5   9999  3.79277E-02  8.88609E+01 -1.00000E+00  1.26180E-01
      21    -1     0     0   512   501  0.000000000E+00  0.000000000E+00  6.278101167E+02  6.278101167E+02  0.000000000E+00  0.00000E+00  9.000E+00
      21    -1     0     0   501   502  0.000000000E+00  0.000000000E+00 -3.819057852E+02  3.819057852E+02  0.000000000E+00  0.00000E+00  9.000E+00
      25     1     1     2     0     0 -8.213459067E+00 -6.183588930E+01 -2.798258441E+02  3.127597179E+02  1.250000000E+02  0.00000E+00  9.000E+00
      25     1     1     2     0     0 -5.962369172E+01  1.192325367E+02  2.041069348E+01  1.838830575E+02  1.250000000E+02  0.00000E+00  9.000E+00
      21     1     1     2   512   502  6.783715079E+01 -5.739664739E+01  5.053194821E+02  5.130731266E+02  0.000000000E+00  0.00000E+00  9.000E+00
#rwgt            1           1   4.3147403302489576E-002           4      504073           0
</event>
<event>
      5   9999  3.79277E-02  1.62587E+01 -1.00000E+00  1.74149E-01
      21    -1     0     0   502   511  0.000000000E+00  0.000000000E+00  8.117065889E+02  8.117065889E+02  0.000000000E+00  0.00000E+00  9.000E+00
      21    -1     0     0   501   502  0.000000000E+00  0.000000000E+00 -9.847872199E+01  9.847872199E+01  0.000000000E+00  0.00000E+00  9.000E+00
      25     1     1     2     0     0 -1.322371267E+02 -6.742008846E+01  2.294519809E+02  3.005084650E+02  1.250000000E+02  0.00000E+00  9.000E+00
      25     1     1     2     0     0  1.484858961E+02  6.798874810E+01  1.056631084E+02  2.312146701E+02  1.250000000E+02  0.00000E+00  9.000E+00
      21     1     1     2   501   511 -1.624876935E+01 -5.686596325E-01  3.781127777E+02  3.784621758E+02  0.000000000E+00  0.00000E+00  9.000E+00
#rwgt            1           1   3.5933158261277492E-002           4      504162           0
</event>
<event>
      5   9999  3.79277E-02  9.64789E+00 -1.00000E+00  1.97574E-01
      21    -1     0     0   502   501  0.000000000E+00  0.000000000E+00  5.963001268E+02  5.963001268E+02  0.000000000E+00  0.00000E+00  9.000E+00
      21    -1     0     0   501   512  0.000000000E+00  0.000000000E+00 -4.308101397E+02  4.308101397E+02  0.000000000E+00  0.00000E+00  9.000E+00
      25     1     1     2     0     0 -4.868313319E+01  1.811104473E+02  3.308881599E+02  4.003536136E+02  1.250000000E+02  0.00000E+00  9.000E+00
      25     1     1     2     0     0  4.130184273E+01 -1.748976906E+02  1.786627570E+02  2.825604805E+02  1.250000000E+02  0.00000E+00  9.000E+00
      21     1     1     2   502   512  7.381290459E+00 -6.212756744E+00 -3.440609298E+02  3.441961725E+02  3.814697266E-06  0.00000E+00  9.000E+00
#rwgt            1           1   2.0053148993757708E-002           4      504415           0
</event>
<event>
      5   9999 -3.79277E-02  7.91156E+01 -1.00000E+00  1.28584E-01
      21    -1     0     0   502   511  0.000000000E+00  0.000000000E+00  3.719584098E+02  3.719584098E+02  0.000000000E+00  0.00000E+00  9.000E+00
      21    -1     0     0   501   502  0.000000000E+00  0.000000000E+00 -5.910314465E+02  5.910314465E+02  0.000000000E+00  0.00000E+00  9.000E+00
      25     1     1     2     0     0  1.281266056E+02  1.344407265E+02  2.867347007E+01  2.256942709E+02  1.250000000E+02  0.00000E+00  9.000E+00
      25     1     1     2     0     0 -1.093217649E+02 -2.112889952E+02 -4.477535814E+02  5.222093042E+02  1.250000000E+02  0.00000E+00  9.000E+00
      21     1     1     2   501   511 -1.880484071E+01  7.684826866E+01  2.000070747E+02  2.150862812E+02  0.000000000E+00  0.00000E+00  9.000E+00
#rwgt            1           1  -2.4820630973693338E-002           4      504753           0
</event>
<event>
      5   9999  3.79277E-02  1.54983E+02 -1.00000E+00  1.15834E-01
      21    -1     0     0   502   501  0.000000000E+00  0.000000000E+00  1.834078177E+02  1.834078177E+02  0.000000000E+00  0.00000E+00  9.000E+00
      21    -1     0     0   501   512  0.000000000E+00  0.000000000E+00 -8.863703162E+02  8.863703162E+02  0.000000000E+00  0.00000E+00  9.000E+00
      25     1     1     2     0     0 -1.287450400E+01 -3.947003650E+01  2.242372087E+01  1.336093556E+02  1.250000000E+02  0.00000E+00  9.000E+00
      25     1     1     2     0     0 -1.308295454E+02  9.751188721E+01 -1.173491270E+01  2.058826031E+02  1.250000000E+02  0.00000E+00  9.000E+00
      21     1     1     2   502   512  1.437040494E+02 -5.804185071E+01 -7.136513067E+02  7.302861753E+02  1.321449896E-05  0.00000E+00  9.000E+00
#rwgt            1           1   8.4088016492659637E-002           4      504893           0
</event>
<event>
      5   9999  3.79277E-02  3.14205E+01 -1.00000E+00  1.51657E-01
      21    -1     0     0   502   501  0.000000000E+00  0.000000000E+00  1.266549238E+02  1.266549238E+02  0.000000000E+00  0.00000E+00  9.000E+00
      21    -1     0     0   511   502  0.000000000E+00  0.000000000E+00 -9.214722112E+02  9.214722112E+02  0.000000000E+00  0.00000E+00  9.000E+00
      25     1     1     2     0     0 -2.176817007E+02  1.177570884E+02 -2.604039054E+02  3.803777709E+02  1.250000000E+02  0.00000E+00  9.000E+00
      25     1     1     2     0     0  2.302393465E+02 -8.895514524E+01 -2.246397025E+02  3.563862658E+02  1.250000000E+02  0.00000E+00  9.000E+00
      21     1     1     2   511   501 -1.255764579E+01 -2.880194311E+01 -3.097736796E+02  3.113630982E+02  3.814697266E-06  0.00000E+00  9.000E+00
#rwgt            1           1   1.8865024777719504E-002           4      505091           0
</event>
<event>
      5   9999 -3.79277E-02  2.07563E+01 -1.00000E+00  1.65050E-01
      21    -1     0     0   502   501  0.000000000E+00  0.000000000E+00  2.985819310E+02  2.985819310E+02  0.000000000E+00  0.00000E+00  9.000E+00
      21    -1     0     0   501   512  0.000000000E+00  0.000000000E+00 -1.961933105E+02  1.961933105E+02  0.000000000E+00  0.00000E+00  9.000E+00
      25     1     1     2     0     0 -9.442830380E+01 -1.624933297E+02  4.620589000E+01  2.303926453E+02  1.250000000E+02  0.00000E+00  9.000E+00
      25     1     1     2     0     0  8.744810896E+01  1.820407211E+02  5.341818013E+01  2.434430075E+02  1.250000000E+02  0.00000E+00  9.000E+00
      21     1     1     2   502   512  6.980194845E+00 -1.954739148E+01  2.764550366E+00  2.093958865E+01  5.118716966E-07  0.00000E+00  9.000E+00
#rwgt            1           1  -8.7314910276144311E-002           4      505213           0
</event>
<event>
      5   9999  3.79277E-02  4.10661E+01 -1.00000E+00  1.44135E-01
      21    -1     0     0   502   501  0.000000000E+00  0.000000000E+00  1.227667668E+02  1.227667668E+02  0.000000000E+00  0.00000E+00  9.000E+00
       2    -1     0     0   501     0  0.000000000E+00  0.000000000E+00 -1.503811621E+03  1.503811621E+03  0.000000000E+00  0.00000E+00  9.000E+00
      25     1     1     2     0     0 -8.106745541E+00  9.468912253E+01 -5.021935394E+02  5.261702198E+02  1.250000000E+02  0.00000E+00  9.000E+00
      25     1     1     2     0     0 -1.285450543E+01 -1.300026935E+02  3.623446422E+01  1.844013965E+02  1.250000000E+02  0.00000E+00  9.000E+00
       2     1     1     2   502     0  2.096125097E+01  3.531357101E+01 -9.150857793E+02  9.160067717E+02  1.078959322E-05  0.00000E+00  9.000E+00
#rwgt            1           1   1.6454955591209616E-002           4      505347           0
</event>
<event>
      5   9999  3.79277E-02  7.91887E+01 -1.00000E+00  1.28564E-01
      21    -1     0     0   502   501  0.000000000E+00  0.000000000E+00  2.211133467E+02  2.211133467E+02  0.000000000E+00  0.00000E+00  9.000E+00
      21    -1     0     0   501   511  0.000000000E+00  0.000000000E+00 -3.880012228E+02  3.880012228E+02  0.000000000E+00  0.00000E+00  9.000E+00
      25     1     1     2     0     0 -1.801102911E+02 -2.436250300E+01 -3.855129163E+01  2.239295661E+02  1.250000000E+02  0.00000E+00  9.000E+00
      25     1     1     2     0     0  1.237927914E+02  8.003281484E+01  4.160279823E+01  1.977010356E+02  1.250000000E+02  0.00000E+00  9.000E+00
      21     1     1     2   502   511  5.631749966E+01 -5.567031184E+01 -1.699393826E+02  1.874839677E+02  1.907348633E-06  0.00000E+00  9.000E+00
#rwgt            1           1   2.2956138568853836E-002           4      505416           0
</event>
<event>
      5   9999  3.79277E-02  5.66448E+01 -1.00000E+00  1.36053E-01
      21    -1     0     0   502   501  0.000000000E+00  0.000000000E+00  1.880250496E+02  1.880250496E+02  0.000000000E+00  0.00000E+00  9.000E+00
      21    -1     0     0   512   502  0.000000000E+00  0.000000000E+00 -2.777653951E+02  2.777653951E+02  0.000000000E+00  0.00000E+00  9.000E+00
      25     1     1     2     0     0 -5.487035026E+01 -1.249470406E+02 -3.393561150E+01  1.881466024E+02  1.250000000E+02  0.00000E+00  9.000E+00
      25     1     1     2     0     0  2.467999075E+01  1.728758655E+02 -3.673504967E+01  2.178752641E+02  1.250000000E+02  0.00000E+00  9.000E+00
      21     1     1     2   512   501  3.019035951E+01 -4.792882499E+01 -1.906968431E+01  5.976857813E+01  8.920806376E-07  0.00000E+00  9.000E+00
#rwgt            1           1   4.0305828985410380E-002           4      505493           0
</event>
<event>
      5   9999  3.79277E-02  6.10454E+00 -1.00000E+00  2.24313E-01
      21    -1     0     0   502   511  0.000000000E+00  0.000000000E+00  1.092258569E+02  1.092258569E+02  0.000000000E+00  0.00000E+00  9.000E+00
      21    -1     0     0   501   502  0.000000000E+00  0.000000000E+00 -3.416952012E+02  3.416952012E+02  0.000000000E+00  0.00000E+00  9.000E+00
      25     1     1     2     0     0  7.899026111E+01  9.977594045E+01 -4.480645421E+01  1.839220432E+02  1.250000000E+02  0.00000E+00  9.000E+00
      25     1     1     2     0     0 -7.584402131E+01 -9.454463781E+01 -1.922401710E+02  2.593690179E+02  1.250000000E+02  0.00000E+00  9.000E+00
      21     1     1     2   501   511 -3.146239808E+00 -5.231302637E+00  4.577280992E+00  7.629996952E+00  1.460009660E-07  0.00000E+00  9.000E+00
#rwgt            1           1   3.7118232874944299E-002           4      505634           0
</event>
<event>
      5   9999  3.79277E-02  6.82815E+00 -1.00000E+00  2.17091E-01
      21    -1     0     0   502   512  0.000000000E+00  0.000000000E+00  8.670654494E+01  8.670654494E+01  0.000000000E+00  0.00000E+00  9.000E+00
      21    -1     0     0   501   502  0.000000000E+00  0.000000000E+00 -7.898481730E+02  7.898481730E+02  0.000000000E+00  0.00000E+00  9.000E+00
      25     1     1     2     0     0 -1.047234252E+02 -1.378452385E+02 -5.868144005E+02  6.244553196E+02  1.250000000E+02  0.00000E+00  9.000E+00
      25     1     1     2     0     0  9.799101766E+01  1.367057721E+02 -1.226324631E+02  2.428053308E+02  1.250000000E+02  0.00000E+00  9.000E+00
      21     1     1     2   501   512  6.732407561E+00  1.139466412E+00  6.305235543E+00  9.294067491E+00  2.665600750E-07  0.00000E+00  9.000E+00
#rwgt            1           1   1.0248033810025987E-002           4      505959           0
</event>
<event>
      5   9999  3.79277E-02  1.45321E+01 -1.00000E+00  1.78690E-01
      21    -1     0     0   502   501  0.000000000E+00  0.000000000E+00  1.888950788E+02  1.888950788E+02  0.000000000E+00  0.00000E+00  9.000E+00
      21    -1     0     0   501   511  0.000000000E+00  0.000000000E+00 -5.015092975E+02  5.015092975E+02  0.000000000E+00  0.00000E+00  9.000E+00
      25     1     1     2     0     0  1.771164239E+01 -5.270215889E+01 -1.954986075E+02  2.386125005E+02  1.250000000E+02  0.00000E+00  9.000E+00
      25     1     1     2     0     0 -3.194144150E+01  4.975365625E+01  1.385305764E+02  1.957329880E+02  1.250000000E+02  0.00000E+00  9.000E+00
      21     1     1     2   502   511  1.422979910E+01  2.948502646E+00 -2.556461875E+02  2.560588878E+02  2.697398305E-06  0.00000E+00  9.000E+00
#rwgt            1           1   4.5703789039154702E-002           4      506421           0
</event>
<event>
      5   9999  3.79277E-02  1.90007E+01 -1.00000E+00  1.68227E-01
      21    -1     0     0   512   501  0.000000000E+00  0.000000000E+00  1.336801097E+03  1.336801097E+03  0.000000000E+00  0.00000E+00  9.000E+00
      21    -1     0     0   501   502  0.000000000E+00  0.000000000E+00 -7.173747234E+01  7.173747234E+01  0.000000000E+00  0.00000E+00  9.000E+00
      25     1     1     2     0     0  1.697555073E+01  5.714209149E+01  3.361585677E+02  3.635670098E+02  1.250000000E+02  0.00000E+00  9.000E+00
      25     1     1     2     0     0 -2.699450400E+01 -7.328667257E+01  3.581807567E+01  1.516824781E+02  1.250000000E+02  0.00000E+00  9.000E+00
      21     1     1     2   512   502  1.001895327E+01  1.614458108E+01  8.930869812E+02  8.932890814E+02  1.078959322E-05  0.00000E+00  9.000E+00
#rwgt            1           1   4.4724552477901615E-002           4      506787           0
</event>
<event>
      5   9999 -3.79277E-02  2.37191E+01 -1.00000E+00  1.60481E-01
      21    -1     0     0   502   511  0.000000000E+00  0.000000000E+00  1.146383977E+02  1.146383977E+02  0.000000000E+00  0.00000E+00  9.000E+00
      21    -1     0     0   501   502  0.000000000E+00  0.000000000E+00 -4.792209691E+02  4.792209691E+02  0.000000000E+00  0.00000E+00  9.000E+00
      25     1     1     2     0     0 -4.330226265E+01 -1.686221631E+02 -1.076283548E+02  2.398278187E+02  1.250000000E+02  0.00000E+00  9.000E+00
      25     1     1     2     0     0  4.683536278E+01  1.451676984E+02 -2.637789094E+02  3.293501555E+02  1.250000000E+02  0.00000E+00  9.000E+00
      21     1     1     2   501   511 -3.533100137E+00  2.345446469E+01  6.824692861E+00  2.468139265E+01  3.953724850E-07  0.00000E+00  9.000E+00
#rwgt            1           1 -0.14574625399240593                4      506939           0
</event>
<event>
      5   9999 -3.79277E-02  1.78833E+01 -1.00000E+00  1.70480E-01
      21    -1     0     0   502   512  0.000000000E+00  0.000000000E+00  3.106778623E+02  3.106778623E+02  0.000000000E+00  0.00000E+00  9.000E+00
      21    -1     0     0   501   502  0.000000000E+00  0.000000000E+00 -2.354557802E+02  2.354557802E+02  0.000000000E+00  0.00000E+00  9.000E+00
      25     1     1     2     0     0 -1.926145923E+02 -4.331230668E+01  5.700335598E+01  2.405217655E+02  1.250000000E+02  0.00000E+00  9.000E+00
      25     1     1     2     0     0  1.773023175E+02  3.407398237E+01 -5.816059751E+01  2.271669060E+02  1.250000000E+02  0.00000E+00  9.000E+00
      21     1     1     2   501   512  1.531227479E+01  9.238324317E+00  7.637932360E+01  7.844497096E+01  1.348699152E-06  0.00000E+00  9.000E+00
#rwgt            1           1 -0.24483619176816276                4      507118           0
</event>
<event>
      5   9999  3.79277E-02  9.29501E+00 -1.00000E+00  1.99500E-01
      21    -1     0     0   511   501  0.000000000E+00  0.000000000E+00  1.513820911E+03  1.513820911E+03  0.000000000E+00  0.00000E+00  9.000E+00
      21    -1     0     0   501   502  0.000000000E+00  0.000000000E+00 -3.232287197E+01  3.232287197E+01  0.000000000E+00  0.00000E+00  9.000E+00
      25     1     1     2     0     0  2.504433781E+00 -1.862205004E+01  1.140169859E+02  1.702290399E+02  1.250000000E+02  0.00000E+00  9.000E+00
      25     1     1     2     0     0  3.762119110E+00  2.548699632E+01  9.742768723E+02  9.826007146E+02  1.250000000E+02  0.00000E+00  9.000E+00
      21     1     1     2   511   502 -6.266552890E+00 -6.864946285E+00  3.932041806E+02  3.933140282E+02  7.629394531E-06  0.00000E+00  9.000E+00
#rwgt            1           1   5.3495527637274852E-002           4      507455           0
</event>
<event>
      5   9999  3.79277E-02  3.04699E+01 -1.00000E+00  1.52572E-01
      21    -1     0     0   502   501  0.000000000E+00  0.000000000E+00  3.477838606E+02  3.477838606E+02  0.000000000E+00  0.00000E+00  9.000E+00
       2    -1     0     0   501     0  0.000000000E+00  0.000000000E+00 -1.164599854E+03  1.164599854E+03  0.000000000E+00  0.00000E+00  9.000E+00
      25     1     1     2     0     0 -3.051250011E+02 -6.289108846E+01  1.786907770E+02  3.802787781E+02  1.250000000E+02  0.00000E+00  9.000E+00
      25     1     1     2     0     0  2.844722506E+02  8.529375299E+01 -3.139810194E+02  4.498983954E+02  1.250000000E+02  0.00000E+00  9.000E+00
       2     1     1     2   502     0  2.065275051E+01 -2.240266453E+01 -6.815257509E+02  6.822065411E+02  1.321449896E-05  0.00000E+00  9.000E+00
#rwgt            1           1   4.6393795716166537E-002           4      507758           0
</event>
<event>
      5   9999  3.79277E-02  5.80988E+00 -1.00000E+00  2.27666E-01
      21    -1     0     0   502   501  0.000000000E+00  0.000000000E+00  4.057710679E+02  4.057710679E+02  0.000000000E+00  0.00000E+00  9.000E+00
      21    -1     0     0   511   502  0.000000000E+00  0.000000000E+00 -8.991406610E+01  8.991406610E+01  0.000000000E+00  0.00000E+00  9.000E+00
      25     1     1     2     0     0 -3.779558308E+01  1.254543388E+02  1.617582294E+02  2.428127303E+02  1.250000000E+02  0.00000E+00  9.000E+00
      25     1     1     2     0     0  3.321515621E+01 -1.218802092E+02  1.637190119E+02  2.416339108E+02  1.250000000E+02  0.00000E+00  9.000E+00
      21     1     1     2   511   501  4.580426873E+00 -3.574129663E+00 -9.620239519E+00  1.123849285E+01  1.685873940E-07  0.00000E+00  9.000E+00
#rwgt            1           1   3.8901588816775981E-002           4      508048           0
</event>
<event>
      5   9999  3.79277E-02  8.21120E+01 -1.00000E+00  1.27804E-01
      21    -1     0     0   502   512  0.000000000E+00  0.000000000E+00  9.228858394E+02  9.228858394E+02  0.000000000E+00  0.00000E+00  9.000E+00
      21    -1     0     0   501   502  0.000000000E+00  0.000000000E+00 -5.638851152E+02  5.638851152E+02  0.000000000E+00  0.00000E+00  9.000E+00
      25     1     1     2     0     0  3.264100864E+02 -9.020168112E+01  5.975504670E+01  3.658900838E+02  1.250000000E+02  0.00000E+00  9.000E+00
      25     1     1     2     0     0 -2.797859276E+02  2.261045154E+01 -3.504131654E+02  4.660534136E+02  1.250000000E+02  0.00000E+00  9.000E+00
      21     1     1     2   501   512 -4.662415880E+01  6.759122958E+01  6.496588430E+02  6.548274572E+02  1.078959322E-05  0.00000E+00  9.000E+00
#rwgt            1           1   3.5360382139560248E-002           4      508472           0
</event>
<event>
      5   9999  3.79277E-02  4.68939E+01 -1.00000E+00  1.40684E-01
      21    -1     0     0   511   501  0.000000000E+00  0.000000000E+00  1.712804556E+02  1.712804556E+02  0.000000000E+00  0.00000E+00  9.000E+00
      21    -1     0     0   501   502  0.000000000E+00  0.000000000E+00 -5.061598605E+02  5.061598605E+02  0.000000000E+00  0.00000E+00  9.000E+00
      25     1     1     2     0     0 -5.618206000E+01  5.585727306E+01 -3.763410888E+02  4.043934642E+02  1.250000000E+02  0.00000E+00  9.000E+00
      25     1     1     2     0     0  9.464612115E+01 -8.268170613E+01 -3.753029203E+01  1.811840931E+02  1.250000000E+02  0.00000E+00  9.000E+00
      21     1     1     2   511   502 -3.846406114E+01  2.682443307E+01  7.899197589E+01  9.186275885E+01  2.336015456E-06  0.00000E+00  9.000E+00
#rwgt            1           1   3.6674724941785669E-002           4      508542           0
</event>
<event>
      5   9999  3.79277E-02  9.81635E+01 -1.00000E+00  1.24191E-01
      21    -1     0     0   502   501  0.000000000E+00  0.000000000E+00  3.443584067E+02  3.443584067E+02  0.000000000E+00  0.00000E+00  9.000E+00
       1    -1     0     0   501     0  0.000000000E+00  0.000000000E+00 -2.332464127E+03  2.332464127E+03  0.000000000E+00  0.00000E+00  9.000E+00
      25     1     1     2     0     0 -7.748243574E+00  4.041159346E+01  2.827179296E+02  3.118454102E+02  1.250000000E+02  0.00000E+00  9.000E+00
      25     1     1     2     0     0 -9.010979433E+01 -4.814913789E+01 -9.577088899E+01  1.877103558E+02  1.250000000E+02  0.00000E+00  9.000E+00
       1     1     1     2   502     0  9.785803790E+01  7.737544430E+00 -2.175052760E+03  2.177266767E+03  4.315837288E-05  0.00000E+00  9.000E+00
#rwgt            1           1   3.8194019310016612E-002           4      508631           0
</event>
<event>
      5   9999  3.79277E-02  2.20961E+01 -1.00000E+00  1.62875E-01
      21    -1     0     0   502   501  0.000000000E+00  0.000000000E+00  4.696688668E+02  4.696688668E+02  0.000000000E+00  0.00000E+00  9.000E+00
      21    -1     0     0   511   502  0.000000000E+00  0.000000000E+00 -1.366495886E+02  1.366495886E+02  0.000000000E+00  0.00000E+00  9.000E+00
      25     1     1     2     0     0 -1.239990807E+01 -4.076787141E+01  4.090157327E+02  4.298076856E+02  1.250000000E+02  0.00000E+00  9.000E+00
      25     1     1     2     0     0  1.305399628E+01  1.868147068E+01 -8.476329002E+01  1.527390569E+02  1.250000000E+02  0.00000E+00  9.000E+00
      21     1     1     2   511   501 -6.540882101E-01  2.208640073E+01  8.766835561E+00  2.377171290E+01  2.384185791E-07  0.00000E+00  9.000E+00
#rwgt            1           1   4.5361487415330304E-002           4      508698           0
</event>
<event>
      5   9999 -3.79277E-02  2.18242E+01 -1.00000E+00  1.63301E-01
      21    -1     0     0   502   501  0.000000000E+00  0.000000000E+00  6.186076169E+02  6.186076169E+02  0.000000000E+00  0.00000E+00  9.000E+00
      21    -1     0     0   501   512  0.000000000E+00  0.000000000E+00 -7.656416631E+01  7.656416631E+01  0.000000000E+00  0.00000E+00  9.000E+00
      25     1     1     2     0     0  1.528529672E+02 -1.549337262E+01  3.818673678E+02  4.301764298E+02  1.250000000E+02  0.00000E+00  9.000E+00
      25     1     1     2     0     0 -1.383156603E+02  3.177099218E+01  1.466978436E+02  2.393446785E+02  1.250000000E+02  0.00000E+00  9.000E+00
      21     1     1     2   502   512 -1.453730692E+01 -1.627761956E+01  1.347823932E+01  2.565067497E+01  7.152557373E-07  0.00000E+00  9.000E+00
#rwgt            1           1 -0.17976479488204997                4      508879           0
</event>
<event>
      5   9999  3.79277E-02  5.49949E+01 -1.00000E+00  1.36756E-01
      21    -1     0     0   502   511  0.000000000E+00  0.000000000E+00  6.306753334E+02  6.306753334E+02  0.000000000E+00  0.00000E+00  9.000E+00
      21    -1     0     0   501   502  0.000000000E+00  0.000000000E+00 -8.933130377E+01  8.933130377E+01  0.000000000E+00  0.00000E+00  9.000E+00
      25     1     1     2     0     0 -1.691879197E+02  8.685874225E+00  1.320349278E+02  2.485120092E+02  1.250000000E+02  0.00000E+00  9.000E+00
      25     1     1     2     0     0  1.141931546E+02 -8.570030917E+00  2.426992655E+02  2.960429959E+02  1.250000000E+02  0.00000E+00  9.000E+00
      21     1     1     2   501   511  5.499476508E+01 -1.158433083E-01  1.666098363E+02  1.754516320E+02  3.303624740E-06  0.00000E+00  9.000E+00
#rwgt            1           1   3.8663572315340129E-002           4      509075           0
</event>
<event>
      5   9999  3.79277E-02  3.84730E+01 -1.00000E+00  1.45896E-01
      21    -1     0     0   502   512  0.000000000E+00  0.000000000E+00  4.286766987E+02  4.286766987E+02  0.000000000E+00  0.00000E+00  9.000E+00
      21    -1     0     0   501   502  0.000000000E+00  0.000000000E+00 -4.400832598E+02  4.400832598E+02  0.000000000E+00  0.00000E+00  9.000E+00
      25     1     1     2     0     0  3.212115755E+02 -2.288301480E+01 -2.481118549E+02  4.253057737E+02  1.250000000E+02  0.00000E+00  9.000E+00
      25     1     1     2     0     0 -3.115245700E+02 -1.435044511E+01  2.048055228E+02  3.934765497E+02  1.250000000E+02  0.00000E+00  9.000E+00
      21     1     1     2   501   512 -9.687005475E+00  3.723345990E+01  3.189977111E+01  4.997763508E+01  5.840038640E-07  0.00000E+00  9.000E+00
#rwgt            1           1   4.8547746062304255E-002           4      509377           0
</event>
</LesHouchesEvents>
 #Random number generator exit values:            4        509512             0
