<LesHouchesEvents version="3.0">
<!--
file generated with POWHEG-BOX-V2
Input file powheg.input contained:
! ggHH production parameters:
mtdep 2              ! 0: Higgs effective field theory (HEFT)

hmass 125            ! Higgs boson mass
topmass 173          ! top quark mass (THIS VALUE IS HARD CODED IN THE VIRTUAL
hdecaymode -1        ! PDG code for Higgs boson decay products (it affects only the SMC)
!                      allowed values are:
!                      0 all decay channels open
!                      1-6 d dbar, u ubar,..., t tbar (as in HERWIG)
!                      7-9 e+ e-, mu+ mu-, tau+ tau-
!                      10  W+W-
!                      11  ZZ
!                      12  gamma gamma
!                      -1  all decay channels closed

! general parameters:
numevts  3000        ! number of events to be generated
ih1         1        ! hadron 1 (1 for protons, -1 for antiprotons)
ih2         1        ! hadron 2 (1 for protons, -1 for antiprotons)
ebeam1 7000d0        ! energy of beam 1
ebeam2 7000d0        ! energy of beam 2
! To be set only if using LHA pdfs
lhans1 90200         ! pdf set for hadron 1 (LHA numbering)
lhans2 90200 	     ! pdf set for hadron 2 (LHA numbering)
! To be set only if using internal mlm pdf
# ndns1 131          ! pdf set for hadron 1 (mlm numbering)
# ndns2 131          ! pdf set for hadron 2 (mlm numbering)
! To be set only if using different pdf sets for the two incoming hadrons
! QCDLambda5 0.25    ! for not equal pdf sets

! Parameters to allow or not the use of stored data
use-old-grid    1    ! if 1 use old grid if file pwggrids.dat is present (<> 1 regenerate)
use-old-ubound  1    ! if 1 use norm of upper bounding function stored in pwgubound.dat, if present;
!
ncall1  10000        ! number of calls for initializing the integration grid
itmx1       3        ! number of iterations for initializing the integration grid
ncall2  10000        ! number of calls for computing the integral and finding upper bound
itmx2       3        ! number of iterations for computing the integral and finding upper bound
foldcsi     1        ! number of folds on csi integration
foldy       1        ! number of folds on  y  integration
foldphi     1        ! number of folds on phi integration
nubound 10000        ! number of bbarra calls to setup norm of upper bounding function
# icsimax   1        ! <= 100, number of csi subdivision when computing the upper bounds
# iymax     1        ! <= 100, number of y subdivision when computing the upper bounds
# xupbound 2d0       ! increase upper bound for radiation generation

! OPTIONAL PARAMETERS

! scale settings:
#fixedscale   1      ! (dafault 0) Use muren = mufac = 2*m_H
facscfact   1d0      ! (default 1d0) fac scale factor: mufact = muref * facscfact
renscfact   1d0      ! (default 1d0) ren scale factor: muren  = muref * renscfact

! Born, plots and powheg strategy:
#bornonly         1  ! (default 0) if 1 do Born only
# testplots 1
fastbtlbound      1  ! fast evaluation of Btilde upper bounds
storemintupb      1  ! store function calls in binary file for more precise generation
ubexcess_correct  1  ! corrects for error in upper bound estimate
storeinfo_rwgt    1  ! store info to allow for reweighting
softtest          0  ! no check of the soft limit in the real
colltest          0  ! no check of the collinear limit in the real

! PARAMETERS needed for ggHH
hdamp           250

! PARAMETERS for parallel runnning
! -- non parallel (for testing purposes only)
#iseed    547        !  Start the random number generator with seed iseed
#rand1     0         !  skipping  rand2*100000000+rand1 numbers.
#rand2     0         !  (see RM48 short writeup in CERNLIB)

! -- parallel
manyseeds 1          ! Used to perform multiple runs with different random
                     ! seeds in the same directory.
                     ! If set to 1, the program asks for an integer j;
                     ! The file pwgseeds.dat at line j is read, and the
                     ! integer at line j is used to initialize the random
                     ! sequence for the generation of the event.
                     ! The event file is called pwgevents-'j'.lhe
parallelstage 4
xgriditeration 1
maxseeds    1000

! PARAMETERS for reweighting
#rwl_file 'reweight_setup.xml'


! PARAMETERS for Pythia8
#py8tune  xxx
#py8hepmc 1
#py8nohad 1
#py8nompi 1
End of powheg.input content
PDF package: lha
 Random number generator initialized with:            3             0             0
-->
<init>
     2212     2212  7.00000E+03  7.00000E+03     -1     -1     -1     -1     -4      1
  3.38081E-02  5.61572E-05  1.00000E+00   9999
</init>
<event>
      5   9999  3.79277E-02  1.68644E+02 -1.00000E+00  1.14412E-01
      21    -1     0     0   502   501  0.000000000E+00  0.000000000E+00  5.569318084E+02  5.569318084E+02  0.000000000E+00  0.00000E+00  9.000E+00
      21    -1     0     0   511   502  0.000000000E+00  0.000000000E+00 -8.839315121E+02  8.839315121E+02  0.000000000E+00  0.00000E+00  9.000E+00
      25     1     1     2     0     0 -2.320375486E+02 -2.856284253E+01  2.726927654E+02  3.803203968E+02  1.250000000E+02  0.00000E+00  9.000E+00
      25     1     1     2     0     0  1.388403997E+02 -1.119898670E+02  1.676648475E+02  2.748724940E+02  1.250000000E+02  0.00000E+00  9.000E+00
      21     1     1     2   511   501  9.319714891E+01  1.405527095E+02 -7.673573166E+02  7.856704297E+02  0.000000000E+00  0.00000E+00  9.000E+00
#rwgt            2          11   7.0113946435704892E-003           3         121           0
</event>
<event>
      5   9999  3.79277E-02  4.97851E+00 -1.00000E+00  2.42916E-01
      21    -1     0     0   502   501  0.000000000E+00  0.000000000E+00  2.612037275E+02  2.612037275E+02  0.000000000E+00  0.00000E+00  9.000E+00
      21    -1     0     0   512   502  0.000000000E+00  0.000000000E+00 -1.440733666E+02  1.440733666E+02  0.000000000E+00  0.00000E+00  9.000E+00
      25     1     1     2     0     0 -6.318256972E+01  5.593314551E+01  1.598448711E+02  2.197633652E+02  1.250000000E+02  0.00000E+00  9.000E+00
      25     1     1     2     0     0  5.835054817E+01 -5.713196135E+01 -7.022626337E+00  1.494763017E+02  1.250000000E+02  0.00000E+00  9.000E+00
      21     1     1     2   512   501  4.832021550E+00  1.198815837E+00 -3.569188384E+01  3.603742727E+01  4.768371582E-07  0.00000E+00  9.000E+00
#rwgt            1           1   4.4016669241121520E-002           3         246           0
</event>
<event>
      5   9999  3.79277E-02  9.25048E+00 -1.00000E+00  1.99752E-01
      21    -1     0     0   502   501  0.000000000E+00  0.000000000E+00  1.172514030E+02  1.172514030E+02  0.000000000E+00  0.00000E+00  9.000E+00
      21    -1     0     0   511   502  0.000000000E+00  0.000000000E+00 -4.217806806E+02  4.217806806E+02  0.000000000E+00  0.00000E+00  9.000E+00
      25     1     1     2     0     0  5.077301687E+01  8.418550949E+01  2.874954230E+01  1.616064214E+02  1.250000000E+02  0.00000E+00  9.000E+00
      25     1     1     2     0     0 -4.382880096E+01 -9.029691755E+01 -2.741774966E+02  3.176047807E+02  1.250000000E+02  0.00000E+00  9.000E+00
      21     1     1     2   511   501 -6.944215912E+00  6.111408063E+00 -5.910132327E+01  5.982088143E+01  6.743495762E-07  0.00000E+00  9.000E+00
#rwgt            1           1   3.5889588587345089E-002           3         625           0
</event>
<event>
      5   9999  3.79277E-02  4.02468E+00 -1.00000E+00  2.62842E-01
      21    -1     0     0   502   501  0.000000000E+00  0.000000000E+00  5.463285226E+01  5.463285226E+01  0.000000000E+00  0.00000E+00  9.000E+00
      21    -1     0     0   501   512  0.000000000E+00  0.000000000E+00 -1.717723678E+03  1.717723678E+03  0.000000000E+00  0.00000E+00  9.000E+00
      25     1     1     2     0     0 -1.193260416E+02 -3.716226160E+01 -5.757428433E+02  6.022661866E+02  1.250000000E+02  0.00000E+00  9.000E+00
      25     1     1     2     0     0  1.215563390E+02  3.381206151E+01 -1.492700140E+02  2.320037417E+02  1.250000000E+02  0.00000E+00  9.000E+00
      21     1     1     2   502   512 -2.230297413E+00  3.350200089E+00 -9.380779686E+02  9.380866022E+02  1.868812365E-05  0.00000E+00  9.000E+00
#rwgt            1           1   2.9559948834450740E-002           3         897           0
</event>
<event>
      5   9999  3.79277E-02  3.62661E+01 -1.00000E+00  1.47530E-01
      21    -1     0     0   502   501  0.000000000E+00  0.000000000E+00  3.978762725E+02  3.978762725E+02  0.000000000E+00  0.00000E+00  9.000E+00
      21    -1     0     0   501   511  0.000000000E+00  0.000000000E+00 -5.009292108E+02  5.009292108E+02  0.000000000E+00  0.00000E+00  9.000E+00
      25     1     1     2     0     0  2.313426577E+02 -1.318208432E+02  2.440191121E+02  3.821864559E+02  1.250000000E+02  0.00000E+00  9.000E+00
      25     1     1     2     0     0 -2.171779950E+02  1.652064019E+02 -1.895678854E+02  3.549935491E+02  1.250000000E+02  0.00000E+00  9.000E+00
      21     1     1     2   502   511 -1.416466266E+01 -3.338555869E+01 -1.575041651E+02  1.616254782E+02  0.000000000E+00  0.00000E+00  9.000E+00
#rwgt            1           1   2.1994650532648770E-002           3        1373           0
</event>
<event>
      5   9999  3.79277E-02  6.56962E+01 -1.00000E+00  1.32632E-01
      21    -1     0     0   502   501  0.000000000E+00  0.000000000E+00  2.296210773E+03  2.296210773E+03  0.000000000E+00  0.00000E+00  9.000E+00
      21    -1     0     0   512   502  0.000000000E+00  0.000000000E+00 -3.302850968E+02  3.302850968E+02  0.000000000E+00  0.00000E+00  9.000E+00
      25     1     1     2     0     0  1.290076620E+02  2.305193501E+01  5.445289073E+02  5.738563404E+02  1.250000000E+02  0.00000E+00  9.000E+00
      25     1     1     2     0     0 -6.593098545E+01 -4.685548053E+00  1.730684646E+03  1.736451322E+03  1.250000000E+02  0.00000E+00  9.000E+00
      21     1     1     2   512   501 -6.307667659E+01 -1.836638696E+01 -3.092878774E+02  3.161882073E+02  6.607249480E-06  0.00000E+00  9.000E+00
#rwgt            1           1  0.17342941662679354                3        1498           0
</event>
<event>
      5   9999  3.79277E-02  1.85745E+01 -1.00000E+00  1.69063E-01
      21    -1     0     0   502   511  0.000000000E+00  0.000000000E+00  8.864179027E+01  8.864179027E+01  0.000000000E+00  0.00000E+00  9.000E+00
      21    -1     0     0   501   502  0.000000000E+00  0.000000000E+00 -7.704864125E+02  7.704864125E+02  0.000000000E+00  0.00000E+00  9.000E+00
      25     1     1     2     0     0 -1.854089973E+01  2.048697797E+02 -3.061620491E+02  3.894555070E+02  1.250000000E+02  0.00000E+00  9.000E+00
      25     1     1     2     0     0  3.405183406E+01 -2.150885529E+02 -3.747262538E+02  4.510735841E+02  1.250000000E+02  0.00000E+00  9.000E+00
      21     1     1     2   501   511 -1.551093433E+01  1.021877317E+01 -9.563193291E-01  1.859911169E+01  3.970537363E-07  0.00000E+00  9.000E+00
#rwgt            1           1   4.7890530250138577E-002           3        1562           0
</event>
<event>
      5   9999  3.79277E-02  1.13402E+02 -1.00000E+00  1.21420E-01
      21    -1     0     0   512   501  0.000000000E+00  0.000000000E+00  1.355500913E+03  1.355500913E+03  0.000000000E+00  0.00000E+00  9.000E+00
      21    -1     0     0   501   502  0.000000000E+00  0.000000000E+00 -5.720048767E+01  5.720048767E+01  0.000000000E+00  0.00000E+00  9.000E+00
      25     1     1     2     0     0  7.489022306E+01 -1.445352482E+01  2.428208112E+02  2.835566896E+02  1.250000000E+02  0.00000E+00  9.000E+00
      25     1     1     2     0     0 -1.469156091E+02 -7.313851724E+01  2.933598663E+02  3.586341452E+02  1.250000000E+02  0.00000E+00  9.000E+00
      21     1     1     2   512   502  7.202538609E+01  8.759204207E+01  7.621197480E+02  7.705105660E+02  1.078959322E-05  0.00000E+00  9.000E+00
#rwgt            2          11   9.5132123024490982E-004           3        1876           0
</event>
<event>
      5   9999  3.79277E-02  6.35781E+01 -1.00000E+00  1.33373E-01
      21    -1     0     0   502   501  0.000000000E+00  0.000000000E+00  6.505038997E+02  6.505038997E+02  0.000000000E+00  0.00000E+00  9.000E+00
      21    -1     0     0   511   502  0.000000000E+00  0.000000000E+00 -2.586207317E+02  2.586207317E+02  0.000000000E+00  0.00000E+00  9.000E+00
      25     1     1     2     0     0 -8.239577032E+01 -8.405920246E+01  5.515833918E+02  5.776887143E+02  1.250000000E+02  0.00000E+00  9.000E+00
      25     1     1     2     0     0  2.365196712E+01  5.974176692E+01  1.894152712E+01  1.418177553E+02  1.250000000E+02  0.00000E+00  9.000E+00
      21     1     1     2   511   501  5.874380320E+01  2.431743554E+01 -1.786417509E+02  1.896181617E+02  3.303624740E-06  0.00000E+00  9.000E+00
#rwgt            1           1   4.8248041357834309E-002           3        1986           0
</event>
<event>
      5   9999 -3.79277E-02  8.85210E+01 -1.00000E+00  1.26257E-01
       1    -1     0     0   502     0  0.000000000E+00  0.000000000E+00  6.251013482E+01  6.251013482E+01  0.000000000E+00  0.00000E+00  9.000E+00
      21    -1     0     0   501   502  0.000000000E+00  0.000000000E+00 -1.665605971E+03  1.665605971E+03  0.000000000E+00  0.00000E+00  9.000E+00
      25     1     1     2     0     0 -1.996242259E+02  1.638614420E+02 -1.078819174E+03  1.116322630E+03  1.250000000E+02  0.00000E+00  9.000E+00
      25     1     1     2     0     0  1.381266033E+02 -1.001903674E+02 -4.460421391E+02  4.936554042E+02  1.250000000E+02  0.00000E+00  9.000E+00
       1     1     1     2   501     0  6.149762269E+01 -6.367107466E+01 -7.823452239E+01  1.181380711E+02  9.536743164E-07  0.00000E+00  9.000E+00
#rwgt            1           1 -0.13008804216644099                3        2121           0
</event>
<event>
      5   9999  3.79277E-02  1.71924E+02 -1.00000E+00  1.14093E-01
      21    -1     0     0   511   501  0.000000000E+00  0.000000000E+00  5.337705229E+02  5.337705229E+02  0.000000000E+00  0.00000E+00  9.000E+00
      21    -1     0     0   501   502  0.000000000E+00  0.000000000E+00 -1.429064479E+03  1.429064479E+03  0.000000000E+00  0.00000E+00  9.000E+00
      25     1     1     2     0     0  7.302350508E+00  2.651167246E+02 -9.962266663E+01  3.096609076E+02  1.250000000E+02  0.00000E+00  9.000E+00
      25     1     1     2     0     0  1.600167633E+02 -2.255905767E+02 -1.187294202E+03  1.225475008E+03  1.250000000E+02  0.00000E+00  9.000E+00
      21     1     1     2   511   502 -1.673191138E+02 -3.952614797E+01  3.916229129E+02  4.276990860E+02  7.629394531E-06  0.00000E+00  9.000E+00
#rwgt            1           1   4.1910203637732402E-002           3        2169           0
</event>
<event>
      5   9999  3.79277E-02  3.75498E+02 -1.00000E+00  1.02518E-01
      21    -1     0     0   502   501  0.000000000E+00  0.000000000E+00  6.082182777E+02  6.082182777E+02  0.000000000E+00  0.00000E+00  9.000E+00
      21    -1     0     0   501   512  0.000000000E+00  0.000000000E+00 -1.983823458E+03  1.983823458E+03  0.000000000E+00  0.00000E+00  9.000E+00
      25     1     1     2     0     0 -1.985904045E+02 -3.647007867E+02  4.248150960E+02  6.070730420E+02  1.250000000E+02  0.00000E+00  9.000E+00
      25     1     1     2     0     0 -4.913574554E+01  8.251246517E+01 -1.259243201E+01  1.581334808E+02  1.250000000E+02  0.00000E+00  9.000E+00
      21     1     1     2   502   512  2.477261500E+02  2.821883215E+02 -1.787827844E+03  1.826835213E+03  3.737624730E-05  0.00000E+00  9.000E+00
#rwgt            1           1   3.5403417050645904E-002           3        2318           0
</event>
<event>
      5   9999  3.79277E-02  6.56252E+01 -1.00000E+00  1.32656E-01
       2    -1     0     0   502     0  0.000000000E+00  0.000000000E+00  2.326948009E+03  2.326948009E+03  0.000000000E+00  0.00000E+00  9.000E+00
      21    -1     0     0   501   502  0.000000000E+00  0.000000000E+00 -9.049094135E+01  9.049094135E+01  0.000000000E+00  0.00000E+00  9.000E+00
      25     1     1     2     0     0  1.682698521E+02 -4.907759864E+01  7.577734407E+02  7.877619826E+02  1.250000000E+02  0.00000E+00  9.000E+00
      25     1     1     2     0     0 -1.426455314E+02 -1.133812859E+01  4.600174868E+01  1.954928686E+02  1.250000000E+02  0.00000E+00  9.000E+00
       2     1     1     2   501     0 -2.562432074E+01  6.041572723E+01  1.432681878E+03  1.434184099E+03  1.525878906E-05  0.00000E+00  9.000E+00
#rwgt            1           1   5.0587920588132738E-002           3        2407           0
</event>
<event>
      5   9999  3.79277E-02  3.95984E+01 -1.00000E+00  1.45112E-01
      21    -1     0     0   511   501  0.000000000E+00  0.000000000E+00  1.248257478E+02  1.248257478E+02  0.000000000E+00  0.00000E+00  9.000E+00
      21    -1     0     0   501   502  0.000000000E+00  0.000000000E+00 -3.858923607E+02  3.858923607E+02  0.000000000E+00  0.00000E+00  9.000E+00
      25     1     1     2     0     0 -8.665672200E+01 -7.450126139E+01 -2.751560409E+02  3.231031914E+02  1.250000000E+02  0.00000E+00  9.000E+00
      25     1     1     2     0     0  5.898276470E+01  4.617835291E+01  2.157372001E+01  1.473154174E+02  1.250000000E+02  0.00000E+00  9.000E+00
      21     1     1     2   511   502  2.767395729E+01  2.832290848E+01 -7.484291980E+00  4.029949979E+01  4.042583694E-07  0.00000E+00  9.000E+00
#rwgt            1           1   3.6608355874785080E-002           3        2519           0
</event>
<event>
      5   9999  3.79277E-02  2.25774E+01 -1.00000E+00  1.62139E-01
      21    -1     0     0   502   501  0.000000000E+00  0.000000000E+00  2.507459416E+01  2.507459416E+01  0.000000000E+00  0.00000E+00  9.000E+00
       2    -1     0     0   501     0  0.000000000E+00  0.000000000E+00 -4.131742234E+03  4.131742234E+03  0.000000000E+00  0.00000E+00  9.000E+00
      25     1     1     2     0     0  9.282725506E+01 -8.040344068E+00 -2.733555790E+02  3.146900364E+02  1.250000000E+02  0.00000E+00  9.000E+00
      25     1     1     2     0     0 -7.193947315E+01  1.661014289E+01 -1.204445396E+03  1.213163178E+03  1.250000000E+02  0.00000E+00  9.000E+00
       2     1     1     2   502     0 -2.088778191E+01 -8.569798820E+00 -2.628866665E+03  2.628963614E+03  4.315837288E-05  0.00000E+00  9.000E+00
#rwgt            1           1   5.6644849412540978E-002           3        2638           0
</event>
<event>
      5   9999  3.79277E-02  1.92440E+02 -1.00000E+00  1.12261E-01
      21    -1     0     0   502   501  0.000000000E+00  0.000000000E+00  5.925355490E+02  5.925355490E+02  0.000000000E+00  0.00000E+00  9.000E+00
      21    -1     0     0   501   511  0.000000000E+00  0.000000000E+00 -1.078303772E+03  1.078303772E+03  0.000000000E+00  0.00000E+00  9.000E+00
      25     1     1     2     0     0 -2.730864083E+02 -1.424380304E+02 -5.234147145E+01  3.364957779E+02  1.250000000E+02  0.00000E+00  9.000E+00
      25     1     1     2     0     0  9.697571021E+01  2.200146364E+02  3.976885335E+02  4.812399591E+02  1.250000000E+02  0.00000E+00  9.000E+00
      21     1     1     2   502   511  1.761106981E+02 -7.757660591E+01 -8.311152853E+02  8.531035842E+02  1.078959322E-05  0.00000E+00  9.000E+00
#rwgt            1           1   4.1345399264883495E-002           3        2880           0
</event>
<event>
      5   9999  3.79277E-02  4.69058E+01 -1.00000E+00  1.40677E-01
      21    -1     0     0   512   501  0.000000000E+00  0.000000000E+00  1.300966315E+03  1.300966315E+03  0.000000000E+00  0.00000E+00  9.000E+00
      21    -1     0     0   501   502  0.000000000E+00  0.000000000E+00 -2.827978934E+02  2.827978934E+02  0.000000000E+00  0.00000E+00  9.000E+00
      25     1     1     2     0     0 -4.102545678E+02  3.013730785E+02  4.707901147E+02  7.045586384E+02  1.250000000E+02  0.00000E+00  9.000E+00
      25     1     1     2     0     0  4.142203159E+02 -2.546352515E+02  2.193927978E+02  5.478829995E+02  1.250000000E+02  0.00000E+00  9.000E+00
      21     1     1     2   512   502 -3.965748154E+00 -4.673782694E+01  3.279855088E+02  3.313225703E+02  3.814697266E-06  0.00000E+00  9.000E+00
#rwgt            1           1   6.4448513900312185E-002           3        2965           0
</event>
<event>
      5   9999  3.79277E-02  9.64346E+00 -1.00000E+00  1.97598E-01
      21    -1     0     0   511   501  0.000000000E+00  0.000000000E+00  9.572747996E+02  9.572747996E+02  0.000000000E+00  0.00000E+00  9.000E+00
      21    -1     0     0   501   502  0.000000000E+00  0.000000000E+00 -2.506210261E+02  2.506210261E+02  0.000000000E+00  0.00000E+00  9.000E+00
      25     1     1     2     0     0  6.405564869E+01  8.810752248E+01 -4.444560653E+00  1.658638471E+02  1.250000000E+02  0.00000E+00  9.000E+00
      25     1     1     2     0     0 -6.203926164E+01 -7.867722820E+01 -1.266574585E+02  2.042206846E+02  1.250000000E+02  0.00000E+00  9.000E+00
      21     1     1     2   511   502 -2.016387046E+00 -9.430294273E+00  8.377557926E+02  8.378112940E+02  1.525878906E-05  0.00000E+00  9.000E+00
#rwgt            1           1   2.7049214543784499E-002           3        3072           0
</event>
<event>
      5   9999  3.79277E-02  1.01368E+01 -1.00000E+00  1.95078E-01
      21    -1     0     0   502   501  0.000000000E+00  0.000000000E+00  3.868265297E+01  3.868265297E+01  0.000000000E+00  0.00000E+00  9.000E+00
      21    -1     0     0   512   502  0.000000000E+00  0.000000000E+00 -6.635611297E+02  6.635611297E+02  0.000000000E+00  0.00000E+00  9.000E+00
      25     1     1     2     0     0  7.715095085E+01 -5.304968872E+01 -2.841969388E+02  3.242829609E+02  1.250000000E+02  0.00000E+00  9.000E+00
      25     1     1     2     0     0 -6.740121745E+01  5.027536011E+01 -2.958567107E+02  3.320041102E+02  1.250000000E+02  0.00000E+00  9.000E+00
      21     1     1     2   512   501 -9.749733403E+00  2.774328619E+00 -4.482482720E+01  4.595671152E+01  0.000000000E+00  0.00000E+00  9.000E+00
#rwgt            1           1   2.9653245818634585E-002           3        3399           0
</event>
<event>
      5   9999  3.79277E-02  3.14344E+02 -1.00000E+00  1.04937E-01
      21    -1     0     0   502   501  0.000000000E+00  0.000000000E+00  1.941998553E+02  1.941998553E+02  0.000000000E+00  0.00000E+00  9.000E+00
       2    -1     0     0   501     0  0.000000000E+00  0.000000000E+00 -9.860132618E+02  9.860132618E+02  0.000000000E+00  0.00000E+00  9.000E+00
      25     1     1     2     0     0 -7.109180342E+01  2.119663188E+02 -1.777265334E+02  3.117619051E+02  1.250000000E+02  0.00000E+00  9.000E+00
      25     1     1     2     0     0 -1.019454946E+02  5.046552603E+01  1.038018833E+01  1.693292694E+02  1.250000000E+02  0.00000E+00  9.000E+00
       2     1     1     2   502     0  1.730372980E+02 -2.624318448E+02 -6.244670614E+02  6.991219425E+02  7.629394531E-06  0.00000E+00  9.000E+00
#rwgt            2          13   1.3196317856922603E-004           3        3642           0
</event>
<event>
      5   9999  3.79277E-02  1.77880E+01 -1.00000E+00  1.70682E-01
      21    -1     0     0   502   501  0.000000000E+00  0.000000000E+00  7.832520024E+01  7.832520024E+01  0.000000000E+00  0.00000E+00  9.000E+00
       2    -1     0     0   501     0  0.000000000E+00  0.000000000E+00 -1.921990584E+03  1.921990584E+03  0.000000000E+00  0.00000E+00  9.000E+00
      25     1     1     2     0     0  1.882170378E+01  7.226407053E+01 -9.154922955E+02  9.269991885E+02  1.250000000E+02  0.00000E+00  9.000E+00
      25     1     1     2     0     0 -2.815334893E+01 -8.740781515E+01 -1.048867386E+01  1.554598002E+02  1.250000000E+02  0.00000E+00  9.000E+00
       2     1     1     2   502     0  9.331645151E+00  1.514374461E+01 -9.176844140E+02  9.178567951E+02  1.078959322E-05  0.00000E+00  9.000E+00
#rwgt            1           1   3.3263026725259541E-002           3        3706           0
</event>
<event>
      5   9999 -3.79277E-02  6.16706E+01 -1.00000E+00  1.34069E-01
      21    -1     0     0   502   501  0.000000000E+00  0.000000000E+00  5.526284425E+02  5.526284425E+02  0.000000000E+00  0.00000E+00  9.000E+00
      21    -1     0     0   511   502  0.000000000E+00  0.000000000E+00 -1.026423413E+02  1.026423413E+02  0.000000000E+00  0.00000E+00  9.000E+00
      25     1     1     2     0     0  1.149040563E+02  5.834496422E+01  2.877732774E+02  3.391836320E+02  1.250000000E+02  0.00000E+00  9.000E+00
      25     1     1     2     0     0 -6.329244739E+01 -2.458838917E+01  1.987454588E+02  2.444080199E+02  1.250000000E+02  0.00000E+00  9.000E+00
      21     1     1     2   511   501 -5.161160891E+01 -3.375657505E+01 -3.653263506E+01  7.167913196E+01  1.066240300E-06  0.00000E+00  9.000E+00
#rwgt            1           1 -0.10843992348216556                3        3978           0
</event>
<event>
      5   9999  3.79277E-02  1.60913E+01 -1.00000E+00  1.74558E-01
      21    -1     0     0   502   501  0.000000000E+00  0.000000000E+00  9.030134143E+01  9.030134143E+01  0.000000000E+00  0.00000E+00  9.000E+00
      21    -1     0     0   512   502  0.000000000E+00  0.000000000E+00 -3.779583796E+02  3.779583796E+02  0.000000000E+00  0.00000E+00  9.000E+00
      25     1     1     2     0     0  3.225304880E+01 -2.711546218E+01  1.016974352E+01  1.323024230E+02  1.250000000E+02  0.00000E+00  9.000E+00
      25     1     1     2     0     0 -4.611917994E+01  1.895087739E+01 -2.321404435E+02  2.683287164E+02  1.250000000E+02  0.00000E+00  9.000E+00
      21     1     1     2   512   501  1.386613114E+01  8.164584788E+00 -6.568633814E+01  6.762858165E+01  1.348699152E-06  0.00000E+00  9.000E+00
#rwgt            1           1   2.3021382142054608E-002           3        4062           0
</event>
<event>
      5   9999  3.79277E-02  8.19510E+01 -1.00000E+00  1.27845E-01
      21    -1     0     0   502   501  0.000000000E+00  0.000000000E+00  1.835435413E+02  1.835435413E+02  0.000000000E+00  0.00000E+00  9.000E+00
      21    -1     0     0   511   502  0.000000000E+00  0.000000000E+00 -8.090626385E+02  8.090626385E+02  0.000000000E+00  0.00000E+00  9.000E+00
      25     1     1     2     0     0  9.780486636E+00 -2.036174273E+02 -2.587085564E+02  3.522936726E+02  1.250000000E+02  0.00000E+00  9.000E+00
      25     1     1     2     0     0 -9.162082555E+01  1.993594501E+02  1.194078259E+01  2.527966540E+02  1.250000000E+02  0.00000E+00  9.000E+00
      21     1     1     2   511   501  8.184033892E+01  4.257977196E+00 -3.787513233E+02  3.875158531E+02  7.629394531E-06  0.00000E+00  9.000E+00
#rwgt            1           1   4.2536299281209625E-002           3        4264           0
</event>
<event>
      5   9999  3.79277E-02  1.76252E+01 -1.00000E+00  1.71030E-01
      21    -1     0     0   502   512  0.000000000E+00  0.000000000E+00  1.962894545E+03  1.962894545E+03  0.000000000E+00  0.00000E+00  9.000E+00
      21    -1     0     0   501   502  0.000000000E+00  0.000000000E+00 -3.026122380E+02  3.026122380E+02  0.000000000E+00  0.00000E+00  9.000E+00
      25     1     1     2     0     0  1.930083041E+02 -1.975619968E+01 -1.533132138E+02  2.770784264E+02  1.250000000E+02  0.00000E+00  9.000E+00
      25     1     1     2     0     0 -1.755455200E+02  1.736893516E+01  4.637362496E+01  2.211185713E+02  1.250000000E+02  0.00000E+00  9.000E+00
      21     1     1     2   501   512 -1.746278410E+01  2.387264520E+00  1.767221896E+03  1.767309785E+03  2.157918644E-05  0.00000E+00  9.000E+00
#rwgt            1           1   3.0084158766585961E-002           3        4408           0
</event>
<event>
      5   9999  3.79277E-02  5.68382E+01 -1.00000E+00  1.35972E-01
      21    -1     0     0   511   501  0.000000000E+00  0.000000000E+00  5.395080475E+02  5.395080475E+02  0.000000000E+00  0.00000E+00  9.000E+00
      21    -1     0     0   501   502  0.000000000E+00  0.000000000E+00 -1.562770466E+02  1.562770466E+02  0.000000000E+00  0.00000E+00  9.000E+00
      25     1     1     2     0     0 -8.271288098E+01  4.914820159E+01  3.800178503E+02  4.114553839E+02  1.250000000E+02  0.00000E+00  9.000E+00
      25     1     1     2     0     0  1.393573270E+02 -4.445857557E+01 -5.783804665E+01  2.009160749E+02  1.250000000E+02  0.00000E+00  9.000E+00
      21     1     1     2   511   502 -5.664444602E+01 -4.689626017E+00  6.105119726E+01  8.341363524E+01  1.907348633E-06  0.00000E+00  9.000E+00
#rwgt            1           1   4.8134369878737586E-002           3        4647           0
</event>
<event>
      5   9999  3.79277E-02  3.81501E+01 -1.00000E+00  1.46127E-01
      21    -1     0     0   502   501  0.000000000E+00  0.000000000E+00  5.266403688E+02  5.266403688E+02  0.000000000E+00  0.00000E+00  9.000E+00
      21    -1     0     0   512   502  0.000000000E+00  0.000000000E+00 -1.569148788E+02  1.569148788E+02  0.000000000E+00  0.00000E+00  9.000E+00
      25     1     1     2     0     0 -2.268270888E+02  3.652377870E+01  1.397410176E+02  2.965418464E+02  1.250000000E+02  0.00000E+00  9.000E+00
      25     1     1     2     0     0  2.156308240E+02 -7.299397659E+01  2.327759916E+02  3.487612868E+02  1.250000000E+02  0.00000E+00  9.000E+00
      21     1     1     2   512   501  1.119626478E+01  3.647019789E+01 -2.791519349E+00  3.825211444E+01  5.685920724E-07  0.00000E+00  9.000E+00
#rwgt            1           1   4.1699769015239453E-002           3        4803           0
</event>
<event>
      5   9999  3.79277E-02  6.76655E+01 -1.00000E+00  1.31971E-01
      21    -1     0     0   511   501  0.000000000E+00  0.000000000E+00  1.236938681E+03  1.236938681E+03  0.000000000E+00  0.00000E+00  9.000E+00
      21    -1     0     0   501   502  0.000000000E+00  0.000000000E+00 -2.015746731E+03  2.015746731E+03  0.000000000E+00  0.00000E+00  9.000E+00
      25     1     1     2     0     0  6.189690005E+01  7.230307263E+01 -1.579291896E+02  2.227680172E+02  1.250000000E+02  0.00000E+00  9.000E+00
      25     1     1     2     0     0 -8.790833385E+01 -9.836885235E+00 -1.821232029E+03  1.827658541E+03  1.250000000E+02  0.00000E+00  9.000E+00
      21     1     1     2   511   502  2.601143380E+01 -6.246618739E+01  1.200353169E+03  1.202258853E+03  0.000000000E+00  0.00000E+00  9.000E+00
#rwgt            1           1  0.14756424526478973                3        4947           0
</event>
<event>
      5   9999  3.79277E-02  2.30799E+01 -1.00000E+00  1.61395E-01
      21    -1     0     0   502   501  0.000000000E+00  0.000000000E+00  1.513200174E+02  1.513200174E+02  0.000000000E+00  0.00000E+00  9.000E+00
       2    -1     0     0   501     0  0.000000000E+00  0.000000000E+00 -1.165032100E+03  1.165032100E+03  0.000000000E+00  0.00000E+00  9.000E+00
      25     1     1     2     0     0 -7.634307499E+01 -1.019424363E+02  2.123803773E+01  1.797124917E+02  1.250000000E+02  0.00000E+00  9.000E+00
      25     1     1     2     0     0  9.356640856E+01  8.657889799E+01 -1.064718886E+02  2.078745811E+02  1.250000000E+02  0.00000E+00  9.000E+00
       2     1     1     2   502     0 -1.722333357E+01  1.536353836E+01 -9.284782322E+02  9.287650452E+02  0.000000000E+00  0.00000E+00  9.000E+00
#rwgt            1           1   4.8724471207228455E-002           3        5079           0
</event>
<event>
      5   9999  3.79277E-02  6.65946E+01 -1.00000E+00  1.32327E-01
      21    -1     0     0   502   501  0.000000000E+00  0.000000000E+00  2.672728907E+02  2.672728907E+02  0.000000000E+00  0.00000E+00  9.000E+00
      21    -1     0     0   501   511  0.000000000E+00  0.000000000E+00 -2.572497433E+02  2.572497433E+02  0.000000000E+00  0.00000E+00  9.000E+00
      25     1     1     2     0     0 -9.266446463E+01  1.905485340E+02 -1.735377869E+01  2.466203570E+02  1.250000000E+02  0.00000E+00  9.000E+00
      25     1     1     2     0     0  3.156338103E+01 -1.640628073E+02  3.222707654E+01  2.111313246E+02  1.250000000E+02  0.00000E+00  9.000E+00
      21     1     1     2   502   511  6.110108360E+01 -2.648572671E+01 -4.850150408E+00  6.677095248E+01  1.499622539E-06  0.00000E+00  9.000E+00
#rwgt            1           1   3.6046704683911759E-002           3        5355           0
</event>
<event>
      5   9999  3.79277E-02  3.61803E+01 -1.00000E+00  1.47596E-01
      21    -1     0     0   502   512  0.000000000E+00  0.000000000E+00  3.653208926E+02  3.653208926E+02  0.000000000E+00  0.00000E+00  9.000E+00
      21    -1     0     0   501   502  0.000000000E+00  0.000000000E+00 -1.240019972E+02  1.240019972E+02  0.000000000E+00  0.00000E+00  9.000E+00
      25     1     1     2     0     0 -4.375644673E+01  6.850047502E+01 -4.126713545E+01  1.547091406E+02  1.250000000E+02  0.00000E+00  9.000E+00
      25     1     1     2     0     0  1.696856572E+01 -4.418128014E+01  2.589111449E+02  2.913758719E+02  1.250000000E+02  0.00000E+00  9.000E+00
      21     1     1     2   501   512  2.678788101E+01 -2.431919488E+01  2.367488595E+01  4.323787730E+01  8.259061849E-07  0.00000E+00  9.000E+00
#rwgt            2          11   3.0481463800257876E-003           3        5578           0
</event>
<event>
      5   9999  3.79277E-02  1.20807E+02 -1.00000E+00  1.20245E-01
      21    -1     0     0   502   501  0.000000000E+00  0.000000000E+00  1.337790167E+02  1.337790167E+02  0.000000000E+00  0.00000E+00  9.000E+00
      21    -1     0     0   501   511  0.000000000E+00  0.000000000E+00 -1.009734639E+03  1.009734639E+03  0.000000000E+00  0.00000E+00  9.000E+00
      25     1     1     2     0     0  7.868368975E+01  1.346584738E+01  6.242636105E+01  1.609176890E+02  1.250000000E+02  0.00000E+00  9.000E+00
      25     1     1     2     0     0  8.781449797E+00 -9.679734172E+01 -6.670459148E+02  6.855815719E+02  1.250000000E+02  0.00000E+00  9.000E+00
      21     1     1     2   502   511 -8.746513954E+01  8.333149434E+01 -2.713360683E+02  2.970143946E+02  3.814697266E-06  0.00000E+00  9.000E+00
#rwgt            2          11   2.1969506597684873E-003           3        5598           0
</event>
<event>
      5   9999  3.79277E-02  3.15856E+02 -1.00000E+00  1.04870E-01
      21    -1     0     0   502   501  0.000000000E+00  0.000000000E+00  1.311043900E+03  1.311043900E+03  0.000000000E+00  0.00000E+00  9.000E+00
      21    -1     0     0   512   502  0.000000000E+00  0.000000000E+00 -3.338741292E+02  3.338741292E+02  0.000000000E+00  0.00000E+00  9.000E+00
      25     1     1     2     0     0 -1.811625461E+02 -4.977543821E+02  5.871212432E+02  8.005720750E+02  1.250000000E+02  0.00000E+00  9.000E+00
      25     1     1     2     0     0  3.186086283E+02  2.133715061E+02  3.337740983E+02  5.235160039E+02  1.250000000E+02  0.00000E+00  9.000E+00
      21     1     1     2   512   501 -1.374460822E+02  2.843828760E+02  5.627442934E+01  3.208299504E+02  3.693564745E-06  0.00000E+00  9.000E+00
#rwgt            1           1   8.5710354972973052E-002           3        5708           0
</event>
<event>
      5   9999  3.79277E-02  5.09381E+01 -1.00000E+00  1.38616E-01
      21    -1     0     0   511   501  0.000000000E+00  0.000000000E+00  7.667009569E+02  7.667009569E+02  0.000000000E+00  0.00000E+00  9.000E+00
      21    -1     0     0   501   502  0.000000000E+00  0.000000000E+00 -6.849308148E+01  6.849308148E+01  0.000000000E+00  0.00000E+00  9.000E+00
      25     1     1     2     0     0  4.995381618E+00 -1.478505941E+02  3.154417740E+02  3.701530289E+02  1.250000000E+02  0.00000E+00  9.000E+00
      25     1     1     2     0     0 -1.094074026E+01  9.726067263E+01  1.243743381E+02  2.016762609E+02  1.250000000E+02  0.00000E+00  9.000E+00
      21     1     1     2   511   502  5.945358646E+00  5.058992146E+01  2.583917634E+02  2.633647486E+02  0.000000000E+00  0.00000E+00  9.000E+00
#rwgt            1           1   4.2984129466777363E-002           3        6014           0
</event>
<event>
      5   9999  3.79277E-02  7.52142E+01 -1.00000E+00  1.29660E-01
      21    -1     0     0   502   501  0.000000000E+00  0.000000000E+00  4.401870739E+01  4.401870739E+01  0.000000000E+00  0.00000E+00  9.000E+00
      21    -1     0     0   512   502  0.000000000E+00  0.000000000E+00 -2.020592996E+03  2.020592996E+03  0.000000000E+00  0.00000E+00  9.000E+00
      25     1     1     2     0     0  1.674898299E+01 -8.506835546E+01 -4.365089372E+02  4.622577266E+02  1.250000000E+02  0.00000E+00  9.000E+00
      25     1     1     2     0     0  1.433066996E+01  1.535609419E+02 -2.983516754E+02  3.583644140E+02  1.250000000E+02  0.00000E+00  9.000E+00
      21     1     1     2   512   501 -3.107965295E+01 -6.849258648E+01 -1.241713676E+03  1.243989562E+03  0.000000000E+00  0.00000E+00  9.000E+00
#rwgt            1           1   3.4880528715704857E-002           3        6112           0
</event>
<event>
      5   9999  3.79277E-02  9.12973E+01 -1.00000E+00  1.25633E-01
      21    -1     0     0   502   511  0.000000000E+00  0.000000000E+00  2.837480988E+03  2.837480988E+03  0.000000000E+00  0.00000E+00  9.000E+00
      21    -1     0     0   501   502  0.000000000E+00  0.000000000E+00 -6.434167344E+02  6.434167344E+02  0.000000000E+00  0.00000E+00  9.000E+00
      25     1     1     2     0     0 -2.085458870E+02 -3.606067983E+01 -1.471900410E+02  2.864989839E+02  1.250000000E+02  0.00000E+00  9.000E+00
      25     1     1     2     0     0  2.018236292E+02 -5.498885086E+01 -3.909458542E+02  4.606736502E+02  1.250000000E+02  0.00000E+00  9.000E+00
      21     1     1     2   501   511  6.722257784E+00  9.104953070E+01  2.732200149E+03  2.733725089E+03  4.315837288E-05  0.00000E+00  9.000E+00
#rwgt            1           1   2.4608883359368880E-002           3        6199           0
</event>
<event>
      5   9999  3.79277E-02  1.58900E+01 -1.00000E+00  1.75057E-01
      21    -1     0     0   502   501  0.000000000E+00  0.000000000E+00  4.388776323E+02  4.388776323E+02  0.000000000E+00  0.00000E+00  9.000E+00
      21    -1     0     0   512   502  0.000000000E+00  0.000000000E+00 -1.426127076E+02  1.426127076E+02  0.000000000E+00  0.00000E+00  9.000E+00
      25     1     1     2     0     0 -1.305073459E+02 -1.057949671E+02  2.805316002E+02  3.500681664E+02  1.250000000E+02  0.00000E+00  9.000E+00
      25     1     1     2     0     0  1.358505029E+02  9.083028047E+01  3.253089494E+01  2.082996834E+02  1.250000000E+02  0.00000E+00  9.000E+00
      21     1     1     2   512   501 -5.343156971E+00  1.496468667E+01 -1.679757047E+01  2.312249008E+01  5.840038640E-07  0.00000E+00  9.000E+00
#rwgt            1           1   3.3979505480007964E-002           3        6281           0
</event>
<event>
      5   9999  3.79277E-02  1.29775E+02 -1.00000E+00  1.18942E-01
      21    -1     0     0   502   501  0.000000000E+00  0.000000000E+00  2.445517554E+02  2.445517554E+02  0.000000000E+00  0.00000E+00  9.000E+00
      -3    -1     0     0     0   502  0.000000000E+00  0.000000000E+00 -8.845090046E+02  8.845090046E+02  0.000000000E+00  0.00000E+00  9.000E+00
      25     1     1     2     0     0  2.217782270E+02 -2.426742348E+02 -2.558170111E+01  3.526411627E+02  1.250000000E+02  0.00000E+00  9.000E+00
      25     1     1     2     0     0 -2.813731305E+02  1.273915402E+02 -3.579965510E+02  4.890664307E+02  1.250000000E+02  0.00000E+00  9.000E+00
      -3     1     1     2     0   501  5.959490353E+01  1.152826946E+02 -2.563789972E+02  2.873531667E+02  5.394796609E-06  0.00000E+00  9.000E+00
#rwgt            1           1   3.3899367480445135E-002           3        6480           0
</event>
<event>
      5   9999  3.79277E-02  6.34538E+01 -1.00000E+00  1.33417E-01
      21    -1     0     0   502   501  0.000000000E+00  0.000000000E+00  4.145182948E+02  4.145182948E+02  0.000000000E+00  0.00000E+00  9.000E+00
      21    -1     0     0   511   502  0.000000000E+00  0.000000000E+00 -1.226413440E+02  1.226413440E+02  0.000000000E+00  0.00000E+00  9.000E+00
      25     1     1     2     0     0 -3.047091672E+01 -7.696924383E+01  2.674729345E+02  3.066260131E+02  1.250000000E+02  0.00000E+00  9.000E+00
      25     1     1     2     0     0 -2.656188106E+01  1.047837836E+02  2.460441550E+01  1.670794784E+02  1.250000000E+02  0.00000E+00  9.000E+00
      21     1     1     2   511   501  5.703279778E+01 -2.781453974E+01 -2.003991267E-01  6.345414725E+01  5.531146646E-07  0.00000E+00  9.000E+00
#rwgt            2          11   2.4062692710395805E-003           3        6703           0
</event>
<event>
      5   9999  3.79277E-02  2.58406E+01 -1.00000E+00  1.57683E-01
      21    -1     0     0   502   501  0.000000000E+00  0.000000000E+00  5.264125587E+02  5.264125587E+02  0.000000000E+00  0.00000E+00  9.000E+00
      21    -1     0     0   512   502  0.000000000E+00  0.000000000E+00 -5.463896153E+01  5.463896153E+01  0.000000000E+00  0.00000E+00  9.000E+00
      25     1     1     2     0     0 -4.797658483E+01 -7.441071028E+01  2.827841836E+02  3.216062825E+02  1.250000000E+02  0.00000E+00  9.000E+00
      25     1     1     2     0     0  6.578761091E+01  5.568900181E+01  1.588368434E+02  2.197348800E+02  1.250000000E+02  0.00000E+00  9.000E+00
      21     1     1     2   512   501 -1.781102608E+01  1.872170847E+01  3.015257028E+01  3.971035775E+01  3.371747881E-07  0.00000E+00  9.000E+00
#rwgt            1           1   2.6044519586684672E-002           3        7008           0
</event>
<event>
      5   9999  3.79277E-02  6.69223E+01 -1.00000E+00  1.32217E-01
      21    -1     0     0   502   501  0.000000000E+00  0.000000000E+00  7.065127868E+02  7.065127868E+02  0.000000000E+00  0.00000E+00  9.000E+00
       1    -1     0     0   501     0  0.000000000E+00  0.000000000E+00 -2.564590319E+02  2.564590319E+02  0.000000000E+00  0.00000E+00  9.000E+00
      25     1     1     2     0     0  9.141151190E+00 -1.364468185E+02  2.441631293E+02  3.064994757E+02  1.250000000E+02  0.00000E+00  9.000E+00
      25     1     1     2     0     0 -5.386120236E+01  1.862335002E+02  3.941415826E+02  4.566799020E+02  1.250000000E+02  0.00000E+00  9.000E+00
       1     1     1     2   502     0  4.472005117E+01 -4.978668172E+01 -1.882509571E+02  1.997924410E+02  3.814697266E-06  0.00000E+00  9.000E+00
#rwgt            1           1   3.2575953494899459E-002           3        7171           0
</event>
<event>
      5   9999  3.79277E-02  6.17279E+01 -1.00000E+00  1.34048E-01
      21    -1     0     0   502   501  0.000000000E+00  0.000000000E+00  6.317225986E+02  6.317225986E+02  0.000000000E+00  0.00000E+00  9.000E+00
       1    -1     0     0   501     0  0.000000000E+00  0.000000000E+00 -4.005382748E+02  4.005382748E+02  0.000000000E+00  0.00000E+00  9.000E+00
      25     1     1     2     0     0 -6.115393741E+01 -1.494060692E+01 -5.461115541E+01  1.502344970E+02  1.250000000E+02  0.00000E+00  9.000E+00
      25     1     1     2     0     0  5.091479453E+01 -4.593218408E+01  5.718665915E+02  5.893712585E+02  1.250000000E+02  0.00000E+00  9.000E+00
       1     1     1     2   502     0  1.023914288E+01  6.087279100E+01 -2.860711123E+02  2.926551179E+02  5.394796609E-06  0.00000E+00  9.000E+00
#rwgt            1           1   4.2520614164061041E-002           3        7243           0
</event>
<event>
      5   9999  3.79277E-02  1.62221E+01 -1.00000E+00  1.74238E-01
      21    -1     0     0   502   501  0.000000000E+00  0.000000000E+00  1.970432979E+02  1.970432979E+02  0.000000000E+00  0.00000E+00  9.000E+00
      21    -1     0     0   501   511  0.000000000E+00  0.000000000E+00 -2.084828760E+02  2.084828760E+02  0.000000000E+00  0.00000E+00  9.000E+00
      25     1     1     2     0     0  6.749405408E+01 -5.766038564E+01  1.220047432E+02  1.959344910E+02  1.250000000E+02  0.00000E+00  9.000E+00
      25     1     1     2     0     0 -5.410519872E+01  4.850093129E+01 -1.258304607E+02  1.916716403E+02  1.250000000E+02  0.00000E+00  9.000E+00
      21     1     1     2   502   511 -1.338885536E+01  9.159454350E+00 -7.613860624E+00  1.792004256E+01  3.475518164E-07  0.00000E+00  9.000E+00
#rwgt            1           1   4.3027764127715265E-002           3        7393           0
</event>
<event>
      5   9999  3.79277E-02  4.04082E+01 -1.00000E+00  1.44567E-01
      21    -1     0     0   502   512  0.000000000E+00  0.000000000E+00  5.154249143E+01  5.154249143E+01  0.000000000E+00  0.00000E+00  9.000E+00
      21    -1     0     0   501   502  0.000000000E+00  0.000000000E+00 -1.685470645E+03  1.685470645E+03  0.000000000E+00  0.00000E+00  9.000E+00
      25     1     1     2     0     0 -2.248782362E+02 -4.888918407E+01 -8.626303061E+02  9.015078582E+02  1.250000000E+02  0.00000E+00  9.000E+00
      25     1     1     2     0     0  2.240229065E+02  8.928837480E+01 -7.241028373E+02  7.733748092E+02  1.250000000E+02  0.00000E+00  9.000E+00
      21     1     1     2   501   512  8.553296259E-01 -4.039919073E+01 -4.719501033E+01  6.213046918E+01  1.168007728E-06  0.00000E+00  9.000E+00
#rwgt            1           1   4.5391357529133557E-002           3        7583           0
</event>
<event>
      5   9999  3.79277E-02  4.93094E+01 -1.00000E+00  1.39421E-01
       2    -1     0     0   502     0  0.000000000E+00  0.000000000E+00  7.168195310E+02  7.168195310E+02  0.000000000E+00  0.00000E+00  9.000E+00
      21    -1     0     0   501   502  0.000000000E+00  0.000000000E+00 -2.084940333E+02  2.084940333E+02  0.000000000E+00  0.00000E+00  9.000E+00
      25     1     1     2     0     0 -4.732169225E+01  1.303901602E+02 -3.395119401E+01  1.897857213E+02  1.250000000E+02  0.00000E+00  9.000E+00
      25     1     1     2     0     0  9.654067898E+01 -1.333747101E+02  1.642936433E+01  2.073736724E+02  1.250000000E+02  0.00000E+00  9.000E+00
       2     1     1     2   501     0 -4.921898673E+01  2.984549953E+00  5.258473274E+02  5.281541706E+02  7.629394531E-06  0.00000E+00  9.000E+00
#rwgt            1           1   6.2870132027774611E-002           3        7807           0
</event>
<event>
      5   9999  3.79277E-02  1.38573E+01 -1.00000E+00  1.80688E-01
      21    -1     0     0   502   501  0.000000000E+00  0.000000000E+00  1.715680239E+02  1.715680239E+02  0.000000000E+00  0.00000E+00  9.000E+00
      21    -1     0     0   501   511  0.000000000E+00  0.000000000E+00 -7.471158318E+02  7.471158318E+02  0.000000000E+00  0.00000E+00  9.000E+00
      25     1     1     2     0     0  2.291119580E+02 -1.374077844E+02 -1.949936407E+02  3.535826755E+02  1.250000000E+02  0.00000E+00  9.000E+00
      25     1     1     2     0     0 -2.252345059E+02  1.241040642E+02 -1.298865307E+02  3.140508116E+02  1.250000000E+02  0.00000E+00  9.000E+00
      21     1     1     2   502   511 -3.877452067E+00  1.330372025E+01 -2.506676364E+02  2.510503686E+02  0.000000000E+00  0.00000E+00  9.000E+00
#rwgt            1           1   6.2643260003549639E-002           3        8002           0
</event>
<event>
      5   9999  3.79277E-02  6.63142E+00 -1.00000E+00  2.18928E-01
      21    -1     0     0   512   501  0.000000000E+00  0.000000000E+00  5.467011305E+02  5.467011305E+02  0.000000000E+00  0.00000E+00  9.000E+00
      21    -1     0     0   501   502  0.000000000E+00  0.000000000E+00 -1.822735997E+02  1.822735997E+02  0.000000000E+00  0.00000E+00  9.000E+00
      25     1     1     2     0     0 -1.355306727E+02  1.511736698E+01  6.633689182E+01  1.965265408E+02  1.250000000E+02  0.00000E+00  9.000E+00
      25     1     1     2     0     0  1.403423121E+02 -1.968067747E+01 -4.094189952E+01  1.933508023E+02  1.250000000E+02  0.00000E+00  9.000E+00
      21     1     1     2   512   502 -4.811639381E+00  4.563310489E+00  3.390325386E+02  3.390973870E+02  0.000000000E+00  0.00000E+00  9.000E+00
#rwgt            1           1   3.4151679836670404E-002           3        8172           0
</event>
<event>
      5   9999  3.79277E-02  9.90826E+01 -1.00000E+00  1.24008E-01
      21    -1     0     0   502   501  0.000000000E+00  0.000000000E+00  9.416388087E+02  9.416388087E+02  0.000000000E+00  0.00000E+00  9.000E+00
      21    -1     0     0   501   511  0.000000000E+00  0.000000000E+00 -4.691847874E+02  4.691847874E+02  0.000000000E+00  0.00000E+00  9.000E+00
      25     1     1     2     0     0  1.644248402E+02 -1.757172362E+02  7.564384634E+02  8.035771426E+02  1.250000000E+02  0.00000E+00  9.000E+00
      25     1     1     2     0     0 -1.420831913E+02  7.918636494E+01  8.731747017E+01  2.229516859E+02  1.250000000E+02  0.00000E+00  9.000E+00
      21     1     1     2   502   511 -2.234164892E+01  9.653087129E+01 -3.713019122E+02  3.842947676E+02  7.629394531E-06  0.00000E+00  9.000E+00
#rwgt            1           1   3.7511749670920108E-002           3        8473           0
</event>
<event>
      5   9999  3.79277E-02  1.20127E+02 -1.00000E+00  1.20349E-01
       2    -1     0     0   502     0  0.000000000E+00  0.000000000E+00  2.255444870E+03  2.255444870E+03  0.000000000E+00  0.00000E+00  9.000E+00
      21    -1     0     0   501   502  0.000000000E+00  0.000000000E+00 -1.280883057E+02  1.280883057E+02  0.000000000E+00  0.00000E+00  9.000E+00
      25     1     1     2     0     0 -1.518696409E+02  1.869431103E+02  1.255971407E+02  2.990179862E+02  1.250000000E+02  0.00000E+00  9.000E+00
      25     1     1     2     0     0  2.716268261E+02 -1.775190476E+02  7.464649619E+02  8.234859344E+02  1.250000000E+02  0.00000E+00  9.000E+00
       2     1     1     2   501     0 -1.197571852E+02 -9.424062791E+00  1.255294462E+03  1.261029255E+03  1.525878906E-05  0.00000E+00  9.000E+00
#rwgt            1           1   3.0696432974778153E-002           3        8546           0
</event>
<event>
      5   9999  3.79277E-02  8.83236E+01 -1.00000E+00  1.26303E-01
      21    -1     0     0   502   511  0.000000000E+00  0.000000000E+00  1.859534189E+02  1.859534189E+02  0.000000000E+00  0.00000E+00  9.000E+00
      21    -1     0     0   501   502  0.000000000E+00  0.000000000E+00 -3.481311486E+02  3.481311486E+02  0.000000000E+00  0.00000E+00  9.000E+00
      25     1     1     2     0     0 -1.834769367E+01  3.997708533E+01  2.531939529E+01  1.349106259E+02  1.250000000E+02  0.00000E+00  9.000E+00
      25     1     1     2     0     0  4.135247606E+01 -1.252521721E+02 -2.364322315E+02  2.982001575E+02  1.250000000E+02  0.00000E+00  9.000E+00
      21     1     1     2   501   511 -2.300478239E+01  8.527508673E+01  4.893510646E+01  1.009737841E+02  6.743495762E-07  0.00000E+00  9.000E+00
#rwgt            1           1   3.5438700608925226E-002           3        8603           0
</event>
<event>
      5   9999  3.79277E-02  1.66399E+02 -1.00000E+00  1.14635E-01
      21    -1     0     0   502   501  0.000000000E+00  0.000000000E+00  1.530109164E+02  1.530109164E+02  0.000000000E+00  0.00000E+00  9.000E+00
      21    -1     0     0   501   512  0.000000000E+00  0.000000000E+00 -8.008501997E+02  8.008501997E+02  0.000000000E+00  0.00000E+00  9.000E+00
      25     1     1     2     0     0  1.502148308E+02  7.438342304E+01 -2.053223063E+02  2.930522795E+02  1.250000000E+02  0.00000E+00  9.000E+00
      25     1     1     2     0     0  1.507376790E+01 -9.357837348E+01  3.011747826E+01  1.597378883E+02  1.250000000E+02  0.00000E+00  9.000E+00
      21     1     1     2   502   512 -1.652885987E+02  1.919495043E+01 -4.726344552E+02  5.010709483E+02  5.394796609E-06  0.00000E+00  9.000E+00
#rwgt            2          11   1.6048411215228392E-003           3        9088           0
</event>
<event>
      5   9999  3.79277E-02  1.40793E+01 -1.00000E+00  1.80015E-01
      -1    -1     0     0     0   501  0.000000000E+00  0.000000000E+00  5.986803679E+02  5.986803679E+02  0.000000000E+00  0.00000E+00  9.000E+00
      21    -1     0     0   501   502  0.000000000E+00  0.000000000E+00 -4.385970218E+02  4.385970218E+02  0.000000000E+00  0.00000E+00  9.000E+00
      25     1     1     2     0     0 -7.169354440E+01 -1.680053120E+02 -2.910518745E+02  3.656527626E+02  1.250000000E+02  0.00000E+00  9.000E+00
      25     1     1     2     0     0  6.587340815E+01  1.808253382E+02  9.410027644E+00  2.296751128E+02  1.250000000E+02  0.00000E+00  9.000E+00
      -1     1     1     2     0   502  5.820136249E+00 -1.282002622E+01  4.417251930E+02  4.419495143E+02  5.394796609E-06  0.00000E+00  9.000E+00
#rwgt            1           1  0.34856235796421120                3        9138           0
</event>
<event>
      5   9999  3.79277E-02  4.07172E+01 -1.00000E+00  1.44363E-01
      21    -1     0     0   502   501  0.000000000E+00  0.000000000E+00  2.503587137E+02  2.503587137E+02  0.000000000E+00  0.00000E+00  9.000E+00
      21    -1     0     0   511   502  0.000000000E+00  0.000000000E+00 -8.429291833E+02  8.429291833E+02  0.000000000E+00  0.00000E+00  9.000E+00
      25     1     1     2     0     0 -9.241706102E+01  3.645204852E+02 -5.280262345E+02  6.601914886E+02  1.250000000E+02  0.00000E+00  9.000E+00
      25     1     1     2     0     0  1.245702587E+02 -3.395391671E+02 -3.811743657E+01  3.845549822E+02  1.250000000E+02  0.00000E+00  9.000E+00
      21     1     1     2   511   501 -3.215319771E+01 -2.498131807E+01 -2.642679850E+01  4.854142617E+01  6.743495762E-07  0.00000E+00  9.000E+00
#rwgt            1           1   2.3801716528610638E-002           3        9415           0
</event>
<event>
      5   9999  3.79277E-02  4.47432E+01 -1.00000E+00  1.41885E-01
      21    -1     0     0   502   512  0.000000000E+00  0.000000000E+00  1.904192030E+03  1.904192030E+03  0.000000000E+00  0.00000E+00  9.000E+00
      21    -1     0     0   501   502  0.000000000E+00  0.000000000E+00 -3.778890463E+01  3.778890463E+01  0.000000000E+00  0.00000E+00  9.000E+00
      25     1     1     2     0     0 -1.389091636E+02 -2.183138157E+01  1.229777420E+03  1.244085957E+03  1.250000000E+02  0.00000E+00  9.000E+00
      25     1     1     2     0     0  1.637079506E+02  5.907346941E+01  3.702282881E+02  4.277662366E+02  1.250000000E+02  0.00000E+00  9.000E+00
      21     1     1     2   501   512 -2.479878698E+01 -3.724208784E+01  2.663974167E+02  2.701287407E+02  3.814697266E-06  0.00000E+00  9.000E+00
#rwgt            1           1   3.8018371770262530E-002           3        9627           0
</event>
<event>
      5   9999  3.79277E-02  4.25702E+01 -1.00000E+00  1.43183E-01
      21    -1     0     0   511   501  0.000000000E+00  0.000000000E+00  5.048371267E+01  5.048371267E+01  0.000000000E+00  0.00000E+00  9.000E+00
      21    -1     0     0   501   502  0.000000000E+00  0.000000000E+00 -1.246256733E+03  1.246256733E+03  0.000000000E+00  0.00000E+00  9.000E+00
      25     1     1     2     0     0  1.028747423E+02 -8.425851953E+01 -8.962385775E+02  9.146317830E+02  1.250000000E+02  0.00000E+00  9.000E+00
      25     1     1     2     0     0 -7.188566827E+01  5.507117632E+01 -3.023227331E+02  3.394472253E+02  1.250000000E+02  0.00000E+00  9.000E+00
      21     1     1     2   511   502 -3.098907406E+01  2.918734321E+01  2.788289887E+00  4.266143780E+01  1.479948642E-06  0.00000E+00  9.000E+00
#rwgt            1           1   6.7211328028389389E-002           3        9748           0
</event>
<event>
      5   9999  3.79277E-02  1.10351E+01 -1.00000E+00  1.90939E-01
      21    -1     0     0   502   501  0.000000000E+00  0.000000000E+00  3.672652987E+02  3.672652987E+02  0.000000000E+00  0.00000E+00  9.000E+00
      21    -1     0     0   512   502  0.000000000E+00  0.000000000E+00 -1.297829723E+02  1.297829723E+02  0.000000000E+00  0.00000E+00  9.000E+00
      25     1     1     2     0     0  1.633380735E+02 -2.811615559E+01  1.343218041E+02  2.472593608E+02  1.250000000E+02  0.00000E+00  9.000E+00
      25     1     1     2     0     0 -1.541079671E+02  2.206820566E+01  1.175249115E+02  2.316751520E+02  1.250000000E+02  0.00000E+00  9.000E+00
      21     1     1     2   512   501 -9.230106352E+00  6.047949931E+00 -1.436438914E+01  1.811375822E+01  0.000000000E+00  0.00000E+00  9.000E+00
#rwgt            1           1  0.23175957963336316                3        9872           0
</event>
<event>
      5   9999  3.79277E-02  6.01615E+01 -1.00000E+00  1.34641E-01
      21    -1     0     0   511   501  0.000000000E+00  0.000000000E+00  2.846220815E+02  2.846220815E+02  0.000000000E+00  0.00000E+00  9.000E+00
      21    -1     0     0   501   502  0.000000000E+00  0.000000000E+00 -1.578544465E+02  1.578544465E+02  0.000000000E+00  0.00000E+00  9.000E+00
      25     1     1     2     0     0 -1.437396404E+02  2.610697090E+01  3.887182626E+00  1.923090439E+02  1.250000000E+02  0.00000E+00  9.000E+00
      25     1     1     2     0     0  9.402942712E+01  7.779579779E+00  9.993082512E+01  1.857773529E+02  1.250000000E+02  0.00000E+00  9.000E+00
      21     1     1     2   511   502  4.971021331E+01 -3.388655068E+01  2.294962723E+01  6.439013135E+01  1.390207266E-06  0.00000E+00  9.000E+00
#rwgt            2          11   2.4631131013466098E-003           3       10240           0
</event>
<event>
      5   9999  3.79277E-02  5.84268E+01 -1.00000E+00  1.35323E-01
      21    -1     0     0   502   501  0.000000000E+00  0.000000000E+00  6.736887764E+01  6.736887764E+01  0.000000000E+00  0.00000E+00  9.000E+00
       2    -1     0     0   501     0  0.000000000E+00  0.000000000E+00 -1.296073574E+03  1.296073574E+03  0.000000000E+00  0.00000E+00  9.000E+00
      25     1     1     2     0     0 -1.022123488E+02 -2.166847389E+02 -3.720809989E+02  4.598574889E+02  1.250000000E+02  0.00000E+00  9.000E+00
      25     1     1     2     0     0  8.513304093E+01  1.608100156E+02 -5.740307898E+02  6.150153197E+02  1.250000000E+02  0.00000E+00  9.000E+00
       2     1     1     2   502     0  1.707930789E+01  5.587472331E+01 -2.825929081E+02  2.885696436E+02  3.814697266E-06  0.00000E+00  9.000E+00
#rwgt            1           1   4.3645342268807834E-002           3       10290           0
</event>
<event>
      5   9999  3.79277E-02  3.48092E+01 -1.00000E+00  1.48686E-01
      21    -1     0     0   502   501  0.000000000E+00  0.000000000E+00  1.500388520E+02  1.500388520E+02  0.000000000E+00  0.00000E+00  9.000E+00
      21    -1     0     0   511   502  0.000000000E+00  0.000000000E+00 -9.610301358E+02  9.610301358E+02  0.000000000E+00  0.00000E+00  9.000E+00
      25     1     1     2     0     0  2.428078357E+01 -1.096443836E+02  6.516273528E+01  1.802293799E+02  1.250000000E+02  0.00000E+00  9.000E+00
      25     1     1     2     0     0 -1.997777570E+01  7.510221771E+01 -1.743455457E+02  2.281684113E+02  1.250000000E+02  0.00000E+00  9.000E+00
      21     1     1     2   511   501 -4.303007868E+00  3.454216594E+01 -7.018084734E+02  7.026711966E+02  1.078959322E-05  0.00000E+00  9.000E+00
#rwgt            1           1   3.4890544381697690E-002           3       10413           0
</event>
<event>
      5   9999  3.79277E-02  1.06873E+02 -1.00000E+00  1.22543E-01
      21    -1     0     0   502   501  0.000000000E+00  0.000000000E+00  3.872692892E+02  3.872692892E+02  0.000000000E+00  0.00000E+00  9.000E+00
       5    -1     0     0   501     0  0.000000000E+00  0.000000000E+00 -4.909463729E+02  4.909463729E+02  0.000000000E+00  0.00000E+00  9.000E+00
      25     1     1     2     0     0  1.173201580E+02  4.600827973E+01  1.950782572E+02  2.637447776E+02  1.250000000E+02  0.00000E+00  9.000E+00
      25     1     1     2     0     0 -1.962778536E+02  2.601571339E+01  5.868665911E+01  2.413937388E+02  1.250000000E+02  0.00000E+00  9.000E+00
       5     1     1     2   502     0  7.895769560E+01 -7.202399312E+01 -3.574420000E+02  3.730771457E+02  5.394796609E-06  0.00000E+00  9.000E+00
#rwgt            1           1   3.5162232378233370E-002           3       10485           0
</event>
<event>
      5   9999  3.79277E-02  1.10237E+02 -1.00000E+00  1.21954E-01
      21    -1     0     0   502   501  0.000000000E+00  0.000000000E+00  2.081717254E+02  2.081717254E+02  0.000000000E+00  0.00000E+00  9.000E+00
      21    -1     0     0   511   502  0.000000000E+00  0.000000000E+00 -9.397276798E+02  9.397276798E+02  0.000000000E+00  0.00000E+00  9.000E+00
      25     1     1     2     0     0  1.610961869E+02  9.495718487E+01 -8.568859399E+00  2.250939221E+02  1.250000000E+02  0.00000E+00  9.000E+00
      25     1     1     2     0     0 -1.346715569E+02  1.206546984E+01  7.263017832E+00  1.842817279E+02  1.250000000E+02  0.00000E+00  9.000E+00
      21     1     1     2   511   501 -2.642463007E+01 -1.070226547E+02 -7.302501129E+02  7.385237552E+02  1.525878906E-05  0.00000E+00  9.000E+00
#rwgt            1           1   2.7676523304083132E-002           3       10635           0
</event>
<event>
      5   9999  3.79277E-02  3.25218E+01 -1.00000E+00  1.50644E-01
      21    -1     0     0   502   512  0.000000000E+00  0.000000000E+00  1.340638919E+02  1.340638919E+02  0.000000000E+00  0.00000E+00  9.000E+00
      21    -1     0     0   501   502  0.000000000E+00  0.000000000E+00 -5.192796464E+02  5.192796464E+02  0.000000000E+00  0.00000E+00  9.000E+00
      25     1     1     2     0     0  1.318155497E+02  6.066797275E+01 -3.378860387E+02  3.883914485E+02  1.250000000E+02  0.00000E+00  9.000E+00
      25     1     1     2     0     0 -1.629943171E+02 -5.141860288E+01 -7.251575210E+01  2.238181281E+02  1.250000000E+02  0.00000E+00  9.000E+00
      21     1     1     2   501   512  3.117876742E+01 -9.249369867E+00  2.518603633E+01  4.113396173E+01  4.768371582E-07  0.00000E+00  9.000E+00
#rwgt            1           1   3.8857295624283569E-002           3       10889           0
</event>
<event>
      5   9999  3.79277E-02  1.47625E+02 -1.00000E+00  1.16669E-01
      21    -1     0     0   502   501  0.000000000E+00  0.000000000E+00  3.541606559E+01  3.541606559E+01  0.000000000E+00  0.00000E+00  9.000E+00
      21    -1     0     0   511   502  0.000000000E+00  0.000000000E+00 -2.822851799E+03  2.822851799E+03  0.000000000E+00  0.00000E+00  9.000E+00
      25     1     1     2     0     0  1.998903264E+02  4.007795134E+01 -1.760665350E+03  1.776831410E+03  1.250000000E+02  0.00000E+00  9.000E+00
      25     1     1     2     0     0 -6.550250111E+01  2.102134295E+01 -2.267151945E+02  2.678754448E+02  1.250000000E+02  0.00000E+00  9.000E+00
      21     1     1     2   511   501 -1.343878253E+02 -6.109929430E+01 -8.000551887E+02  8.135610096E+02  0.000000000E+00  0.00000E+00  9.000E+00
#rwgt            1           1  0.15841619530629436                3       11119           0
</event>
<event>
      5   9999  3.79277E-02  1.82947E+01 -1.00000E+00  1.69627E-01
      21    -1     0     0   502   501  0.000000000E+00  0.000000000E+00  2.980017521E+02  2.980017521E+02  0.000000000E+00  0.00000E+00  9.000E+00
      21    -1     0     0   501   512  0.000000000E+00  0.000000000E+00 -3.922632740E+02  3.922632740E+02  0.000000000E+00  0.00000E+00  9.000E+00
      25     1     1     2     0     0  1.570448794E+01 -1.908806936E+02  2.073585017E+02  3.087144609E+02  1.250000000E+02  0.00000E+00  9.000E+00
      25     1     1     2     0     0 -1.216413709E+01  1.729318649E+02 -2.635945211E+02  3.393530134E+02  1.250000000E+02  0.00000E+00  9.000E+00
      21     1     1     2   502   512 -3.540350842E+00  1.794882871E+01 -3.802550245E+01  4.219755174E+01  4.768371582E-07  0.00000E+00  9.000E+00
#rwgt            1           1   5.1671892577506644E-002           3       11177           0
</event>
<event>
      5   9999  3.79277E-02  1.70179E+02 -1.00000E+00  1.14262E-01
      21    -1     0     0   502   511  0.000000000E+00  0.000000000E+00  2.179195788E+02  2.179195788E+02  0.000000000E+00  0.00000E+00  9.000E+00
      21    -1     0     0   501   502  0.000000000E+00  0.000000000E+00 -9.454461020E+02  9.454461020E+02  0.000000000E+00  0.00000E+00  9.000E+00
      25     1     1     2     0     0 -2.445065901E+02  1.376807176E+02 -2.347311069E+02  3.866046367E+02  1.250000000E+02  0.00000E+00  9.000E+00
      25     1     1     2     0     0  9.315284329E+01 -2.154814494E+02 -5.384604516E+02  6.005617080E+02  1.250000000E+02  0.00000E+00  9.000E+00
      21     1     1     2   501   511  1.513537468E+02  7.780073185E+01  4.566503531E+01  1.761993360E+02  3.090257978E-06  0.00000E+00  9.000E+00
#rwgt            2          11   2.8635269520745420E-003           3       11612           0
</event>
<event>
      5   9999  3.79277E-02  4.38833E+01 -1.00000E+00  1.42388E-01
      21    -1     0     0   502   501  0.000000000E+00  0.000000000E+00  4.291507124E+02  4.291507124E+02  0.000000000E+00  0.00000E+00  9.000E+00
       2    -1     0     0   501     0  0.000000000E+00  0.000000000E+00 -1.863524581E+02  1.863524581E+02  0.000000000E+00  0.00000E+00  9.000E+00
      25     1     1     2     0     0  2.015140920E+01  2.962355249E+01  4.444905809E+01  1.374203512E+02  1.250000000E+02  0.00000E+00  9.000E+00
      25     1     1     2     0     0 -7.820412912E+00 -7.173874798E+01  3.187652103E+02  3.499197996E+02  1.250000000E+02  0.00000E+00  9.000E+00
       2     1     1     2   502     0 -1.233099629E+01  4.211519549E+01 -1.204160141E+02  1.281630197E+02  0.000000000E+00  0.00000E+00  9.000E+00
#rwgt            1           1   3.1915124913849381E-002           3       11647           0
</event>
<event>
      5   9999  3.79277E-02  4.84896E+01 -1.00000E+00  1.39840E-01
      21    -1     0     0   502   511  0.000000000E+00  0.000000000E+00  1.023381340E+03  1.023381340E+03  0.000000000E+00  0.00000E+00  9.000E+00
      21    -1     0     0   501   502  0.000000000E+00  0.000000000E+00 -1.717475673E+02  1.717475673E+02  0.000000000E+00  0.00000E+00  9.000E+00
      25     1     1     2     0     0  4.951993714E+01 -1.507796503E+02 -4.938079432E+01  2.079668002E+02  1.250000000E+02  0.00000E+00  9.000E+00
      25     1     1     2     0     0 -3.964640355E+01  1.033059204E+02  1.223140313E+02  2.069533106E+02  1.250000000E+02  0.00000E+00  9.000E+00
      21     1     1     2   501   511 -9.873533590E+00  4.747372991E+01  7.787005353E+02  7.802087960E+02  1.078959322E-05  0.00000E+00  9.000E+00
#rwgt            1           1   4.0523780092331776E-002           3       11738           0
</event>
<event>
      5   9999  3.79277E-02  1.48569E+01 -1.00000E+00  1.77777E-01
       2    -1     0     0   502     0  0.000000000E+00  0.000000000E+00  9.214481481E+02  9.214481481E+02  0.000000000E+00  0.00000E+00  9.000E+00
      21    -1     0     0   501   502  0.000000000E+00  0.000000000E+00 -2.638156803E+02  2.638156803E+02  0.000000000E+00  0.00000E+00  9.000E+00
      25     1     1     2     0     0  1.735962425E+02 -2.190832486E+02  3.407089903E+01  3.080891939E+02  1.250000000E+02  0.00000E+00  9.000E+00
      25     1     1     2     0     0 -1.767439852E+02  2.045636144E+02  4.831359426E+01  3.017348373E+02  1.250000000E+02  0.00000E+00  9.000E+00
       2     1     1     2   501     0  3.147742698E+00  1.451963415E+01  5.752479745E+02  5.754397972E+02  7.629394531E-06  0.00000E+00  9.000E+00
#rwgt            1           1   4.3830294638524760E-002           3       11910           0
</event>
<event>
      5   9999  3.79277E-02  3.13192E+01 -1.00000E+00  1.51753E-01
      21    -1     0     0   502   511  0.000000000E+00  0.000000000E+00  2.557152822E+02  2.557152822E+02  0.000000000E+00  0.00000E+00  9.000E+00
      21    -1     0     0   501   502  0.000000000E+00  0.000000000E+00 -2.965426374E+02  2.965426374E+02  0.000000000E+00  0.00000E+00  9.000E+00
      25     1     1     2     0     0 -4.756555728E+01 -1.104673064E+02 -2.194141761E+02  2.797017853E+02  1.250000000E+02  0.00000E+00  9.000E+00
      25     1     1     2     0     0  4.320072445E+01  7.945376101E+01  9.004905967E+01  1.786422007E+02  1.250000000E+02  0.00000E+00  9.000E+00
      21     1     1     2   501   511  4.364832825E+00  3.101354536E+01  8.853776120E+01  9.391393358E+01  0.000000000E+00  0.00000E+00  9.000E+00
#rwgt            1           1   5.3311374433358615E-002           3       12201           0
</event>
<event>
      5   9999  3.79277E-02  2.60022E+01 -1.00000E+00  1.57483E-01
      21    -1     0     0   502   501  0.000000000E+00  0.000000000E+00  4.581959199E+02  4.581959199E+02  0.000000000E+00  0.00000E+00  9.000E+00
      21    -1     0     0   512   502  0.000000000E+00  0.000000000E+00 -1.116607682E+02  1.116607682E+02  0.000000000E+00  0.00000E+00  9.000E+00
      25     1     1     2     0     0 -6.371106740E+01 -1.483843782E+02  1.339572688E+02  2.442264803E+02  1.250000000E+02  0.00000E+00  9.000E+00
      25     1     1     2     0     0  5.196806779E+01  1.715838792E+02  2.018343922E+02  2.974959320E+02  1.250000000E+02  0.00000E+00  9.000E+00
      21     1     1     2   512   501  1.174299961E+01 -2.319950096E+01  1.074349074E+01  2.813427586E+01  4.298152060E-07  0.00000E+00  9.000E+00
#rwgt            1           1   3.8522680915209627E-002           3       12347           0
</event>
<event>
      5   9999  3.79277E-02  3.21067E+01 -1.00000E+00  1.51020E-01
      21    -1     0     0   511   501  0.000000000E+00  0.000000000E+00  2.899515691E+02  2.899515691E+02  0.000000000E+00  0.00000E+00  9.000E+00
      21    -1     0     0   501   502  0.000000000E+00  0.000000000E+00 -1.219484219E+02  1.219484219E+02  0.000000000E+00  0.00000E+00  9.000E+00
      25     1     1     2     0     0  9.402348927E+01 -5.243059842E+01  7.495767227E+01  1.811988875E+02  1.250000000E+02  0.00000E+00  9.000E+00
      25     1     1     2     0     0 -1.194899455E+02  3.287811105E+01  6.366939381E+01  1.871833566E+02  1.250000000E+02  0.00000E+00  9.000E+00
      21     1     1     2   511   502  2.546645626E+01  1.955248737E+01  2.937608110E+01  4.351774693E+01  5.840038640E-07  0.00000E+00  9.000E+00
#rwgt            1           1   3.9835653142364418E-002           3       12595           0
</event>
<event>
      5   9999  3.79277E-02  1.12542E+02 -1.00000E+00  1.21563E-01
      21    -1     0     0   502   512  0.000000000E+00  0.000000000E+00  2.406178685E+02  2.406178685E+02  0.000000000E+00  0.00000E+00  9.000E+00
      21    -1     0     0   501   502  0.000000000E+00  0.000000000E+00 -3.449864045E+02  3.449864045E+02  0.000000000E+00  0.00000E+00  9.000E+00
      25     1     1     2     0     0 -3.378841481E+01  6.077255051E+01  8.704456150E+01  1.674416781E+02  1.250000000E+02  0.00000E+00  9.000E+00
      25     1     1     2     0     0 -6.975898228E+00  4.412712666E+01 -2.560254538E+02  2.883919199E+02  1.250000000E+02  0.00000E+00  9.000E+00
      21     1     1     2   501   512  4.076431304E+01 -1.048996772E+02  6.461235642E+01  1.297706750E+02  2.861022949E-06  0.00000E+00  9.000E+00
#rwgt            1           1   3.3030943178691118E-002           3       12806           0
</event>
<event>
      5   9999 -3.79277E-02  1.25615E+02 -1.00000E+00  1.19531E-01
      21    -1     0     0   511   501  0.000000000E+00  0.000000000E+00  3.500745930E+02  3.500745930E+02  0.000000000E+00  0.00000E+00  9.000E+00
      21    -1     0     0   501   502  0.000000000E+00  0.000000000E+00 -4.692398758E+02  4.692398758E+02  0.000000000E+00  0.00000E+00  9.000E+00
      25     1     1     2     0     0  3.994847927E+01 -3.197057148E+02  1.821380938E+01  3.460698888E+02  1.250000000E+02  0.00000E+00  9.000E+00
      25     1     1     2     0     0  7.337266810E+01  2.655071763E+02 -1.650862192E+02  3.446100243E+02  1.250000000E+02  0.00000E+00  9.000E+00
      21     1     1     2   511   502 -1.133211474E+02  5.419853857E+01  2.770712700E+01  1.286345557E+02  2.654916936E-06  0.00000E+00  9.000E+00
#rwgt            1           1  -6.3915064371325297E-002           3       12887           0
</event>
<event>
      5   9999  3.79277E-02  5.98189E+01 -1.00000E+00  1.34774E-01
      21    -1     0     0   512   501  0.000000000E+00  0.000000000E+00  2.902697325E+02  2.902697325E+02  0.000000000E+00  0.00000E+00  9.000E+00
      21    -1     0     0   501   502  0.000000000E+00  0.000000000E+00 -2.492535284E+02  2.492535284E+02  0.000000000E+00  0.00000E+00  9.000E+00
      25     1     1     2     0     0 -1.425553867E+02  1.500122241E+02  9.229112681E+01  2.587824525E+02  1.250000000E+02  0.00000E+00  9.000E+00
      25     1     1     2     0     0  8.463469755E+01 -1.350623738E+02 -7.554309877E+01  2.161865783E+02  1.250000000E+02  0.00000E+00  9.000E+00
      21     1     1     2   512   502  5.792068914E+01 -1.494985026E+01  2.426817604E+01  6.455423008E+01  7.539457465E-07  0.00000E+00  9.000E+00
#rwgt            1           1   4.1870948558931545E-002           3       13080           0
</event>
<event>
      5   9999  3.79277E-02  5.30884E+01 -1.00000E+00  1.37606E-01
      21    -1     0     0   502   501  0.000000000E+00  0.000000000E+00  1.598604620E+01  1.598604620E+01  0.000000000E+00  0.00000E+00  9.000E+00
       2    -1     0     0   501     0  0.000000000E+00  0.000000000E+00 -2.291930519E+03  2.291930519E+03  0.000000000E+00  0.00000E+00  9.000E+00
      25     1     1     2     0     0 -5.807855399E+01 -6.760423862E+01 -6.441811769E+02  6.622218965E+02  1.250000000E+02  0.00000E+00  9.000E+00
      25     1     1     2     0     0  5.603316788E+00  7.564983138E+01 -8.804926656E+02  8.925506306E+02  1.250000000E+02  0.00000E+00  9.000E+00
       2     1     1     2   502     0  5.247523720E+01 -8.045592762E+00 -7.512706305E+02  7.531440383E+02  1.078959322E-05  0.00000E+00  9.000E+00
#rwgt            1           1  0.10877666862410496                3       13313           0
</event>
<event>
      5   9999  3.79277E-02  4.43371E+01 -1.00000E+00  1.42121E-01
      21    -1     0     0   511   501  0.000000000E+00  0.000000000E+00  3.901113133E+02  3.901113133E+02  0.000000000E+00  0.00000E+00  9.000E+00
      21    -1     0     0   501   502  0.000000000E+00  0.000000000E+00 -1.572222531E+02  1.572222531E+02  0.000000000E+00  0.00000E+00  9.000E+00
      25     1     1     2     0     0 -4.376084151E+01  1.589014814E+02  9.720121885E+01  2.285558334E+02  1.250000000E+02  0.00000E+00  9.000E+00
      25     1     1     2     0     0  8.901235142E+00 -1.862983327E+02  6.225104840E+01  2.329946218E+02  1.250000000E+02  0.00000E+00  9.000E+00
      21     1     1     2   511   502  3.485960637E+01  2.739685124E+01  7.343679289E+01  8.578311118E+01  1.348699152E-06  0.00000E+00  9.000E+00
#rwgt            1           1   4.0937483512962981E-002           3       13368           0
</event>
<event>
      5   9999  3.79277E-02  2.75580E+01 -1.00000E+00  1.55646E-01
      21    -1     0     0   502   512  0.000000000E+00  0.000000000E+00  5.477495613E+02  5.477495613E+02  0.000000000E+00  0.00000E+00  9.000E+00
      21    -1     0     0   501   502  0.000000000E+00  0.000000000E+00 -1.970539659E+02  1.970539659E+02  0.000000000E+00  0.00000E+00  9.000E+00
      25     1     1     2     0     0  6.404766803E+01 -2.350332633E+02  1.245878160E+02  3.008153296E+02  1.250000000E+02  0.00000E+00  9.000E+00
      25     1     1     2     0     0 -5.798508867E+01  2.081503982E+02  3.637409608E+01  2.522636193E+02  1.250000000E+02  0.00000E+00  9.000E+00
      21     1     1     2   501   512 -6.062579355E+00  2.688286509E+01  1.897336834E+02  1.917245783E+02  2.697398305E-06  0.00000E+00  9.000E+00
#rwgt            1           1   3.6678702699285873E-002           3       13519           0
</event>
<event>
      5   9999  3.79277E-02  6.46233E+01 -1.00000E+00  1.33003E-01
      21    -1     0     0   511   501  0.000000000E+00  0.000000000E+00  5.409682771E+02  5.409682771E+02  0.000000000E+00  0.00000E+00  9.000E+00
      21    -1     0     0   501   502  0.000000000E+00  0.000000000E+00 -2.772313026E+02  2.772313026E+02  0.000000000E+00  0.00000E+00  9.000E+00
      25     1     1     2     0     0 -1.167131469E+02 -2.600483651E+00 -2.056069286E+02  2.674470607E+02  1.250000000E+02  0.00000E+00  9.000E+00
      25     1     1     2     0     0  6.765147070E+01 -3.946047364E+01  1.058463585E+02  1.815552315E+02  1.250000000E+02  0.00000E+00  9.000E+00
      21     1     1     2   511   502  4.906167623E+01  4.206095729E+01  3.634975446E+02  3.691972876E+02  5.394796609E-06  0.00000E+00  9.000E+00
#rwgt            1           1   4.1356791286370508E-002           3       13670           0
</event>
<event>
      5   9999  3.79277E-02  1.06559E+02 -1.00000E+00  1.22600E-01
       2    -1     0     0   502     0  0.000000000E+00  0.000000000E+00  2.948910840E+03  2.948910840E+03  0.000000000E+00  0.00000E+00  9.000E+00
      21    -1     0     0   501   502  0.000000000E+00  0.000000000E+00 -4.242444850E+01  4.242444850E+01  0.000000000E+00  0.00000E+00  9.000E+00
      25     1     1     2     0     0 -1.397374066E+01 -1.612965054E+02  5.346755682E+02  5.724637904E+02  1.250000000E+02  0.00000E+00  9.000E+00
      25     1     1     2     0     0  6.209990002E+01  6.622410947E+01  2.466329224E+02  2.910237596E+02  1.250000000E+02  0.00000E+00  9.000E+00
       2     1     1     2   501     0 -4.812615936E+01  9.507239594E+01  2.125177901E+03  2.127847739E+03  0.000000000E+00  0.00000E+00  9.000E+00
#rwgt            1           1   4.0148843963122238E-002           3       13816           0
</event>
<event>
      5   9999  3.79277E-02  2.85547E+01 -1.00000E+00  1.54544E-01
      21    -1     0     0   502   511  0.000000000E+00  0.000000000E+00  6.624516888E+02  6.624516888E+02  0.000000000E+00  0.00000E+00  9.000E+00
      21    -1     0     0   501   502  0.000000000E+00  0.000000000E+00 -1.507336191E+02  1.507336191E+02  0.000000000E+00  0.00000E+00  9.000E+00
      25     1     1     2     0     0 -2.485676787E+02  2.496280309E+01  1.320271601E+02  3.089744381E+02  1.250000000E+02  0.00000E+00  9.000E+00
      25     1     1     2     0     0  2.685560015E+02 -4.535491945E+01  3.222026243E+02  4.400215060E+02  1.250000000E+02  0.00000E+00  9.000E+00
      21     1     1     2   501   511 -1.998832282E+01  2.039211636E+01  5.748828542E+01  6.418936376E+01  6.743495762E-07  0.00000E+00  9.000E+00
#rwgt            1           1   3.7737045394944997E-002           3       13859           0
</event>
<event>
      5   9999  3.79277E-02  3.93397E+00 -1.00000E+00  2.65185E-01
      21    -1     0     0   502   501  0.000000000E+00  0.000000000E+00  9.023083976E+02  9.023083976E+02  0.000000000E+00  0.00000E+00  9.000E+00
      21    -1     0     0   501   512  0.000000000E+00  0.000000000E+00 -1.303138470E+02  1.303138470E+02  0.000000000E+00  0.00000E+00  9.000E+00
      25     1     1     2     0     0  2.929376121E+02 -1.173607368E+02  3.625543012E+02  4.966453548E+02  1.250000000E+02  0.00000E+00  9.000E+00
      25     1     1     2     0     0 -2.953444407E+02  1.142489406E+02  4.087860408E+02  5.319888968E+02  1.250000000E+02  0.00000E+00  9.000E+00
      21     1     1     2   502   512  2.406828611E+00  3.111796250E+00  6.542085266E-01  3.987993062E+00  7.337970884E-08  0.00000E+00  9.000E+00
#rwgt            1           1   4.4446848752840044E-002           3       14118           0
</event>
<event>
      5   9999 -3.79277E-02  6.34454E+01 -1.00000E+00  1.33420E-01
      21    -1     0     0   502   501  0.000000000E+00  0.000000000E+00  2.196195317E+03  2.196195317E+03  0.000000000E+00  0.00000E+00  9.000E+00
      21    -1     0     0   501   511  0.000000000E+00  0.000000000E+00 -2.290257066E+02  2.290257066E+02  0.000000000E+00  0.00000E+00  9.000E+00
      25     1     1     2     0     0 -9.746748867E+01  2.187325682E+02  7.048063245E+02  7.547985180E+02  1.250000000E+02  0.00000E+00  9.000E+00
      25     1     1     2     0     0  1.486379143E+02 -1.812238102E+02  1.449077686E+03  1.473223147E+03  1.250000000E+02  0.00000E+00  9.000E+00
      21     1     1     2   502   511 -5.117042564E+01 -3.750875803E+01 -1.867144010E+02  1.971993583E+02  7.136645101E-06  0.00000E+00  9.000E+00
#rwgt            1           1  -5.6289328377304319E-002           3       14683           0
</event>
<event>
      5   9999  3.79277E-02  4.20576E+01 -1.00000E+00  1.43502E-01
      21    -1     0     0   502   501  0.000000000E+00  0.000000000E+00  2.668184486E+02  2.668184486E+02  0.000000000E+00  0.00000E+00  9.000E+00
      21    -1     0     0   501   512  0.000000000E+00  0.000000000E+00 -2.126878336E+02  2.126878336E+02  0.000000000E+00  0.00000E+00  9.000E+00
      25     1     1     2     0     0 -1.108584249E+02  5.738116716E+01 -9.398914337E+01  2.001028430E+02  1.250000000E+02  0.00000E+00  9.000E+00
      25     1     1     2     0     0  9.328681673E+01 -9.559211383E+01  1.510598396E+02  2.372432455E+02  1.250000000E+02  0.00000E+00  9.000E+00
      21     1     1     2   502   512  1.757160816E+01  3.821094667E+01 -2.940081234E+00  4.216019375E+01  4.150983178E-07  0.00000E+00  9.000E+00
#rwgt            1           1   4.1211969872859765E-002           3       14788           0
</event>
<event>
      5   9999  3.79277E-02  3.44294E+01 -1.00000E+00  1.48999E-01
      21    -1     0     0   511   501  0.000000000E+00  0.000000000E+00  1.898025736E+03  1.898025736E+03  0.000000000E+00  0.00000E+00  9.000E+00
      21    -1     0     0   501   502  0.000000000E+00  0.000000000E+00 -5.119999683E+01  5.119999683E+01  0.000000000E+00  0.00000E+00  9.000E+00
      25     1     1     2     0     0 -3.893832110E+01  8.529131912E+01  3.532223991E+02  3.862406830E+02  1.250000000E+02  0.00000E+00  9.000E+00
      25     1     1     2     0     0  6.449793371E+01 -1.083584427E+02  1.942367638E+02  2.631624137E+02  1.250000000E+02  0.00000E+00  9.000E+00
      21     1     1     2   511   502 -2.555961261E+01  2.306712359E+01  1.299366576E+03  1.299822636E+03  1.525878906E-05  0.00000E+00  9.000E+00
#rwgt            1           1   3.9517623342310015E-002           3       14984           0
</event>
<event>
      5   9999  3.79277E-02  8.04918E+01 -1.00000E+00  1.28221E-01
      21    -1     0     0   502   501  0.000000000E+00  0.000000000E+00  3.597584224E+02  3.597584224E+02  0.000000000E+00  0.00000E+00  9.000E+00
       2    -1     0     0   501     0  0.000000000E+00  0.000000000E+00 -1.604272613E+03  1.604272613E+03  0.000000000E+00  0.00000E+00  9.000E+00
      25     1     1     2     0     0 -1.603362635E+02 -1.427300526E+02  2.730904375E+02  3.691652372E+02  1.250000000E+02  0.00000E+00  9.000E+00
      25     1     1     2     0     0  1.252358501E+02  2.151654721E+02 -4.864168424E+02  5.605412947E+02  1.250000000E+02  0.00000E+00  9.000E+00
       2     1     1     2   502     0  3.510041339E+01 -7.243541956E+01 -1.031187785E+03  1.034324503E+03  0.000000000E+00  0.00000E+00  9.000E+00
#rwgt            1           1  0.11840560927374194                3       15083           0
</event>
<event>
      5   9999  3.79277E-02  3.90182E+01 -1.00000E+00  1.45513E-01
      21    -1     0     0   502   511  0.000000000E+00  0.000000000E+00  8.247421088E+01  8.247421088E+01  0.000000000E+00  0.00000E+00  9.000E+00
      21    -1     0     0   501   502  0.000000000E+00  0.000000000E+00 -7.608894298E+02  7.608894298E+02  0.000000000E+00  0.00000E+00  9.000E+00
      25     1     1     2     0     0 -6.542275458E+01  1.261346619E+02 -1.577685171E+02  2.463858655E+02  1.250000000E+02  0.00000E+00  9.000E+00
      25     1     1     2     0     0  8.726108328E+01 -9.380031274E+01 -5.277862762E+02  5.573117159E+02  1.250000000E+02  0.00000E+00  9.000E+00
      21     1     1     2   501   511 -2.183832870E+01 -3.233434918E+01  7.139574337E+00  3.966605928E+01  6.637292341E-07  0.00000E+00  9.000E+00
#rwgt            1           1   3.9058905504128057E-002           3       15232           0
</event>
<event>
      5   9999  3.79277E-02  1.08627E+02 -1.00000E+00  1.22233E-01
      21    -1     0     0   502   501  0.000000000E+00  0.000000000E+00  6.052992956E+02  6.052992956E+02  0.000000000E+00  0.00000E+00  9.000E+00
      21    -1     0     0   501   512  0.000000000E+00  0.000000000E+00 -4.997476447E+02  4.997476447E+02  0.000000000E+00  0.00000E+00  9.000E+00
      25     1     1     2     0     0 -1.759157501E+02 -1.147324354E+02  4.953767976E+02  5.523884995E+02  1.250000000E+02  0.00000E+00  9.000E+00
      25     1     1     2     0     0  1.162308542E+02  2.054929494E+02 -3.420113397E+02  4.339743313E+02  1.250000000E+02  0.00000E+00  9.000E+00
      21     1     1     2   502   512  5.968489584E+01 -9.076051405E+01 -4.781380699E+01  1.186841095E+02  1.784161275E-06  0.00000E+00  9.000E+00
#rwgt            1           1  0.23921310142693872                3       15379           0
</event>
<event>
      5   9999  3.79277E-02  3.23207E+01 -1.00000E+00  1.50826E-01
      -1    -1     0     0     0   501  0.000000000E+00  0.000000000E+00  2.613788631E+03  2.613788631E+03  0.000000000E+00  0.00000E+00  9.000E+00
      21    -1     0     0   501   502  0.000000000E+00  0.000000000E+00 -2.926636987E+01  2.926636987E+01  0.000000000E+00  0.00000E+00  9.000E+00
      25     1     1     2     0     0  5.725683728E+01 -9.452372477E+01  4.234844115E+02  4.551671415E+02  1.250000000E+02  0.00000E+00  9.000E+00
      25     1     1     2     0     0 -7.728918468E+01  6.915973205E+01  4.837737889E+02  5.103124194E+02  1.250000000E+02  0.00000E+00  9.000E+00
      -1     1     1     2     0   502  2.003234740E+01  2.536399272E+01  1.677264061E+03  1.677575440E+03  3.051757812E-05  0.00000E+00  9.000E+00
#rwgt            1           1   4.0273003420441850E-002           3       15697           0
</event>
<event>
      5   9999 -3.79277E-02  2.23990E+01 -1.00000E+00  1.62409E-01
      21    -1     0     0   502   501  0.000000000E+00  0.000000000E+00  2.822968209E+02  2.822968209E+02  0.000000000E+00  0.00000E+00  9.000E+00
      21    -1     0     0   511   502  0.000000000E+00  0.000000000E+00 -1.718717278E+02  1.718717278E+02  0.000000000E+00  0.00000E+00  9.000E+00
      25     1     1     2     0     0  5.198985127E+01 -9.382536018E+01  1.758896747E+02  2.409736925E+02  1.250000000E+02  0.00000E+00  9.000E+00
      25     1     1     2     0     0 -5.377505989E+01  1.161531317E+02 -6.625292336E+01  1.907819618E+02  1.250000000E+02  0.00000E+00  9.000E+00
      21     1     1     2   511   501  1.785208626E+00 -2.232777155E+01  7.883418253E-01  2.241289439E+01  3.071953077E-07  0.00000E+00  9.000E+00
#rwgt            1           1  -4.3229539526262621E-002           3       15839           0
</event>
<event>
      5   9999  3.79277E-02  2.93896E+01 -1.00000E+00  1.53662E-01
       2    -1     0     0   502     0  0.000000000E+00  0.000000000E+00  1.121433654E+03  1.121433654E+03  0.000000000E+00  0.00000E+00  9.000E+00
      21    -1     0     0   501   502  0.000000000E+00  0.000000000E+00 -4.550434019E+02  4.550434019E+02  0.000000000E+00  0.00000E+00  9.000E+00
      25     1     1     2     0     0  1.732421005E+02  3.255976589E+01 -1.464480313E+02  2.610459531E+02  1.250000000E+02  0.00000E+00  9.000E+00
      25     1     1     2     0     0 -1.505597210E+02 -5.124825018E+01 -2.103426852E+02  2.918281308E+02  1.250000000E+02  0.00000E+00  9.000E+00
       2     1     1     2   501     0 -2.268237949E+01  1.868848429E+01  1.023180968E+03  1.023602972E+03  1.078959322E-05  0.00000E+00  9.000E+00
#rwgt            1           1   4.7275041028747133E-002           3       16043           0
</event>
<event>
      5   9999  3.79277E-02  1.59981E+02 -1.00000E+00  1.15295E-01
      21    -1     0     0   502   501  0.000000000E+00  0.000000000E+00  1.699927072E+02  1.699927072E+02  0.000000000E+00  0.00000E+00  9.000E+00
      21    -1     0     0   511   502  0.000000000E+00  0.000000000E+00 -5.118451983E+02  5.118451983E+02  0.000000000E+00  0.00000E+00  9.000E+00
      25     1     1     2     0     0 -5.643774920E+01 -5.267248216E+00  7.212872586E+01  1.550500453E+02  1.250000000E+02  0.00000E+00  9.000E+00
      25     1     1     2     0     0 -9.893883193E+01 -3.283891685E+01 -2.445389421E+02  2.937542870E+02  1.250000000E+02  0.00000E+00  9.000E+00
      21     1     1     2   511   501  1.553765811E+02  3.810616507E+01 -1.694422748E+02  2.330335733E+02  1.907348633E-06  0.00000E+00  9.000E+00
#rwgt            1           1   3.9603530159396327E-002           3       16180           0
</event>
<event>
      5   9999  3.79277E-02  1.02160E+02 -1.00000E+00  1.23412E-01
      21    -1     0     0   502   512  0.000000000E+00  0.000000000E+00  9.442504365E+02  9.442504365E+02  0.000000000E+00  0.00000E+00  9.000E+00
      21    -1     0     0   501   502  0.000000000E+00  0.000000000E+00 -6.784951691E+01  6.784951691E+01  0.000000000E+00  0.00000E+00  9.000E+00
      25     1     1     2     0     0  1.534851932E+02  1.027844947E+02  4.149894931E+02  4.711301691E+02  1.250000000E+02  0.00000E+00  9.000E+00
      25     1     1     2     0     0 -1.293758973E+02 -3.509760622E+00  2.821022142E+02  3.345999110E+02  1.250000000E+02  0.00000E+00  9.000E+00
      21     1     1     2   501   512 -2.410929583E+01 -9.927473404E+01  1.793092124E+02  2.063698733E+02  3.303624740E-06  0.00000E+00  9.000E+00
#rwgt            1           1   3.7194129957949518E-002           3       16241           0
</event>
<event>
      5   9999  3.79277E-02  1.74421E+02 -1.00000E+00  1.13855E-01
      21    -1     0     0   502   511  0.000000000E+00  0.000000000E+00  1.465077419E+03  1.465077419E+03  0.000000000E+00  0.00000E+00  9.000E+00
      21    -1     0     0   501   502  0.000000000E+00  0.000000000E+00 -1.161671640E+02  1.161671640E+02  0.000000000E+00  0.00000E+00  9.000E+00
      25     1     1     2     0     0  5.709084399E+01  1.239311277E+02  1.039130323E+02  2.122291384E+02  1.250000000E+02  0.00000E+00  9.000E+00
      25     1     1     2     0     0 -2.267998337E+02 -8.366129933E+01  2.879500147E+02  3.962039734E+02  1.250000000E+02  0.00000E+00  9.000E+00
      21     1     1     2   501   511  1.697089897E+02 -4.026982836E+01  9.570472083E+02  9.728114715E+02  0.000000000E+00  0.00000E+00  9.000E+00
#rwgt            2          11   1.0473938467719616E-003           3       16325           0
</event>
<event>
      5   9999  3.79277E-02  2.39742E+01 -1.00000E+00  1.60126E-01
       1    -1     0     0   502     0  0.000000000E+00  0.000000000E+00  3.965783851E+02  3.965783851E+02  0.000000000E+00  0.00000E+00  9.000E+00
      21    -1     0     0   501   502  0.000000000E+00  0.000000000E+00 -2.484349521E+02  2.484349521E+02  0.000000000E+00  0.00000E+00  9.000E+00
      25     1     1     2     0     0  4.776631261E+01  4.060310335E+01 -1.346548324E+02  1.941318019E+02  1.250000000E+02  0.00000E+00  9.000E+00
      25     1     1     2     0     0 -3.848205816E+01 -6.270658672E+01 -2.063271251E+01  1.465049270E+02  1.250000000E+02  0.00000E+00  9.000E+00
       1     1     1     2   501     0 -9.284254445E+00  2.210348337E+01  3.034309779E+02  3.043766084E+02  3.814697266E-06  0.00000E+00  9.000E+00
#rwgt            1           1   5.2202977871370626E-002           3       16480           0
</event>
<event>
      5   9999  3.79277E-02  1.18395E+02 -1.00000E+00  1.20617E-01
      21    -1     0     0   502   501  0.000000000E+00  0.000000000E+00  1.204774292E+03  1.204774292E+03  0.000000000E+00  0.00000E+00  9.000E+00
      21    -1     0     0   501   511  0.000000000E+00  0.000000000E+00 -2.185864515E+02  2.185864515E+02  0.000000000E+00  0.00000E+00  9.000E+00
      25     1     1     2     0     0  1.230006647E+02  5.565287063E+01  4.088415249E+02  4.483333559E+02  1.250000000E+02  0.00000E+00  9.000E+00
      25     1     1     2     0     0 -1.642890850E+02  5.530925172E+01  7.420346585E+02  7.721984532E+02  1.250000000E+02  0.00000E+00  9.000E+00
      21     1     1     2   502   511  4.128842025E+01 -1.109621223E+02 -1.646883430E+02  2.028289342E+02  5.046370146E-06  0.00000E+00  9.000E+00
#rwgt            1           1   4.0884836017293556E-002           3       16696           0
</event>
<event>
      5   9999  3.79277E-02  3.10721E+01 -1.00000E+00  1.51988E-01
      21    -1     0     0   502   501  0.000000000E+00  0.000000000E+00  1.535575640E+03  1.535575640E+03  0.000000000E+00  0.00000E+00  9.000E+00
       2    -1     0     0   501     0  0.000000000E+00  0.000000000E+00 -6.467503918E+01  6.467503918E+01  0.000000000E+00  0.00000E+00  9.000E+00
      25     1     1     2     0     0 -9.838946924E+01  7.486800231E+01  8.293717119E+02  8.478019474E+02  1.250000000E+02  0.00000E+00  9.000E+00
      25     1     1     2     0     0  1.291381646E+02 -7.039648409E+01  6.777650668E+02  7.047147056E+02  1.250000000E+02  0.00000E+00  9.000E+00
       2     1     1     2   502     0 -3.074869538E+01 -4.471518221E+00 -3.623617746E+01  4.773402664E+01  2.185142372E-06  0.00000E+00  9.000E+00
#rwgt            1           1   4.0741315511998333E-002           3       16833           0
</event>
<event>
      5   9999  3.79277E-02  4.83946E+01 -1.00000E+00  1.39889E-01
      21    -1     0     0   502   501  0.000000000E+00  0.000000000E+00  6.067688943E+02  6.067688943E+02  0.000000000E+00  0.00000E+00  9.000E+00
       3    -1     0     0   501     0  0.000000000E+00  0.000000000E+00 -4.253405682E+02  4.253405682E+02  0.000000000E+00  0.00000E+00  9.000E+00
      25     1     1     2     0     0 -3.010087094E+02 -1.044180550E+02  1.333227024E+02  3.673000358E+02  1.250000000E+02  0.00000E+00  9.000E+00
      25     1     1     2     0     0  2.791825093E+02  1.476112646E+02  2.723813646E+02  4.353717569E+02  1.250000000E+02  0.00000E+00  9.000E+00
       3     1     1     2   502     0  2.182620013E+01 -4.319320960E+01 -2.242757409E+02  2.294376698E+02  2.697398305E-06  0.00000E+00  9.000E+00
#rwgt            1           1   3.1788757534879461E-002           3       16951           0
</event>
<event>
      5   9999  3.79277E-02  6.30726E+01 -1.00000E+00  1.33554E-01
      21    -1     0     0   502   511  0.000000000E+00  0.000000000E+00  1.166306481E+02  1.166306481E+02  0.000000000E+00  0.00000E+00  9.000E+00
      21    -1     0     0   501   502  0.000000000E+00  0.000000000E+00 -3.900606994E+02  3.900606994E+02  0.000000000E+00  0.00000E+00  9.000E+00
      25     1     1     2     0     0 -6.012687201E+01  1.393282202E+02 -1.100274615E+02  2.252967731E+02  1.250000000E+02  0.00000E+00  9.000E+00
      25     1     1     2     0     0  4.105598516E+01 -7.920784523E+01 -1.542455673E+02  2.176606802E+02  1.250000000E+02  0.00000E+00  9.000E+00
      21     1     1     2   501   511  1.907088684E+01 -6.012037495E+01 -9.157022535E+00  6.373389421E+01  1.261592536E-06  0.00000E+00  9.000E+00
#rwgt            1           1   4.9422263841429642E-002           3       17147           0
</event>
<event>
      5   9999  3.79277E-02  1.53012E+01 -1.00000E+00  1.76574E-01
      21    -1     0     0   512   501  0.000000000E+00  0.000000000E+00  4.376759638E+02  4.376759638E+02  0.000000000E+00  0.00000E+00  9.000E+00
      21    -1     0     0   501   502  0.000000000E+00  0.000000000E+00 -1.855529935E+02  1.855529935E+02  0.000000000E+00  0.00000E+00  9.000E+00
      25     1     1     2     0     0  1.966176711E+02  8.042990840E+01  2.760515088E+02  3.700769031E+02  1.250000000E+02  0.00000E+00  9.000E+00
      25     1     1     2     0     0 -1.820703150E+02 -7.568631351E+01 -3.234503225E+01  2.356888176E+02  1.250000000E+02  0.00000E+00  9.000E+00
      21     1     1     2   512   502 -1.454735610E+01 -4.743594890E+00  8.416493844E+00  1.746323655E+01  3.371747881E-07  0.00000E+00  9.000E+00
#rwgt            1           1   4.1603537723457505E-002           3       17239           0
</event>
<event>
      5   9999  3.79277E-02  1.23005E+01 -1.00000E+00  1.85906E-01
      21    -1     0     0   502   501  0.000000000E+00  0.000000000E+00  1.726794151E+03  1.726794151E+03  0.000000000E+00  0.00000E+00  9.000E+00
      21    -1     0     0   501   511  0.000000000E+00  0.000000000E+00 -4.386029994E+01  4.386029994E+01  0.000000000E+00  0.00000E+00  9.000E+00
      25     1     1     2     0     0  9.245651156E+01 -1.751954520E+02  4.141885016E+02  4.758348115E+02  1.250000000E+02  0.00000E+00  9.000E+00
      25     1     1     2     0     0 -8.757806324E+01  1.864871246E+02  1.244672598E+03  1.267786355E+03  1.250000000E+02  0.00000E+00  9.000E+00
      21     1     1     2   502   511 -4.878448318E+00 -1.129167259E+01  2.407275165E+01  2.703328503E+01  4.768371582E-07  0.00000E+00  9.000E+00
#rwgt            1           1   4.6221754888305440E-002           3       17613           0
</event>
<event>
      5   9999  3.79277E-02  1.72914E+01 -1.00000E+00  1.71758E-01
      21    -1     0     0   502   501  0.000000000E+00  0.000000000E+00  1.026058505E+03  1.026058505E+03  0.000000000E+00  0.00000E+00  9.000E+00
      21    -1     0     0   512   502  0.000000000E+00  0.000000000E+00 -9.810406352E+01  9.810406352E+01  0.000000000E+00  0.00000E+00  9.000E+00
      25     1     1     2     0     0  6.525550229E+01  7.217610913E+01  1.307848913E+02  2.054199579E+02  1.250000000E+02  0.00000E+00  9.000E+00
      25     1     1     2     0     0 -4.916515182E+01 -6.584428864E+01  8.500472520E+02  8.631095024E+02  1.250000000E+02  0.00000E+00  9.000E+00
      21     1     1     2   512   501 -1.609035047E+01 -6.331820481E+00 -5.287770206E+01  5.563310798E+01  3.090257978E-06  0.00000E+00  9.000E+00
#rwgt            1           1   4.9470129115130324E-002           3       17955           0
</event>
<event>
      5   9999  3.79277E-02  3.77999E+01 -1.00000E+00  1.46381E-01
      21    -1     0     0   502   511  0.000000000E+00  0.000000000E+00  3.043443017E+02  3.043443017E+02  0.000000000E+00  0.00000E+00  9.000E+00
      21    -1     0     0   501   502  0.000000000E+00  0.000000000E+00 -4.081576038E+02  4.081576038E+02  0.000000000E+00  0.00000E+00  9.000E+00
      25     1     1     2     0     0  1.176172177E+02 -3.539781675E+01 -3.419249424E+02  3.842193145E+02  1.250000000E+02  0.00000E+00  9.000E+00
      25     1     1     2     0     0 -1.093892168E+02  7.229133366E+01  1.608067056E+02  2.422309523E+02  1.250000000E+02  0.00000E+00  9.000E+00
      21     1     1     2   501   511 -8.228000862E+00 -3.689351691E+01  7.730493471E+01  8.605163868E+01  1.348699152E-06  0.00000E+00  9.000E+00
#rwgt            1           1   4.3184002292732525E-002           3       18124           0
</event>
<event>
      5   9999  3.79277E-02  4.15639E+01 -1.00000E+00  1.43815E-01
      21    -1     0     0   502   501  0.000000000E+00  0.000000000E+00  7.363890425E+01  7.363890425E+01  0.000000000E+00  0.00000E+00  9.000E+00
      21    -1     0     0   512   502  0.000000000E+00  0.000000000E+00 -2.092198616E+03  2.092198616E+03  0.000000000E+00  0.00000E+00  9.000E+00
      25     1     1     2     0     0  6.294989611E+00  2.316435323E+02 -1.407842308E+03  1.432251136E+03  1.250000000E+02  0.00000E+00  9.000E+00
      25     1     1     2     0     0 -2.564837925E+01 -2.684267361E+02 -3.079613288E+02  4.279905747E+02  1.250000000E+02  0.00000E+00  9.000E+00
      21     1     1     2   512   501  1.935338964E+01  3.678320381E+01 -3.027560758E+02  3.055958102E+02  3.814697266E-06  0.00000E+00  9.000E+00
#rwgt            1           1   3.6090690826955228E-002           3       18243           0
</event>
<event>
      5   9999  3.79277E-02  4.29523E+01 -1.00000E+00  1.42948E-01
      21    -1     0     0   502   501  0.000000000E+00  0.000000000E+00  1.739796919E+02  1.739796919E+02  0.000000000E+00  0.00000E+00  9.000E+00
      21    -1     0     0   511   502  0.000000000E+00  0.000000000E+00 -3.282664553E+02  3.282664553E+02  0.000000000E+00  0.00000E+00  9.000E+00
      25     1     1     2     0     0 -5.155715657E+00 -1.185755958E+02 -1.855884169E+02  2.532880057E+02  1.250000000E+02  0.00000E+00  9.000E+00
      25     1     1     2     0     0 -2.761909113E+01  1.463372641E+02  5.202419040E+01  2.012682922E+02  1.250000000E+02  0.00000E+00  9.000E+00
      21     1     1     2   511   501  3.277480679E+01 -2.776166830E+01 -2.072253693E+01  4.768984927E+01  7.152557373E-07  0.00000E+00  9.000E+00
#rwgt            1           1   3.5126793222574372E-002           3       18453           0
</event>
<event>
      5   9999  3.79277E-02  1.53653E+02 -1.00000E+00  1.15981E-01
      21    -1     0     0   502   501  0.000000000E+00  0.000000000E+00  5.746000071E+02  5.746000071E+02  0.000000000E+00  0.00000E+00  9.000E+00
      21    -1     0     0   501   512  0.000000000E+00  0.000000000E+00 -4.324265109E+02  4.324265109E+02  0.000000000E+00  0.00000E+00  9.000E+00
      25     1     1     2     0     0 -4.327440623E+01 -3.077467469E+02  4.166748196E+02  5.346247653E+02  1.250000000E+02  0.00000E+00  9.000E+00
      25     1     1     2     0     0  1.012937321E+02  1.654690584E+02 -1.625493857E+02  2.822901562E+02  1.250000000E+02  0.00000E+00  9.000E+00
      21     1     1     2   502   512 -5.801932588E+01  1.422776884E+02 -1.119519376E+02  1.901115965E+02  1.348699152E-06  0.00000E+00  9.000E+00
#rwgt            1           1   3.7956526327428387E-002           3       18653           0
</event>
<event>
      5   9999  3.79277E-02  1.29917E+02 -1.00000E+00  1.18923E-01
      21    -1     0     0   502   501  0.000000000E+00  0.000000000E+00  1.056774393E+03  1.056774393E+03  0.000000000E+00  0.00000E+00  9.000E+00
       1    -1     0     0   501     0  0.000000000E+00  0.000000000E+00 -1.188024539E+03  1.188024539E+03  0.000000000E+00  0.00000E+00  9.000E+00
      25     1     1     2     0     0 -6.643664474E+01  2.951287812E+02  5.979843407E+02  6.817074863E+02  1.250000000E+02  0.00000E+00  9.000E+00
      25     1     1     2     0     0 -3.918639824E+01 -3.707733190E+02  3.192975214E+02  5.065415433E+02  1.250000000E+02  0.00000E+00  9.000E+00
       1     1     1     2   502     0  1.056230430E+02  7.564453787E+01 -1.048532008E+03  1.056549902E+03  1.525878906E-05  0.00000E+00  9.000E+00
#rwgt            1           1   3.6355078782279171E-002           3       18729           0
</event>
<event>
      5   9999  5.00407E-02  9.50340E+00 -1.00000E+00  1.98350E-01
      21    -1     0     0   502   501  0.000000000E+00  0.000000000E+00  1.119750538E+03  1.119750538E+03  0.000000000E+00  0.00000E+00  9.000E+00
      21    -1     0     0   501   511  0.000000000E+00  0.000000000E+00 -7.295129917E+01  7.295129917E+01  0.000000000E+00  0.00000E+00  9.000E+00
      25     1     1     2     0     0  1.217900945E+02 -1.723711934E+02  5.232920934E+02  5.779310257E+02  1.250000000E+02  0.00000E+00  9.000E+00
      25     1     1     2     0     0 -1.312805435E+02  1.728672116E+02  5.402641700E+02  5.955065300E+02  1.250000000E+02  0.00000E+00  9.000E+00
      21     1     1     2   502   511  9.490449032E+00 -4.960181664E-01 -1.675702469E+01  1.926428128E+01  9.233911863E-07  0.00000E+00  9.000E+00
#rwgt            1           1  0.67554181361114896                3       18830           0
</event>
<event>
      5   9999  3.79277E-02  3.69704E+01 -1.00000E+00  1.46994E-01
      21    -1     0     0   502   501  0.000000000E+00  0.000000000E+00  5.523125060E+02  5.523125060E+02  0.000000000E+00  0.00000E+00  9.000E+00
      21    -1     0     0   501   512  0.000000000E+00  0.000000000E+00 -2.554708358E+02  2.554708358E+02  0.000000000E+00  0.00000E+00  9.000E+00
      25     1     1     2     0     0  2.515251299E+01 -1.312284089E+02  1.880601689E+02  2.623836339E+02  1.250000000E+02  0.00000E+00  9.000E+00
      25     1     1     2     0     0 -3.929404626E+01  1.653872452E+02  2.910114143E+02  3.594573774E+02  1.250000000E+02  0.00000E+00  9.000E+00
      21     1     1     2   502   512  1.414153327E+01 -3.415883623E+01 -1.822299130E+02  1.859423305E+02  3.814697266E-06  0.00000E+00  9.000E+00
#rwgt            1           1   4.0373811796258319E-002           3       19038           0
</event>
<event>
      5   9999  3.79277E-02  9.30084E+01 -1.00000E+00  1.25260E-01
      21    -1     0     0   502   511  0.000000000E+00  0.000000000E+00  1.583372745E+02  1.583372745E+02  0.000000000E+00  0.00000E+00  9.000E+00
      21    -1     0     0   501   502  0.000000000E+00  0.000000000E+00 -1.207722783E+03  1.207722783E+03  0.000000000E+00  0.00000E+00  9.000E+00
      25     1     1     2     0     0  8.512997915E+00  1.073799917E+02 -7.097842293E+02  7.287122792E+02  1.250000000E+02  0.00000E+00  9.000E+00
      25     1     1     2     0     0 -3.968027314E+01 -1.950108001E+02 -4.410269115E+02  4.997334018E+02  1.250000000E+02  0.00000E+00  9.000E+00
      21     1     1     2   501   511  3.116727522E+01  8.763080834E+01  1.014256325E+02  1.376143762E+02  2.697398305E-06  0.00000E+00  9.000E+00
#rwgt            1           1   3.2179514072632219E-002           3       19210           0
</event>
<event>
      5   9999  3.79277E-02  1.39715E+02 -1.00000E+00  1.17629E-01
      21    -1     0     0   502   501  0.000000000E+00  0.000000000E+00  1.059390273E+03  1.059390273E+03  0.000000000E+00  0.00000E+00  9.000E+00
      21    -1     0     0   501   512  0.000000000E+00  0.000000000E+00 -6.530395514E+01  6.530395514E+01  0.000000000E+00  0.00000E+00  9.000E+00
      25     1     1     2     0     0 -2.834295713E+01 -4.659717678E+01  1.609692183E+02  2.109756132E+02  1.250000000E+02  0.00000E+00  9.000E+00
      25     1     1     2     0     0  3.293911464E+01  1.862361356E+02  6.066130404E+02  6.475903522E+02  1.250000000E+02  0.00000E+00  9.000E+00
      21     1     1     2   502   512 -4.596157508E+00 -1.396389588E+02  2.265040596E+02  2.661282632E+02  0.000000000E+00  0.00000E+00  9.000E+00
#rwgt            1           1   4.2943955271919319E-002           3       19282           0
</event>
<event>
      5   9999  3.79277E-02  1.88529E+01 -1.00000E+00  1.68514E-01
      21    -1     0     0   502   501  0.000000000E+00  0.000000000E+00  2.244394966E+02  2.244394966E+02  0.000000000E+00  0.00000E+00  9.000E+00
      21    -1     0     0   511   502  0.000000000E+00  0.000000000E+00 -1.205233412E+02  1.205233412E+02  0.000000000E+00  0.00000E+00  9.000E+00
      25     1     1     2     0     0  4.455644279E+01 -4.168930538E+01  1.297464484E+02  1.902167597E+02  1.250000000E+02  0.00000E+00  9.000E+00
      25     1     1     2     0     0 -3.017138798E+01  2.950309017E+01 -1.443821593E+01  1.327185257E+02  1.250000000E+02  0.00000E+00  9.000E+00
      21     1     1     2   511   501 -1.438505482E+01  1.218621521E+01 -1.139207709E+01  2.202755237E+01  2.920019320E-07  0.00000E+00  9.000E+00
#rwgt            1           1   5.9194088868756753E-002           3       19322           0
</event>
<event>
      5   9999  3.79277E-02  6.07569E+01 -1.00000E+00  1.34413E-01
       2    -1     0     0   502     0  0.000000000E+00  0.000000000E+00  3.033018853E+02  3.033018853E+02  0.000000000E+00  0.00000E+00  9.000E+00
      21    -1     0     0   501   502  0.000000000E+00  0.000000000E+00 -2.228929445E+03  2.228929445E+03  0.000000000E+00  0.00000E+00  9.000E+00
      25     1     1     2     0     0  1.000138798E+02 -1.606884958E+01 -8.526485052E+02  8.676954867E+02  1.250000000E+02  0.00000E+00  9.000E+00
      25     1     1     2     0     0 -5.450945907E+01  5.632733743E+01 -1.361609496E+03  1.369580034E+03  1.250000000E+02  0.00000E+00  9.000E+00
       2     1     1     2   501     0 -4.550442076E+01 -4.025848785E+01  2.886304413E+02  2.949558099E+02  7.629394531E-06  0.00000E+00  9.000E+00
#rwgt            1           1   7.1081364600447575E-002           3       19479           0
</event>
<event>
      5   9999  3.79277E-02  3.56358E+02 -1.00000E+00  1.03218E-01
      21    -1     0     0   502   501  0.000000000E+00  0.000000000E+00  5.148362288E+02  5.148362288E+02  0.000000000E+00  0.00000E+00  9.000E+00
      21    -1     0     0   501   511  0.000000000E+00  0.000000000E+00 -6.189176034E+02  6.189176034E+02  0.000000000E+00  0.00000E+00  9.000E+00
      25     1     1     2     0     0 -8.100495528E+01 -3.776875318E+01  8.978827310E+01  1.779753227E+02  1.250000000E+02  0.00000E+00  9.000E+00
      25     1     1     2     0     0 -9.528881796E+01  3.474647894E+02  1.949977508E+02  4.283233143E+02  1.250000000E+02  0.00000E+00  9.000E+00
      21     1     1     2   502   511  1.762937732E+02 -3.096960362E+02 -3.888673985E+02  5.274551952E+02  0.000000000E+00  0.00000E+00  9.000E+00
#rwgt            1           1   3.2360670445489022E-002           3       19613           0
</event>
<event>
      5   9999  3.79277E-02  4.18103E+01 -1.00000E+00  1.43658E-01
      21    -1     0     0   502   501  0.000000000E+00  0.000000000E+00  1.093830388E+02  1.093830388E+02  0.000000000E+00  0.00000E+00  9.000E+00
      21    -1     0     0   512   502  0.000000000E+00  0.000000000E+00 -3.800064209E+02  3.800064209E+02  0.000000000E+00  0.00000E+00  9.000E+00
      25     1     1     2     0     0 -1.055225646E+02  3.005042019E+01 -4.316341132E+01  1.718316603E+02  1.250000000E+02  0.00000E+00  9.000E+00
      25     1     1     2     0     0  1.055116400E+02 -7.186068279E+01 -1.710759667E+02  2.473633972E+02  1.250000000E+02  0.00000E+00  9.000E+00
      21     1     1     2   512   501  1.092462010E-02  4.181026260E+01 -5.638400410E+01  7.019440218E+01  9.536743164E-07  0.00000E+00  9.000E+00
#rwgt            1           1   8.9102103268058758E-002           3       19747           0
</event>
<event>
      5   9999  3.79277E-02  4.87965E+01 -1.00000E+00  1.39682E-01
      21    -1     0     0   511   501  0.000000000E+00  0.000000000E+00  7.381308266E+01  7.381308266E+01  0.000000000E+00  0.00000E+00  9.000E+00
      21    -1     0     0   501   502  0.000000000E+00  0.000000000E+00 -7.373329222E+02  7.373329222E+02  0.000000000E+00  0.00000E+00  9.000E+00
      25     1     1     2     0     0 -2.187824771E+01  8.081331042E+01 -5.885679729E+02  6.074921461E+02  1.250000000E+02  0.00000E+00  9.000E+00
      25     1     1     2     0     0  3.152275644E+01 -3.297939604E+01 -2.808662296E+01  1.359969968E+02  1.250000000E+02  0.00000E+00  9.000E+00
      21     1     1     2   511   502 -9.644508738E+00 -4.783391438E+01 -4.686524375E+01  6.765686207E+01  9.536743164E-07  0.00000E+00  9.000E+00
#rwgt            1           1   4.5835472136433866E-002           3       19947           0
</event>
<event>
      5   9999  3.79277E-02  3.86181E+01 -1.00000E+00  1.45793E-01
      21    -1     0     0   512   501  0.000000000E+00  0.000000000E+00  1.198237201E+02  1.198237201E+02  0.000000000E+00  0.00000E+00  9.000E+00
      21    -1     0     0   501   502  0.000000000E+00  0.000000000E+00 -1.498586463E+03  1.498586463E+03  0.000000000E+00  0.00000E+00  9.000E+00
      25     1     1     2     0     0 -5.543895751E+01 -6.248716729E+01 -1.159006028E+03  1.168716431E+03  1.250000000E+02  0.00000E+00  9.000E+00
      25     1     1     2     0     0  5.621414148E+01  2.387680109E+01 -3.163915998E+02  3.456280888E+02  1.250000000E+02  0.00000E+00  9.000E+00
      21     1     1     2   512   502 -7.751839722E-01  3.861036620E+01  9.663488471E+01  1.040656631E+02  1.907348633E-06  0.00000E+00  9.000E+00
#rwgt            1           1   3.8634488255452799E-002           3       20037           0
</event>
<event>
      5   9999  3.79277E-02  1.32611E+02 -1.00000E+00  1.18555E-01
      21    -1     0     0   502   501  0.000000000E+00  0.000000000E+00  4.042189783E+02  4.042189783E+02  0.000000000E+00  0.00000E+00  9.000E+00
      21    -1     0     0   501   511  0.000000000E+00  0.000000000E+00 -2.901287172E+02  2.901287172E+02  0.000000000E+00  0.00000E+00  9.000E+00
      25     1     1     2     0     0  1.484786620E+02 -9.158282692E+01  2.637127477E+02  3.400040302E+02  1.250000000E+02  0.00000E+00  9.000E+00
      25     1     1     2     0     0 -1.995215012E+01  5.892205363E+01 -1.702023985E+02  2.201448458E+02  1.250000000E+02  0.00000E+00  9.000E+00
      21     1     1     2   502   511 -1.285265119E+02  3.266077329E+01  2.057991195E+01  1.341988195E+02  2.861022949E-06  0.00000E+00  9.000E+00
#rwgt            1           1   4.5000653633179941E-002           3       20173           0
</event>
<event>
      5   9999 -3.79277E-02  1.94360E+02 -1.00000E+00  1.12102E-01
      21    -1     0     0   502   501  0.000000000E+00  0.000000000E+00  3.097555509E+02  3.097555509E+02  0.000000000E+00  0.00000E+00  9.000E+00
      21    -1     0     0   501   512  0.000000000E+00  0.000000000E+00 -4.627444299E+02  4.627444299E+02  0.000000000E+00  0.00000E+00  9.000E+00
      25     1     1     2     0     0  2.911202478E+01 -2.407330777E+02 -7.159578714E+01  2.820476581E+02  1.250000000E+02  0.00000E+00  9.000E+00
      25     1     1     2     0     0  1.614567256E+02  2.025312958E+02 -2.839236179E+01  2.889953741E+02  1.250000000E+02  0.00000E+00  9.000E+00
      21     1     1     2   502   512 -1.905687504E+02  3.820178189E+01 -5.300073012E+01  2.014569487E+02  2.861022949E-06  0.00000E+00  9.000E+00
#rwgt            1           1  -7.4588874176074682E-002           3       20329           0
</event>
<event>
      5   9999  3.79277E-02  1.40970E+02 -1.00000E+00  1.17472E-01
      21    -1     0     0   502   501  0.000000000E+00  0.000000000E+00  6.706130556E+02  6.706130556E+02  0.000000000E+00  0.00000E+00  9.000E+00
      21    -1     0     0   501   511  0.000000000E+00  0.000000000E+00 -1.327344666E+02  1.327344666E+02  0.000000000E+00  0.00000E+00  9.000E+00
      25     1     1     2     0     0  7.520125988E+01  1.263786599E+02  2.716874944E+02  3.332654944E+02  1.250000000E+02  0.00000E+00  9.000E+00
      25     1     1     2     0     0  4.142320166E+01 -2.055693083E+02  1.932458187E+02  3.113576217E+02  1.250000000E+02  0.00000E+00  9.000E+00
      21     1     1     2   502   511 -1.166244615E+02  7.919064839E+01  7.294527601E+01  1.587244062E+02  0.000000000E+00  0.00000E+00  9.000E+00
#rwgt            1           1   4.0741418341425216E-002           3       20376           0
</event>
<event>
      5   9999  3.79277E-02  1.43374E+02 -1.00000E+00  1.17177E-01
      21    -1     0     0   502   512  0.000000000E+00  0.000000000E+00  2.118326117E+03  2.118326117E+03  0.000000000E+00  0.00000E+00  9.000E+00
      21    -1     0     0   501   502  0.000000000E+00  0.000000000E+00 -1.752388081E+02  1.752388081E+02  0.000000000E+00  0.00000E+00  9.000E+00
      25     1     1     2     0     0 -3.555815724E+02  1.419099542E+02  1.522501977E+03  1.574869506E+03  1.250000000E+02  0.00000E+00  9.000E+00
      25     1     1     2     0     0  3.233478729E+02 -2.206390463E+00  8.971309088E+01  3.580951742E+02  1.250000000E+02  0.00000E+00  9.000E+00
      21     1     1     2   501   512  3.223369951E+01 -1.397035637E+02  3.308722407E+02  3.606002451E+02  3.814697266E-06  0.00000E+00  9.000E+00
#rwgt            2          11   1.0307195257749830E-002           3       20548           0
</event>
<event>
      5   9999  3.79277E-02  3.44126E+01 -1.00000E+00  1.49013E-01
      21    -1     0     0   502   501  0.000000000E+00  0.000000000E+00  1.704671127E+02  1.704671127E+02  0.000000000E+00  0.00000E+00  9.000E+00
      21    -1     0     0   511   502  0.000000000E+00  0.000000000E+00 -6.643735939E+02  6.643735939E+02  0.000000000E+00  0.00000E+00  9.000E+00
      25     1     1     2     0     0  1.111037295E+02 -1.685284878E+02 -1.202497228E+01  2.377298674E+02  1.250000000E+02  0.00000E+00  9.000E+00
      25     1     1     2     0     0 -1.424940530E+02  1.544263177E+02 -2.077799171E+02  3.208575021E+02  1.250000000E+02  0.00000E+00  9.000E+00
      21     1     1     2   511   501  3.139032345E+01  1.410217006E+01 -2.741015919E+02  2.762533371E+02  0.000000000E+00  0.00000E+00  9.000E+00
#rwgt            1           1   3.0756842137719953E-002           3       20658           0
</event>
<event>
      5   9999  3.79277E-02  8.11449E+01 -1.00000E+00  1.28051E-01
      21    -1     0     0   502   501  0.000000000E+00  0.000000000E+00  3.783212204E+02  3.783212204E+02  0.000000000E+00  0.00000E+00  9.000E+00
       2    -1     0     0   501     0  0.000000000E+00  0.000000000E+00 -2.467313729E+03  2.467313729E+03  0.000000000E+00  0.00000E+00  9.000E+00
      25     1     1     2     0     0  3.053877031E+02  2.573102598E+02 -8.220879765E+01  4.264428513E+02  1.250000000E+02  0.00000E+00  9.000E+00
      25     1     1     2     0     0 -2.295214201E+02 -2.860991933E+02  2.262479900E+01  3.881619665E+02  1.250000000E+02  0.00000E+00  9.000E+00
       2     1     1     2   502     0 -7.586628297E+01  2.878893349E+01 -2.029408510E+03  2.031030131E+03  4.315837288E-05  0.00000E+00  9.000E+00
#rwgt            1           1   4.2347889646410168E-002           3       20773           0
</event>
<event>
      5   9999  3.79277E-02  1.26730E+01 -1.00000E+00  1.84570E-01
      21    -1     0     0   511   501  0.000000000E+00  0.000000000E+00  1.100174425E+03  1.100174425E+03  0.000000000E+00  0.00000E+00  9.000E+00
      21    -1     0     0   501   502  0.000000000E+00  0.000000000E+00 -1.382032190E+02  1.382032190E+02  0.000000000E+00  0.00000E+00  9.000E+00
      25     1     1     2     0     0  1.412959770E+01  1.125316750E+02 -3.612889958E+01  1.726074181E+02  1.250000000E+02  0.00000E+00  9.000E+00
      25     1     1     2     0     0 -2.587365308E+01 -1.077691372E+02  1.727213685E+02  2.402942030E+02  1.250000000E+02  0.00000E+00  9.000E+00
      21     1     1     2   511   502  1.174405538E+01 -4.762537792E+00  8.253787373E+02  8.254760230E+02  1.525878906E-05  0.00000E+00  9.000E+00
#rwgt            1           1   3.9927143665022667E-002           3       20907           0
</event>
<event>
      5   9999  3.79277E-02  2.83451E+01 -1.00000E+00  1.54771E-01
       1    -1     0     0   502     0  0.000000000E+00  0.000000000E+00  2.213771729E+03  2.213771729E+03  0.000000000E+00  0.00000E+00  9.000E+00
      21    -1     0     0   501   502  0.000000000E+00  0.000000000E+00 -2.195836193E+02  2.195836193E+02  0.000000000E+00  0.00000E+00  9.000E+00
      25     1     1     2     0     0 -3.594457435E+01  1.583228881E+02  4.535282197E+01  2.098571604E+02  1.250000000E+02  0.00000E+00  9.000E+00
      25     1     1     2     0     0  6.321590570E+01 -1.660508000E+02 -5.125535830E+01  2.232066994E+02  1.250000000E+02  0.00000E+00  9.000E+00
       1     1     1     2   501     0 -2.727133135E+01  7.727911845E+00  2.000090646E+03  2.000291488E+03  0.000000000E+00  0.00000E+00  9.000E+00
#rwgt            1           1   3.4906301976666547E-002           3       21099           0
</event>
<event>
      5   9999  3.79277E-02  4.55117E+01 -1.00000E+00  1.41447E-01
      21    -1     0     0   502   501  0.000000000E+00  0.000000000E+00  2.492935800E+02  2.492935800E+02  0.000000000E+00  0.00000E+00  9.000E+00
      21    -1     0     0   511   502  0.000000000E+00  0.000000000E+00 -4.668619190E+02  4.668619190E+02  0.000000000E+00  0.00000E+00  9.000E+00
      25     1     1     2     0     0  1.198730397E+02 -1.182628617E+02 -7.170113103E+01  2.216341632E+02  1.250000000E+02  0.00000E+00  9.000E+00
      25     1     1     2     0     0 -1.166244671E+02  1.636585074E+02  9.082396063E+01  2.534943100E+02  1.250000000E+02  0.00000E+00  9.000E+00
      21     1     1     2   511   501 -3.248572565E+00 -4.539564571E+01 -2.366911686E+02  2.410270258E+02  4.672030912E-06  0.00000E+00  9.000E+00
#rwgt            1           1   2.7831574315344328E-002           3       21266           0
</event>
<event>
      5   9999  3.79277E-02  3.17473E+01 -1.00000E+00  1.51352E-01
      21    -1     0     0   502   501  0.000000000E+00  0.000000000E+00  9.750681380E+01  9.750681380E+01  0.000000000E+00  0.00000E+00  9.000E+00
      21    -1     0     0   501   512  0.000000000E+00  0.000000000E+00 -5.893857949E+02  5.893857949E+02  0.000000000E+00  0.00000E+00  9.000E+00
      25     1     1     2     0     0 -9.393588951E+01 -1.551095247E+02 -3.131506624E+02  3.828462529E+02  1.250000000E+02  0.00000E+00  9.000E+00
      25     1     1     2     0     0  6.252405387E+01  1.597123992E+02 -1.412976727E+02  2.549653704E+02  1.250000000E+02  0.00000E+00  9.000E+00
      21     1     1     2   502   512  3.141183564E+01 -4.602874580E+00 -3.743064591E+01  4.908098538E+01  0.000000000E+00  0.00000E+00  9.000E+00
#rwgt            1           1   4.0233697412953205E-002           3       21368           0
</event>
<event>
      5   9999  3.79277E-02  9.31647E+01 -1.00000E+00  1.25227E-01
      21    -1     0     0   502   501  0.000000000E+00  0.000000000E+00  6.421452830E+01  6.421452830E+01  0.000000000E+00  0.00000E+00  9.000E+00
      21    -1     0     0   511   502  0.000000000E+00  0.000000000E+00 -1.970105677E+03  1.970105677E+03  0.000000000E+00  0.00000E+00  9.000E+00
      25     1     1     2     0     0 -6.755822680E+01  2.319763162E+02 -5.791204383E+02  6.398301395E+02  1.250000000E+02  0.00000E+00  9.000E+00
      25     1     1     2     0     0  1.132840971E+01 -1.576939704E+02 -2.878182382E+02  3.513688367E+02  1.250000000E+02  0.00000E+00  9.000E+00
      21     1     1     2   511   501  5.622981709E+01 -7.428234580E+01 -1.038952472E+03  1.043121229E+03  1.525878906E-05  0.00000E+00  9.000E+00
#rwgt            2          11   4.6971628647483497E-004           3       21533           0
</event>
<event>
      5   9999  3.79277E-02  3.45542E+01 -1.00000E+00  1.48895E-01
      21    -1     0     0   512   501  0.000000000E+00  0.000000000E+00  8.573453047E+02  8.573453047E+02  0.000000000E+00  0.00000E+00  9.000E+00
      21    -1     0     0   501   502  0.000000000E+00  0.000000000E+00 -5.927868129E+01  5.927868129E+01  0.000000000E+00  0.00000E+00  9.000E+00
      25     1     1     2     0     0 -8.150808236E+01 -7.821955319E+01  1.224746462E+02  2.082952351E+02  1.250000000E+02  0.00000E+00  9.000E+00
      25     1     1     2     0     0  1.110121080E+02  6.023335722E+01  5.839532983E+02  6.103918414E+02  1.250000000E+02  0.00000E+00  9.000E+00
      21     1     1     2   512   502 -2.950402561E+01  1.798619597E+01  9.163867889E+01  9.793690949E+01  1.348699152E-06  0.00000E+00  9.000E+00
#rwgt            1           1   5.9682040254160740E-002           3       21553           0
</event>
<event>
      5   9999  3.79277E-02  2.85878E+01 -1.00000E+00  1.54509E-01
      21    -1     0     0   502   511  0.000000000E+00  0.000000000E+00  1.340857170E+02  1.340857170E+02  0.000000000E+00  0.00000E+00  9.000E+00
      21    -1     0     0   501   502  0.000000000E+00  0.000000000E+00 -1.080532440E+03  1.080532440E+03  0.000000000E+00  0.00000E+00  9.000E+00
      25     1     1     2     0     0  1.060217025E+02  1.812452406E+02 -9.304562920E+02  9.620105768E+02  1.250000000E+02  0.00000E+00  9.000E+00
      25     1     1     2     0     0 -1.041226381E+02 -1.527205766E+02 -9.769364341E+00  2.233507080E+02  1.250000000E+02  0.00000E+00  9.000E+00
      21     1     1     2   501   511 -1.899064391E+00 -2.852466404E+01 -6.221066853E+00  2.925687230E+01  3.862822472E-07  0.00000E+00  9.000E+00
#rwgt            1           1   4.9023678953664940E-002           3       21748           0
</event>
<event>
      5   9999  4.29472E-02  2.74553E+01 -1.00000E+00  1.55763E-01
      21    -1     0     0   502   501  0.000000000E+00  0.000000000E+00  2.116035252E+03  2.116035252E+03  0.000000000E+00  0.00000E+00  9.000E+00
      21    -1     0     0   512   502  0.000000000E+00  0.000000000E+00 -4.207115558E+01  4.207115558E+01  0.000000000E+00  0.00000E+00  9.000E+00
      25     1     1     2     0     0 -8.310430106E+01  1.751096671E+02  1.120637186E+03  1.144125178E+03  1.250000000E+02  0.00000E+00  9.000E+00
      25     1     1     2     0     0  8.485977328E+01 -2.025088055E+02  9.536216526E+02  9.865243300E+02  1.250000000E+02  0.00000E+00  9.000E+00
      21     1     1     2   512   501 -1.755472221E+00  2.739913839E+01 -2.947420091E-01  2.745689968E+01  5.826239695E-07  0.00000E+00  9.000E+00
#rwgt            1           1  0.67473929804052279                3       21891           0
</event>
<event>
      5   9999  3.79277E-02  1.03285E+02 -1.00000E+00  1.23200E-01
      21    -1     0     0   502   501  0.000000000E+00  0.000000000E+00  9.172554509E+02  9.172554509E+02  0.000000000E+00  0.00000E+00  9.000E+00
      21    -1     0     0   501   511  0.000000000E+00  0.000000000E+00 -4.809717308E+02  4.809717308E+02  0.000000000E+00  0.00000E+00  9.000E+00
      25     1     1     2     0     0 -1.409328763E+02 -1.156635023E+02  3.806272076E+02  4.401615528E+02  1.250000000E+02  0.00000E+00  9.000E+00
      25     1     1     2     0     0  2.102318383E+02  3.907772974E+01  4.698768173E+02  5.311626099E+02  1.250000000E+02  0.00000E+00  9.000E+00
      21     1     1     2   502   511 -6.929896196E+01  7.658577253E+01 -4.142203048E+02  4.269030189E+02  7.629394531E-06  0.00000E+00  9.000E+00
#rwgt            1           1   2.9621239950697372E-002           3       22062           0
</event>
<event>
      5   9999  3.79277E-02  3.68423E+01 -1.00000E+00  1.47090E-01
      21    -1     0     0   502   512  0.000000000E+00  0.000000000E+00  2.756018989E+02  2.756018989E+02  0.000000000E+00  0.00000E+00  9.000E+00
      21    -1     0     0   501   502  0.000000000E+00  0.000000000E+00 -2.593474788E+02  2.593474788E+02  0.000000000E+00  0.00000E+00  9.000E+00
      25     1     1     2     0     0  4.723504856E+00 -1.654021258E+02  1.380270216E+02  2.491116886E+02  1.250000000E+02  0.00000E+00  9.000E+00
      25     1     1     2     0     0  2.891471344E+01  1.503746783E+02 -1.423931060E+02  2.436173253E+02  1.250000000E+02  0.00000E+00  9.000E+00
      21     1     1     2   501   512 -3.363821829E+01  1.502744751E+01  2.062050450E+01  4.222036374E+01  3.371747881E-07  0.00000E+00  9.000E+00
#rwgt            1           1   5.0502647717621245E-002           3       22120           0
</event>
<event>
      5   9999  3.79277E-02  5.86742E+00 -1.00000E+00  2.26989E-01
      21    -1     0     0   502   511  0.000000000E+00  0.000000000E+00  2.092740240E+02  2.092740240E+02  0.000000000E+00  0.00000E+00  9.000E+00
      21    -1     0     0   501   502  0.000000000E+00  0.000000000E+00 -4.616943731E+02  4.616943731E+02  0.000000000E+00  0.00000E+00  9.000E+00
      25     1     1     2     0     0 -2.117602259E+02 -1.796261958E+02 -1.441982993E+02  3.369363634E+02  1.250000000E+02  0.00000E+00  9.000E+00
      25     1     1     2     0     0  2.147870922E+02  1.846525959E+02 -1.087311724E+02  3.281425665E+02  1.250000000E+02  0.00000E+00  9.000E+00
      21     1     1     2   501   511 -3.026866273E+00 -5.026400120E+00  5.091225589E-01  5.889467156E+00  3.799065585E-08  0.00000E+00  9.000E+00
#rwgt            1           1   4.8788148283235605E-002           3       22335           0
</event>
<event>
      5   9999  3.79277E-02  1.18187E+01 -1.00000E+00  1.87726E-01
      21    -1     0     0   512   501  0.000000000E+00  0.000000000E+00  9.179920353E+02  9.179920353E+02  0.000000000E+00  0.00000E+00  9.000E+00
      21    -1     0     0   501   502  0.000000000E+00  0.000000000E+00 -7.503018052E+01  7.503018052E+01  0.000000000E+00  0.00000E+00  9.000E+00
      25     1     1     2     0     0  1.715528382E+02  1.180905129E+02  3.042489624E+02  3.893175781E+02  1.250000000E+02  0.00000E+00  9.000E+00
      25     1     1     2     0     0 -1.597347133E+02 -1.182080116E+02  3.949365288E+02  4.594433310E+02  1.250000000E+02  0.00000E+00  9.000E+00
      21     1     1     2   512   502 -1.181812489E+01  1.174986134E-01  1.437763636E+02  1.442613067E+02  0.000000000E+00  0.00000E+00  9.000E+00
#rwgt            1           1   3.6118524026193123E-002           3       22739           0
</event>
<event>
      5   9999  3.79277E-02  3.17119E+01 -1.00000E+00  1.51384E-01
      21    -1     0     0   502   511  0.000000000E+00  0.000000000E+00  3.238270113E+02  3.238270113E+02  0.000000000E+00  0.00000E+00  9.000E+00
      21    -1     0     0   501   502  0.000000000E+00  0.000000000E+00 -4.161684608E+02  4.161684608E+02  0.000000000E+00  0.00000E+00  9.000E+00
      25     1     1     2     0     0 -7.506297138E+01 -9.981613412E+01 -3.558392441E+02  3.972962094E+02  1.250000000E+02  0.00000E+00  9.000E+00
      25     1     1     2     0     0  4.718868943E+01  1.149380256E+02  1.736545263E+02  2.474235572E+02  1.250000000E+02  0.00000E+00  9.000E+00
      21     1     1     2   501   511  2.787428194E+01 -1.512189145E+01  8.984326834E+01  9.527570551E+01  9.536743164E-07  0.00000E+00  9.000E+00
#rwgt            1           1   3.0596038776044065E-002           3       23074           0
</event>
<event>
      5   9999  3.79277E-02  3.34492E+01 -1.00000E+00  1.49828E-01
      21    -1     0     0   502   501  0.000000000E+00  0.000000000E+00  2.156495617E+03  2.156495617E+03  0.000000000E+00  0.00000E+00  9.000E+00
      21    -1     0     0   512   502  0.000000000E+00  0.000000000E+00 -8.812314948E+01  8.812314948E+01  0.000000000E+00  0.00000E+00  9.000E+00
      25     1     1     2     0     0  3.087739021E+01  6.146564865E+01  2.011428694E+03  2.016482539E+03  1.250000000E+02  0.00000E+00  9.000E+00
      25     1     1     2     0     0 -1.076088884E+01 -3.474164329E+01  1.066034676E+02  1.682619322E+02  1.250000000E+02  0.00000E+00  9.000E+00
      21     1     1     2   512   501 -2.011650137E+01 -2.672400536E+01 -4.965969376E+01  5.987429561E+01  3.814697266E-06  0.00000E+00  9.000E+00
#rwgt            1           1  0.10027971856745130                3       23462           0
</event>
<event>
      5   9999  3.79277E-02  4.22398E+01 -1.00000E+00  1.43388E-01
      21    -1     0     0   511   501  0.000000000E+00  0.000000000E+00  1.168347610E+02  1.168347610E+02  0.000000000E+00  0.00000E+00  9.000E+00
      21    -1     0     0   501   502  0.000000000E+00  0.000000000E+00 -7.287712035E+02  7.287712035E+02  0.000000000E+00  0.00000E+00  9.000E+00
      25     1     1     2     0     0  2.119455159E+00 -1.048659612E+02 -1.330873547E+02  2.105673429E+02  1.250000000E+02  0.00000E+00  9.000E+00
      25     1     1     2     0     0  6.985217622E+00  1.461127969E+02 -5.328232577E+02  5.665009856E+02  1.250000000E+02  0.00000E+00  9.000E+00
      21     1     1     2   511   502 -9.104672781E+00 -4.124683562E+01  5.397417002E+01  6.853763597E+01  1.348699152E-06  0.00000E+00  9.000E+00
#rwgt            1           1   2.5669339092780567E-002           3       23624           0
</event>
<event>
      5   9999  3.79277E-02  5.64885E+01 -1.00000E+00  1.36118E-01
      21    -1     0     0   502   501  0.000000000E+00  0.000000000E+00  3.872775720E+03  3.872775720E+03  0.000000000E+00  0.00000E+00  9.000E+00
      21    -1     0     0   512   502  0.000000000E+00  0.000000000E+00 -5.482526099E+01  5.482526099E+01  0.000000000E+00  0.00000E+00  9.000E+00
      25     1     1     2     0     0  2.526159550E+01 -1.740015366E+01  3.383175203E+03  3.385622597E+03  1.250000000E+02  0.00000E+00  9.000E+00
      25     1     1     2     0     0  3.096804676E+01  2.280217272E+01  4.613661009E+02  4.795441982E+02  1.250000000E+02  0.00000E+00  9.000E+00
      21     1     1     2   512   501 -5.622964226E+01 -5.402019059E+00 -2.659084528E+01  6.243418560E+01  3.421950363E-06  0.00000E+00  9.000E+00
#rwgt            1           1   9.9863539412968459E-003           3       23801           0
</event>
<event>
      5   9999  3.79277E-02  6.02185E+01 -1.00000E+00  1.34619E-01
      21    -1     0     0   511   501  0.000000000E+00  0.000000000E+00  7.648189410E+02  7.648189410E+02  0.000000000E+00  0.00000E+00  9.000E+00
      21    -1     0     0   501   502  0.000000000E+00  0.000000000E+00 -2.574604389E+02  2.574604389E+02  0.000000000E+00  0.00000E+00  9.000E+00
      25     1     1     2     0     0 -3.217222487E+01 -6.599631042E+01  7.480331031E+01  1.631290908E+02  1.250000000E+02  0.00000E+00  9.000E+00
      25     1     1     2     0     0  6.636083241E+01  1.155685597E+02 -1.723970573E+02  2.512082750E+02  1.250000000E+02  0.00000E+00  9.000E+00
      21     1     1     2   511   502 -3.418860754E+01 -4.957224932E+01  6.049522491E+02  6.079420141E+02  1.078959322E-05  0.00000E+00  9.000E+00
#rwgt            1           1   5.0030369392536897E-002           3       23957           0
</event>
<event>
      5   9999  3.79277E-02  1.82756E+01 -1.00000E+00  1.69666E-01
      21    -1     0     0   502   512  0.000000000E+00  0.000000000E+00  1.326286973E+03  1.326286973E+03  0.000000000E+00  0.00000E+00  9.000E+00
      21    -1     0     0   501   502  0.000000000E+00  0.000000000E+00 -9.249937825E+01  9.249937825E+01  0.000000000E+00  0.00000E+00  9.000E+00
      25     1     1     2     0     0 -1.236794761E+02  3.038350673E+01  1.360224222E+01  1.789686880E+02  1.250000000E+02  0.00000E+00  9.000E+00
      25     1     1     2     0     0  1.376196828E+02 -1.856535588E+01  9.040790852E+02  9.231835364E+02  1.250000000E+02  0.00000E+00  9.000E+00
      21     1     1     2   501   512 -1.394020673E+01 -1.181815085E+01  3.161062671E+02  3.166341266E+02  0.000000000E+00  0.00000E+00  9.000E+00
#rwgt            1           1   3.8747591510212905E-002           3       24041           0
</event>
<event>
      5   9999  3.79277E-02  2.63786E+01 -1.00000E+00  1.57024E-01
      21    -1     0     0   511   501  0.000000000E+00  0.000000000E+00  1.569946921E+02  1.569946921E+02  0.000000000E+00  0.00000E+00  9.000E+00
      21    -1     0     0   501   502  0.000000000E+00  0.000000000E+00 -2.176512129E+02  2.176512129E+02  0.000000000E+00  0.00000E+00  9.000E+00
      25     1     1     2     0     0  5.489555004E+01  9.908438163E+01 -2.247018854E+01  1.701797446E+02  1.250000000E+02  0.00000E+00  9.000E+00
      25     1     1     2     0     0 -3.758789478E+01 -7.917776283E+01 -6.583152731E+01  1.662550990E+02  1.250000000E+02  0.00000E+00  9.000E+00
      21     1     1     2   511   502 -1.730765526E+01 -1.990661880E+01  2.764519509E+01  3.821106141E+01  3.371747881E-07  0.00000E+00  9.000E+00
#rwgt            1           1   3.7815317074566805E-002           3       24250           0
</event>
<event>
      5   9999  3.79277E-02  3.82300E+01 -1.00000E+00  1.46070E-01
      21    -1     0     0   512   501  0.000000000E+00  0.000000000E+00  4.902292109E+02  4.902292109E+02  0.000000000E+00  0.00000E+00  9.000E+00
      21    -1     0     0   501   502  0.000000000E+00  0.000000000E+00 -1.967306180E+02  1.967306180E+02  0.000000000E+00  0.00000E+00  9.000E+00
      25     1     1     2     0     0  2.245072558E+01  1.934843233E+02 -2.566591054E+01  2.328603818E+02  1.250000000E+02  0.00000E+00  9.000E+00
      25     1     1     2     0     0  1.184657167E+01 -2.103730194E+02  1.652691630E+02  2.955267243E+02  1.250000000E+02  0.00000E+00  9.000E+00
      21     1     1     2   512   502 -3.429729725E+01  1.688869609E+01  1.538953404E+02  1.585727229E+02  1.907348633E-06  0.00000E+00  9.000E+00
#rwgt            1           1   4.0022231587795651E-002           3       24306           0
</event>
<event>
      5   9999  3.79277E-02  1.21113E+02 -1.00000E+00  1.20198E-01
      21    -1     0     0   502   501  0.000000000E+00  0.000000000E+00  5.468503883E+02  5.468503883E+02  0.000000000E+00  0.00000E+00  9.000E+00
      21    -1     0     0   501   511  0.000000000E+00  0.000000000E+00 -5.296656762E+02  5.296656762E+02  0.000000000E+00  0.00000E+00  9.000E+00
      25     1     1     2     0     0  2.098175623E+02 -2.575277730E+01  4.326250557E+02  4.974696512E+02  1.250000000E+02  0.00000E+00  9.000E+00
      25     1     1     2     0     0 -9.295632131E+01 -6.054449072E+00 -1.034695809E+01  1.562356988E+02  1.250000000E+02  0.00000E+00  9.000E+00
      21     1     1     2   502   511 -1.168612410E+02  3.180722637E+01 -4.050933855E+02  4.228107145E+02  0.000000000E+00  0.00000E+00  9.000E+00
#rwgt            1           1   3.4864788224906525E-002           3       24448           0
</event>
<event>
      5   9999  3.79277E-02  7.42832E+01 -1.00000E+00  1.29928E-01
      21    -1     0     0   512   501  0.000000000E+00  0.000000000E+00  1.381289553E+03  1.381289553E+03  0.000000000E+00  0.00000E+00  9.000E+00
      21    -1     0     0   501   502  0.000000000E+00  0.000000000E+00 -5.646349772E+01  5.646349772E+01  0.000000000E+00  0.00000E+00  9.000E+00
      25     1     1     2     0     0  7.527727008E+00  1.337470299E-01  1.067831792E+03  1.075149487E+03  1.250000000E+02  0.00000E+00  9.000E+00
      25     1     1     2     0     0  2.569311847E+01  6.630699230E+01  6.709615794E+01  1.586935663E+02  1.250000000E+02  0.00000E+00  9.000E+00
      21     1     1     2   512   502 -3.322084548E+01 -6.644073933E+01  1.898981051E+02  2.039099967E+02  4.672030912E-06  0.00000E+00  9.000E+00
#rwgt            1           1   4.5324857698489013E-002           3       24534           0
</event>
<event>
      5   9999  3.79277E-02  2.50220E+01 -1.00000E+00  1.58722E-01
      21    -1     0     0   502   501  0.000000000E+00  0.000000000E+00  1.270607651E+02  1.270607651E+02  0.000000000E+00  0.00000E+00  9.000E+00
      21    -1     0     0   511   502  0.000000000E+00  0.000000000E+00 -8.622207532E+02  8.622207532E+02  0.000000000E+00  0.00000E+00  9.000E+00
      25     1     1     2     0     0 -2.701095920E+01 -2.743394886E+02 -3.541687359E+02  4.658886567E+02  1.250000000E+02  0.00000E+00  9.000E+00
      25     1     1     2     0     0  3.170320589E+01  2.497613874E+02 -2.107458200E+02  3.513184375E+02  1.250000000E+02  0.00000E+00  9.000E+00
      21     1     1     2   511   501 -4.692246685E+00  2.457810127E+01 -1.702454322E+02  1.720744241E+02  2.697398305E-06  0.00000E+00  9.000E+00
#rwgt            1           1   3.1973463186041100E-002           3       24621           0
</event>
<event>
      5   9999  3.79277E-02  6.76909E+01 -1.00000E+00  1.31963E-01
      21    -1     0     0   502   501  0.000000000E+00  0.000000000E+00  2.387879661E+03  2.387879661E+03  0.000000000E+00  0.00000E+00  9.000E+00
      21    -1     0     0   512   502  0.000000000E+00  0.000000000E+00 -2.107968009E+02  2.107968009E+02  0.000000000E+00  0.00000E+00  9.000E+00
      25     1     1     2     0     0  1.218263518E+02  3.435719786E+01  1.890464145E+03  1.898815884E+03  1.250000000E+02  0.00000E+00  9.000E+00
      25     1     1     2     0     0 -6.310953994E+01 -6.764060870E-01  4.773545988E+02  4.974692800E+02  1.250000000E+02  0.00000E+00  9.000E+00
      21     1     1     2   512   501 -5.871681189E+01 -3.368079177E+01 -1.907358843E+02  2.023912975E+02  8.529922400E-06  0.00000E+00  9.000E+00
#rwgt            1           1   6.8922200766755676E-002           3       24804           0
</event>
<event>
      5   9999  3.79277E-02  3.94817E+01 -1.00000E+00  1.45192E-01
      21    -1     0     0   502   511  0.000000000E+00  0.000000000E+00  1.809340544E+02  1.809340544E+02  0.000000000E+00  0.00000E+00  9.000E+00
      21    -1     0     0   501   502  0.000000000E+00  0.000000000E+00 -2.116675551E+02  2.116675551E+02  0.000000000E+00  0.00000E+00  9.000E+00
      25     1     1     2     0     0 -1.127558508E+02 -1.662498797E+01 -4.285372765E+01  1.745041950E+02  1.250000000E+02  0.00000E+00  9.000E+00
      25     1     1     2     0     0  1.242929454E+02 -2.113342657E+01  2.947500812E+00  1.775642018E+02  1.250000000E+02  0.00000E+00  9.000E+00
      21     1     1     2   501   511 -1.153709463E+01  3.775841454E+01  9.172726078E+00  4.053321261E+01  2.665600750E-07  0.00000E+00  9.000E+00
#rwgt            1           1   4.1937549075969603E-002           3       24953           0
</event>
<event>
      5   9999  3.79277E-02  1.34638E+02 -1.00000E+00  1.18284E-01
      21    -1     0     0   502   512  0.000000000E+00  0.000000000E+00  1.060566130E+03  1.060566130E+03  0.000000000E+00  0.00000E+00  9.000E+00
      21    -1     0     0   501   502  0.000000000E+00  0.000000000E+00 -1.444819948E+02  1.444819948E+02  0.000000000E+00  0.00000E+00  9.000E+00
      25     1     1     2     0     0  4.735324654E+01  2.216595521E+02  3.382839675E+01  2.610452976E+02  1.250000000E+02  0.00000E+00  9.000E+00
      25     1     1     2     0     0 -1.005014903E+02 -9.795595437E+01  6.379077888E+02  6.650167409E+02  1.250000000E+02  0.00000E+00  9.000E+00
      21     1     1     2   501   512  5.314824372E+01 -1.237035977E+02  2.443479501E+02  2.789860867E+02  6.031565972E-06  0.00000E+00  9.000E+00
#rwgt            1           1   4.3561504054716732E-002           3       25181           0
</event>
<event>
      5   9999  3.79277E-02  8.73943E+01 -1.00000E+00  1.26518E-01
       2    -1     0     0   502     0  0.000000000E+00  0.000000000E+00  1.228681604E+03  1.228681604E+03  0.000000000E+00  0.00000E+00  9.000E+00
      21    -1     0     0   501   502  0.000000000E+00  0.000000000E+00 -1.665804819E+02  1.665804819E+02  0.000000000E+00  0.00000E+00  9.000E+00
      25     1     1     2     0     0 -2.618972609E+02 -5.305271004E+01  6.398544633E+02  7.045874676E+02  1.250000000E+02  0.00000E+00  9.000E+00
      25     1     1     2     0     0  2.667915745E+02  1.403098106E+02  7.801648476E+01  3.355237086E+02  1.250000000E+02  0.00000E+00  9.000E+00
       2     1     1     2   501     0 -4.894313629E+00 -8.725710055E+01  3.442301742E+02  3.551509098E+02  3.814697266E-06  0.00000E+00  9.000E+00
#rwgt            1           1   3.3505507502564279E-002           3       25263           0
</event>
<event>
      5   9999  3.79277E-02  5.34134E+01 -1.00000E+00  1.37459E-01
      21    -1     0     0   502   501  0.000000000E+00  0.000000000E+00  1.621006294E+02  1.621006294E+02  0.000000000E+00  0.00000E+00  9.000E+00
      21    -1     0     0   511   502  0.000000000E+00  0.000000000E+00 -3.835051337E+02  3.835051337E+02  0.000000000E+00  0.00000E+00  9.000E+00
      25     1     1     2     0     0  9.384261013E+00  5.808261696E+01 -1.727633231E+01  1.392304794E+02  1.250000000E+02  0.00000E+00  9.000E+00
      25     1     1     2     0     0 -2.057552191E+01 -1.103104251E+02  2.613399417E+01  1.699991990E+02  1.250000000E+02  0.00000E+00  9.000E+00
      21     1     1     2   511   501  1.119126090E+01  5.222780819E+01 -2.302621661E+02  2.363760847E+02  2.697398305E-06  0.00000E+00  9.000E+00
#rwgt            1           1   1.7545655136152784E-002           3       25464           0
</event>
<event>
      5   9999  3.79277E-02  5.36133E+01 -1.00000E+00  1.37368E-01
      21    -1     0     0   502   501  0.000000000E+00  0.000000000E+00  3.943629993E+02  3.943629993E+02  0.000000000E+00  0.00000E+00  9.000E+00
      21    -1     0     0   501   512  0.000000000E+00  0.000000000E+00 -5.639874743E+02  5.639874743E+02  0.000000000E+00  0.00000E+00  9.000E+00
      25     1     1     2     0     0 -6.512817634E+01 -2.959531995E+01  3.597454193E+02  3.875039729E+02  1.250000000E+02  0.00000E+00  9.000E+00
      25     1     1     2     0     0  3.126865271E+01 -1.197291958E+01 -2.075226941E+02  2.445644046E+02  1.250000000E+02  0.00000E+00  9.000E+00
      21     1     1     2   502   512  3.385952362E+01  4.156823953E+01 -3.218472002E+02  3.262820960E+02  6.607249480E-06  0.00000E+00  9.000E+00
#rwgt            1           1   4.3257590157904473E-002           3       25560           0
</event>
<event>
      5   9999  3.79277E-02  3.25205E+02 -1.00000E+00  1.04466E-01
      21    -1     0     0   502   501  0.000000000E+00  0.000000000E+00  1.165184103E+03  1.165184103E+03  0.000000000E+00  0.00000E+00  9.000E+00
       2    -1     0     0   501     0  0.000000000E+00  0.000000000E+00 -2.136597002E+03  2.136597002E+03  0.000000000E+00  0.00000E+00  9.000E+00
      25     1     1     2     0     0 -1.259284115E+02  3.291292563E+02  4.515859757E+02  5.862925256E+02  1.250000000E+02  0.00000E+00  9.000E+00
      25     1     1     2     0     0  4.299289996E+02 -2.136223522E+02  5.356172976E+02  7.300577672E+02  1.250000000E+02  0.00000E+00  9.000E+00
       2     1     1     2   502     0 -3.040005881E+02 -1.155069041E+02 -1.958616172E+03  1.985430813E+03  2.157918644E-05  0.00000E+00  9.000E+00
#rwgt            2          13   5.6549119792031434E-003           3       25710           0
</event>
<event>
      5   9999  3.79277E-02  2.07311E+01 -1.00000E+00  1.65093E-01
      21    -1     0     0   502   501  0.000000000E+00  0.000000000E+00  3.849164274E+01  3.849164274E+01  0.000000000E+00  0.00000E+00  9.000E+00
       1    -1     0     0   501     0  0.000000000E+00  0.000000000E+00 -2.021275167E+03  2.021275167E+03  0.000000000E+00  0.00000E+00  9.000E+00
      25     1     1     2     0     0  4.529111922E-01  1.624376257E+02 -4.978780425E+02  5.384178048E+02  1.250000000E+02  0.00000E+00  9.000E+00
      25     1     1     2     0     0 -1.980628196E+01 -1.550061326E+02 -5.347222215E+02  5.709396152E+02  1.250000000E+02  0.00000E+00  9.000E+00
       1     1     1     2   502     0  1.935337077E+01 -7.431493088E+00 -9.501832601E+02  9.504093896E+02  1.078959322E-05  0.00000E+00  9.000E+00
#rwgt            1           1   4.5313610690320368E-002           3       25729           0
</event>
<event>
      5   9999 -3.96992E-02  7.59087E+01 -1.00000E+00  1.29463E-01
      21    -1     0     0   502   501  0.000000000E+00  0.000000000E+00  3.118264306E+01  3.118264306E+01  0.000000000E+00  0.00000E+00  9.000E+00
      21    -1     0     0   501   511  0.000000000E+00  0.000000000E+00 -1.833381032E+03  1.833381032E+03  0.000000000E+00  0.00000E+00  9.000E+00
      25     1     1     2     0     0  8.867726136E+01  9.496683626E+01 -4.863515884E+02  5.186956952E+02  1.250000000E+02  0.00000E+00  9.000E+00
      25     1     1     2     0     0 -1.277616865E+01 -9.389088256E+01 -4.472032562E+02  4.739140013E+02  1.250000000E+02  0.00000E+00  9.000E+00
      21     1     1     2   502   511 -7.590109271E+01 -1.075953707E+00 -8.686435444E+02  8.719539786E+02  1.078959322E-05  0.00000E+00  9.000E+00
#rwgt            1           1 -0.56068858644300212                3       26108           0
</event>
<event>
      5   9999 -3.79277E-02  6.53252E+01 -1.00000E+00  1.32759E-01
      21    -1     0     0   502   512  0.000000000E+00  0.000000000E+00  2.168389398E+02  2.168389398E+02  0.000000000E+00  0.00000E+00  9.000E+00
      21    -1     0     0   501   502  0.000000000E+00  0.000000000E+00 -4.303380312E+02  4.303380312E+02  0.000000000E+00  0.00000E+00  9.000E+00
      25     1     1     2     0     0 -1.230460931E+02 -1.607537086E+02 -4.740485781E+01  2.425990857E+02  1.250000000E+02  0.00000E+00  9.000E+00
      25     1     1     2     0     0  1.880960747E+02  1.547636000E+02 -1.919014578E+02  3.343397593E+02  1.250000000E+02  0.00000E+00  9.000E+00
      21     1     1     2   501   512 -6.504998160E+01  5.990108645E+00  2.580722424E+01  7.023812590E+01  1.581489940E-06  0.00000E+00  9.000E+00
#rwgt            1           1  -5.1519301853308129E-002           3       26259           0
</event>
<event>
      5   9999  3.79277E-02  1.98809E+01 -1.00000E+00  1.66583E-01
      21    -1     0     0   511   501  0.000000000E+00  0.000000000E+00  1.438022939E+02  1.438022939E+02  0.000000000E+00  0.00000E+00  9.000E+00
      21    -1     0     0   501   502  0.000000000E+00  0.000000000E+00 -4.729314393E+02  4.729314393E+02  0.000000000E+00  0.00000E+00  9.000E+00
      25     1     1     2     0     0 -1.111081231E+01  1.849558031E+02 -1.728453079E+02  2.825466328E+02  1.250000000E+02  0.00000E+00  9.000E+00
      25     1     1     2     0     0  2.501140205E+01 -1.991693110E+02 -1.843172295E+02  2.998196554E+02  1.250000000E+02  0.00000E+00  9.000E+00
      21     1     1     2   511   502 -1.390058974E+01  1.421350793E+01  2.803339204E+01  3.436744494E+01  7.539457465E-07  0.00000E+00  9.000E+00
#rwgt            1           1   3.4303405362174626E-002           3       26448           0
</event>
<event>
      5   9999  3.79277E-02  1.22186E+02 -1.00000E+00  1.20036E-01
      21    -1     0     0   502   501  0.000000000E+00  0.000000000E+00  2.921694770E+02  2.921694770E+02  0.000000000E+00  0.00000E+00  9.000E+00
      21    -1     0     0   501   512  0.000000000E+00  0.000000000E+00 -3.282303511E+02  3.282303511E+02  0.000000000E+00  0.00000E+00  9.000E+00
      25     1     1     2     0     0  8.716920313E+01 -1.674140115E+02  1.698233740E+02  2.830033562E+02  1.250000000E+02  0.00000E+00  9.000E+00
      25     1     1     2     0     0 -4.178741870E+01  5.396799069E+01 -8.685028165E+01  1.668133802E+02  1.250000000E+02  0.00000E+00  9.000E+00
      21     1     1     2   502   512 -4.538178443E+01  1.134460208E+02 -1.190339665E+02  1.705830917E+02  3.015782986E-06  0.00000E+00  9.000E+00
#rwgt            2          11   1.9957713486231862E-003           3       26631           0
</event>
<event>
      5   9999  3.79277E-02  4.08266E+01 -1.00000E+00  1.44291E-01
      21    -1     0     0   502   511  0.000000000E+00  0.000000000E+00  1.258256683E+02  1.258256683E+02  0.000000000E+00  0.00000E+00  9.000E+00
      21    -1     0     0   501   502  0.000000000E+00  0.000000000E+00 -5.225914973E+02  5.225914973E+02  0.000000000E+00  0.00000E+00  9.000E+00
      25     1     1     2     0     0  9.474184227E+01  4.443481068E+01 -3.555437318E+01  1.668519779E+02  1.250000000E+02  0.00000E+00  9.000E+00
      25     1     1     2     0     0 -8.405392975E+01 -5.032048791E+00 -3.986390729E+02  4.261789472E+02  1.250000000E+02  0.00000E+00  9.000E+00
      21     1     1     2   501   511 -1.068791252E+01 -3.940276189E+01  3.742761700E+01  5.538624047E+01  6.743495762E-07  0.00000E+00  9.000E+00
#rwgt            1           1   3.4476393715951376E-002           3       26741           0
</event>
<event>
      5   9999  3.79277E-02  3.74209E+01 -1.00000E+00  1.46658E-01
      21    -1     0     0   502   512  0.000000000E+00  0.000000000E+00  2.401670264E+02  2.401670264E+02  0.000000000E+00  0.00000E+00  9.000E+00
      21    -1     0     0   501   502  0.000000000E+00  0.000000000E+00 -4.717521438E+02  4.717521438E+02  0.000000000E+00  0.00000E+00  9.000E+00
      25     1     1     2     0     0 -2.446358396E+02 -1.356231813E+02 -2.197417927E+01  3.071615306E+02  1.250000000E+02  0.00000E+00  9.000E+00
      25     1     1     2     0     0  2.474526575E+02  9.830845504E+01 -2.183474667E+02  3.663304332E+02  1.250000000E+02  0.00000E+00  9.000E+00
      21     1     1     2   501   512 -2.816817862E+00  3.731472625E+01  8.736528657E+00  3.842720639E+01  2.384185791E-07  0.00000E+00  9.000E+00
#rwgt            1           1   4.0827292895111916E-002           3       26875           0
</event>
<event>
      5   9999  3.79277E-02  1.23832E+02 -1.00000E+00  1.19792E-01
      21    -1     0     0   502   501  0.000000000E+00  0.000000000E+00  3.199959430E+02  3.199959430E+02  0.000000000E+00  0.00000E+00  9.000E+00
      21    -1     0     0   501   511  0.000000000E+00  0.000000000E+00 -3.361045726E+02  3.361045726E+02  0.000000000E+00  0.00000E+00  9.000E+00
      25     1     1     2     0     0  1.110866756E+02 -1.226682193E+02 -1.305590005E+02  2.450681418E+02  1.250000000E+02  0.00000E+00  9.000E+00
      25     1     1     2     0     0 -2.267812664E+01  2.093765618E+02  1.434860422E+02  2.838416572E+02  1.250000000E+02  0.00000E+00  9.000E+00
      21     1     1     2   502   511 -8.840854891E+01 -8.670834244E+01 -2.903567131E+01  1.271907166E+02  1.685873940E-06  0.00000E+00  9.000E+00
#rwgt            1           1   3.8229072327060971E-002           3       27035           0
</event>
<event>
      5   9999  3.79277E-02  5.98107E+01 -1.00000E+00  1.34777E-01
      21    -1     0     0   512   501  0.000000000E+00  0.000000000E+00  5.252852432E+02  5.252852432E+02  0.000000000E+00  0.00000E+00  9.000E+00
      21    -1     0     0   501   502  0.000000000E+00  0.000000000E+00 -2.099968227E+02  2.099968227E+02  0.000000000E+00  0.00000E+00  9.000E+00
      25     1     1     2     0     0 -1.185053245E+02 -4.884225624E+01 -1.350732926E+02  2.242741008E+02  1.250000000E+02  0.00000E+00  9.000E+00
      25     1     1     2     0     0  6.032183205E+01  3.498599004E+01  1.605584582E+02  2.150970977E+02  1.250000000E+02  0.00000E+00  9.000E+00
      21     1     1     2   512   502  5.818349248E+01  1.385626620E+01  2.898032549E+02  2.959108675E+02  0.000000000E+00  0.00000E+00  9.000E+00
#rwgt            1           1   2.7713504393028287E-002           3       27241           0
</event>
<event>
      5   9999  3.79277E-02  2.94379E+01 -1.00000E+00  1.53613E-01
      21    -1     0     0   502   501  0.000000000E+00  0.000000000E+00  5.318552553E+02  5.318552553E+02  0.000000000E+00  0.00000E+00  9.000E+00
      21    -1     0     0   511   502  0.000000000E+00  0.000000000E+00 -5.126276827E+02  5.126276827E+02  0.000000000E+00  0.00000E+00  9.000E+00
      25     1     1     2     0     0 -4.290059919E+01 -2.476130345E+02  4.305967358E+02  5.139953552E+02  1.250000000E+02  0.00000E+00  9.000E+00
      25     1     1     2     0     0  6.917629562E+01  2.608862140E+02 -4.010093728E+02  4.992799752E+02  1.250000000E+02  0.00000E+00  9.000E+00
      21     1     1     2   511   501 -2.627569643E+01 -1.327317950E+01 -1.035979037E+01  3.120760762E+01  3.769728732E-07  0.00000E+00  9.000E+00
#rwgt            1           1   4.5544688200987525E-002           3       27326           0
</event>
<event>
      5   9999  3.79277E-02  3.27645E+01 -1.00000E+00  1.50428E-01
       1    -1     0     0   502     0  0.000000000E+00  0.000000000E+00  5.758993253E+02  5.758993253E+02  0.000000000E+00  0.00000E+00  9.000E+00
      21    -1     0     0   501   502  0.000000000E+00  0.000000000E+00 -4.818730232E+02  4.818730232E+02  0.000000000E+00  0.00000E+00  9.000E+00
      25     1     1     2     0     0  5.557632272E+01 -1.603900793E+01  7.613063494E+01  1.573748741E+02  1.250000000E+02  0.00000E+00  9.000E+00
      25     1     1     2     0     0 -2.287658642E+01  1.397998655E+01 -4.313818928E+02  4.499267893E+02  1.250000000E+02  0.00000E+00  9.000E+00
       1     1     1     2   501     0 -3.269973629E+01  2.059021384E+00  4.492775600E+02  4.504706852E+02  9.344061824E-06  0.00000E+00  9.000E+00
#rwgt            1           1   4.7578660622164377E-002           3       27713           0
</event>
<event>
      5   9999  4.41942E-02  2.13326E+01 -1.00000E+00  1.64090E-01
      21    -1     0     0   502   501  0.000000000E+00  0.000000000E+00  4.192316356E+02  4.192316356E+02  0.000000000E+00  0.00000E+00  9.000E+00
       2    -1     0     0   501     0  0.000000000E+00  0.000000000E+00 -1.992188510E+03  1.992188510E+03  0.000000000E+00  0.00000E+00  9.000E+00
      25     1     1     2     0     0  2.047062398E+02 -3.837223290E+02 -1.680149078E+02  4.827022681E+02  1.250000000E+02  0.00000E+00  9.000E+00
      25     1     1     2     0     0 -2.227827498E+02  3.723945013E+02  6.707565772E+01  4.565456845E+02  1.250000000E+02  0.00000E+00  9.000E+00
       2     1     1     2   502     0  1.807651001E+01  1.132782772E+01 -1.472017624E+03  1.472172193E+03  0.000000000E+00  0.00000E+00  9.000E+00
#rwgt            1           1  0.45522998455705760                3       27890           0
</event>
<event>
      5   9999  3.79277E-02  3.27948E+01 -1.00000E+00  1.50401E-01
      21    -1     0     0   502   511  0.000000000E+00  0.000000000E+00  1.895381439E+02  1.895381439E+02  0.000000000E+00  0.00000E+00  9.000E+00
      21    -1     0     0   501   502  0.000000000E+00  0.000000000E+00 -3.151433210E+02  3.151433210E+02  0.000000000E+00  0.00000E+00  9.000E+00
      25     1     1     2     0     0  1.874759072E+02  6.760929592E+00 -7.485465178E+01  2.375313555E+02  1.250000000E+02  0.00000E+00  9.000E+00
      25     1     1     2     0     0 -1.872093433E+02  2.603276221E+01 -5.723176127E+01  2.337210248E+02  1.250000000E+02  0.00000E+00  9.000E+00
      21     1     1     2   501   511 -2.665638869E-01 -3.279369180E+01  6.481235973E+00  3.342908461E+01  6.795975119E-07  0.00000E+00  9.000E+00
#rwgt            1           1   1.6660105544298823E-002           3       28184           0
</event>
<event>
      5   9999  3.79277E-02  5.65540E+01 -1.00000E+00  1.36091E-01
      21    -1     0     0   512   501  0.000000000E+00  0.000000000E+00  6.820375000E+01  6.820375000E+01  0.000000000E+00  0.00000E+00  9.000E+00
      21    -1     0     0   501   502  0.000000000E+00  0.000000000E+00 -1.502545917E+03  1.502545917E+03  0.000000000E+00  0.00000E+00  9.000E+00
      25     1     1     2     0     0  1.421152863E+02  1.343441568E+02 -1.016362872E+03  1.042527503E+03  1.250000000E+02  0.00000E+00  9.000E+00
      25     1     1     2     0     0 -1.045883037E+02 -1.766534942E+02 -4.037966557E+02  4.699169175E+02  1.250000000E+02  0.00000E+00  9.000E+00
      21     1     1     2   512   502 -3.752698262E+01  4.230933738E+01 -1.418263886E+01  5.830524590E+01  5.057621821E-07  0.00000E+00  9.000E+00
#rwgt            1           1   3.9640980992262896E-002           3       28331           0
</event>
<event>
      5   9999  3.79277E-02  1.84132E+01 -1.00000E+00  1.69387E-01
      21    -1     0     0   502   511  0.000000000E+00  0.000000000E+00  1.726800517E+03  1.726800517E+03  0.000000000E+00  0.00000E+00  9.000E+00
      21    -1     0     0   501   502  0.000000000E+00  0.000000000E+00 -6.572758433E+01  6.572758433E+01  0.000000000E+00  0.00000E+00  9.000E+00
      25     1     1     2     0     0  1.849085062E+02  2.770085380E+01  1.679682108E+02  2.807077000E+02  1.250000000E+02  0.00000E+00  9.000E+00
      25     1     1     2     0     0 -1.715492136E+02 -1.502896402E+01  1.439469372E+03  1.455112393E+03  1.250000000E+02  0.00000E+00  9.000E+00
      21     1     1     2   501   511 -1.335929264E+01 -1.267188978E+01  5.363534988E+01  5.670800867E+01  1.168007728E-06  0.00000E+00  9.000E+00
#rwgt            1           1   4.0008413474300827E-002           3       28429           0
</event>
<event>
      5   9999  3.79277E-02  6.77518E+01 -1.00000E+00  1.31943E-01
      21    -1     0     0   502   512  0.000000000E+00  0.000000000E+00  1.089775039E+03  1.089775039E+03  0.000000000E+00  0.00000E+00  9.000E+00
      21    -1     0     0   501   502  0.000000000E+00  0.000000000E+00 -2.764604920E+02  2.764604920E+02  0.000000000E+00  0.00000E+00  9.000E+00
      25     1     1     2     0     0  1.686961878E+02 -4.890750159E+01 -8.333657279E+01  2.311283883E+02  1.250000000E+02  0.00000E+00  9.000E+00
      25     1     1     2     0     0 -1.586327390E+02  1.159077220E+02 -3.028503355E+00  2.328800501E+02  1.250000000E+02  0.00000E+00  9.000E+00
      21     1     1     2   501   512 -1.006344888E+01 -6.700022038E+01  8.996796227E+02  9.022270923E+02  1.525878906E-05  0.00000E+00  9.000E+00
#rwgt            1           1   3.6558353584268392E-002           3       28671           0
</event>
<event>
      5   9999  3.79277E-02  2.65555E+01 -1.00000E+00  1.56812E-01
      21    -1     0     0   502   501  0.000000000E+00  0.000000000E+00  2.652587578E+02  2.652587578E+02  0.000000000E+00  0.00000E+00  9.000E+00
      21    -1     0     0   511   502  0.000000000E+00  0.000000000E+00 -2.929909562E+02  2.929909562E+02  0.000000000E+00  0.00000E+00  9.000E+00
      25     1     1     2     0     0 -1.244086819E+02 -3.195751978E+01 -1.744809464E+02  2.501347714E+02  1.250000000E+02  0.00000E+00  9.000E+00
      25     1     1     2     0     0  1.042248251E+02  4.921465641E+01  1.914922978E+02  2.560843546E+02  1.250000000E+02  0.00000E+00  9.000E+00
      21     1     1     2   511   501  2.018385676E+01 -1.725713663E+01 -4.474354980E+01  5.203058800E+01  4.768371582E-07  0.00000E+00  9.000E+00
#rwgt            1           1   2.4178229435166652E-002           3       28727           0
</event>
<event>
      5   9999  3.79277E-02  1.99783E+01 -1.00000E+00  1.66408E-01
      21    -1     0     0   512   501  0.000000000E+00  0.000000000E+00  5.808267620E+01  5.808267620E+01  0.000000000E+00  0.00000E+00  9.000E+00
      21    -1     0     0   501   502  0.000000000E+00  0.000000000E+00 -6.081577454E+02  6.081577454E+02  0.000000000E+00  0.00000E+00  9.000E+00
      25     1     1     2     0     0  1.021893614E+02 -4.797025966E+00 -2.085820975E+02  2.638127526E+02  1.250000000E+02  0.00000E+00  9.000E+00
      25     1     1     2     0     0 -1.207220374E+02  1.225833120E+01 -3.404366666E+02  3.824214965E+02  1.250000000E+02  0.00000E+00  9.000E+00
      21     1     1     2   512   502  1.853267603E+01 -7.461305236E+00 -1.056305060E+00  2.000617248E+01  8.161702119E-08  0.00000E+00  9.000E+00
#rwgt            1           1   4.6219005974650708E-002           3       28877           0
</event>
<event>
      5   9999  3.79277E-02  1.93763E+01 -1.00000E+00  1.67512E-01
      21    -1     0     0   502   501  0.000000000E+00  0.000000000E+00  4.183830345E+02  4.183830345E+02  0.000000000E+00  0.00000E+00  9.000E+00
      21    -1     0     0   501   511  0.000000000E+00  0.000000000E+00 -3.827494501E+02  3.827494501E+02  0.000000000E+00  0.00000E+00  9.000E+00
      25     1     1     2     0     0 -1.971140402E+02  2.772278374E+02  1.833143534E+02  4.061260529E+02  1.250000000E+02  0.00000E+00  9.000E+00
      25     1     1     2     0     0  1.954024014E+02 -2.579272533E+02 -1.418339338E+02  3.747671694E+02  1.250000000E+02  0.00000E+00  9.000E+00
      21     1     1     2   502   511  1.711638857E+00 -1.930058416E+01 -5.846835122E+00  2.023926228E+01  2.920019320E-07  0.00000E+00  9.000E+00
#rwgt            1           1  0.15746373157678339                3       29016           0
</event>
<event>
      5   9999  3.79277E-02  1.41122E+01 -1.00000E+00  1.79917E-01
      21    -1     0     0   502   501  0.000000000E+00  0.000000000E+00  3.007455979E+01  3.007455979E+01  0.000000000E+00  0.00000E+00  9.000E+00
      21    -1     0     0   501   512  0.000000000E+00  0.000000000E+00 -1.320304279E+03  1.320304279E+03  0.000000000E+00  0.00000E+00  9.000E+00
      25     1     1     2     0     0 -4.348541277E+01  7.384171079E+01 -2.132805673E+02  2.616432299E+02  1.250000000E+02  0.00000E+00  9.000E+00
      25     1     1     2     0     0  3.335877832E+01 -6.401291468E+01 -9.334962076E+02  9.445901921E+02  1.250000000E+02  0.00000E+00  9.000E+00
      21     1     1     2   502   512  1.012663445E+01 -9.828796105E+00 -1.434529447E+02  1.441454172E+02  0.000000000E+00  0.00000E+00  9.000E+00
#rwgt            1           1   4.0872337107038768E-002           3       29314           0
</event>
<event>
      5   9999  3.79277E-02  5.10342E+01 -1.00000E+00  1.38570E-01
      21    -1     0     0   502   501  0.000000000E+00  0.000000000E+00  3.218886767E+02  3.218886767E+02  0.000000000E+00  0.00000E+00  9.000E+00
      21    -1     0     0   501   511  0.000000000E+00  0.000000000E+00 -4.283174264E+02  4.283174264E+02  0.000000000E+00  0.00000E+00  9.000E+00
      25     1     1     2     0     0  2.652408835E+02  1.890516325E+02 -7.153812528E+01  3.561403508E+02  1.250000000E+02  0.00000E+00  9.000E+00
      25     1     1     2     0     0 -2.665380293E+02 -1.380339071E+02  1.114164944E+01  3.253383115E+02  1.250000000E+02  0.00000E+00  9.000E+00
      21     1     1     2   502   511  1.297145741E+00 -5.101772543E+01 -4.603227383E+01  6.872744087E+01  6.743495762E-07  0.00000E+00  9.000E+00
#rwgt            1           1   2.4923901403902667E-002           3       29566           0
</event>
<event>
      5   9999  3.79277E-02  1.18720E+02 -1.00000E+00  1.20566E-01
      21    -1     0     0   512   501  0.000000000E+00  0.000000000E+00  1.633248729E+03  1.633248729E+03  0.000000000E+00  0.00000E+00  9.000E+00
      21    -1     0     0   501   502  0.000000000E+00  0.000000000E+00 -8.291702643E+01  8.291702643E+01  0.000000000E+00  0.00000E+00  9.000E+00
      25     1     1     2     0     0 -1.198674417E+02  2.240993743E+02  2.903429470E+02  4.056017258E+02  1.250000000E+02  0.00000E+00  9.000E+00
      25     1     1     2     0     0  6.328979948E+01 -1.197273347E+02  3.770644705E+02  4.196937553E+02  1.250000000E+02  0.00000E+00  9.000E+00
      21     1     1     2   512   502  5.657764226E+01 -1.043720396E+02  8.829242855E+02  8.908702747E+02  1.078959322E-05  0.00000E+00  9.000E+00
#rwgt            2          11   6.4824454543848927E-004           3       29733           0
</event>
<event>
      5   9999  3.79277E-02  6.62486E+01 -1.00000E+00  1.32444E-01
      21    -1     0     0   511   501  0.000000000E+00  0.000000000E+00  2.761151057E+03  2.761151057E+03  0.000000000E+00  0.00000E+00  9.000E+00
      21    -1     0     0   501   502  0.000000000E+00  0.000000000E+00 -1.086095276E+02  1.086095276E+02  0.000000000E+00  0.00000E+00  9.000E+00
      25     1     1     2     0     0 -2.918196755E+02 -1.680118546E+01  2.518680531E+02  4.055903340E+02  1.250000000E+02  0.00000E+00  9.000E+00
      25     1     1     2     0     0  2.306067396E+02  4.213599632E+01  5.351018688E+02  5.974227318E+02  1.250000000E+02  0.00000E+00  9.000E+00
      21     1     1     2   511   502  6.121293595E+01 -2.533481085E+01  1.865571607E+03  1.866747519E+03  2.157918644E-05  0.00000E+00  9.000E+00
#rwgt            2          11   2.0806309382959668E-004           3       29828           0
</event>
<event>
      5   9999  3.79277E-02  1.40710E+02 -1.00000E+00  1.17505E-01
      21    -1     0     0   502   501  0.000000000E+00  0.000000000E+00  8.676525817E+01  8.676525817E+01  0.000000000E+00  0.00000E+00  9.000E+00
       2    -1     0     0   501     0  0.000000000E+00  0.000000000E+00 -3.246733660E+03  3.246733660E+03  0.000000000E+00  0.00000E+00  9.000E+00
      25     1     1     2     0     0 -1.710295022E+02 -6.934768366E+01 -1.190746175E+03  1.211429588E+03  1.250000000E+02  0.00000E+00  9.000E+00
      25     1     1     2     0     0  3.381362125E+01  1.005104329E+02 -1.702160893E+01  1.648042574E+02  1.250000000E+02  0.00000E+00  9.000E+00
       2     1     1     2   502     0  1.372158810E+02 -3.116274922E+01 -1.952200617E+03  1.957265073E+03  3.051757812E-05  0.00000E+00  9.000E+00
#rwgt            1           1   3.4306068633093247E-002           3       29848           0
</event>
<event>
      5   9999  3.79277E-02  1.67541E+01 -1.00000E+00  1.72975E-01
      21    -1     0     0   502   511  0.000000000E+00  0.000000000E+00  8.792325475E+02  8.792325475E+02  0.000000000E+00  0.00000E+00  9.000E+00
      21    -1     0     0   501   502  0.000000000E+00  0.000000000E+00 -3.304639458E+01  3.304639458E+01  0.000000000E+00  0.00000E+00  9.000E+00
      25     1     1     2     0     0  3.758253738E+01 -9.925823534E+01  3.486366976E+02  3.852754746E+02  1.250000000E+02  0.00000E+00  9.000E+00
      25     1     1     2     0     0 -2.252447181E+01  9.191278264E+01  4.419864218E+02  4.689694111E+02  1.250000000E+02  0.00000E+00  9.000E+00
      21     1     1     2   501   511 -1.505806557E+01  7.345452700E+00  5.556303355E+01  5.803405647E+01  6.743495762E-07  0.00000E+00  9.000E+00
#rwgt            1           1   2.7316937749306359E-002           3       29935           0
</event>
<event>
      5   9999  3.79277E-02  7.88409E+01 -1.00000E+00  1.28657E-01
      -3    -1     0     0     0   501  0.000000000E+00  0.000000000E+00  3.903458371E+02  3.903458371E+02  0.000000000E+00  0.00000E+00  9.000E+00
      21    -1     0     0   501   502  0.000000000E+00  0.000000000E+00 -3.728320311E+02  3.728320311E+02  0.000000000E+00  0.00000E+00  9.000E+00
      25     1     1     2     0     0 -1.995088646E+02  2.686799629E+02  9.417179774E+01  3.694401670E+02  1.250000000E+02  0.00000E+00  9.000E+00
      25     1     1     2     0     0  1.969381396E+02 -1.898810257E+02 -8.961422145E+01  3.138393593E+02  1.250000000E+02  0.00000E+00  9.000E+00
      -3     1     1     2     0   502  2.570724993E+00 -7.879893724E+01  1.295622974E+01  7.989834182E+01  1.261592536E-06  0.00000E+00  9.000E+00
#rwgt            1           1   3.4713156923017199E-002           3       30178           0
</event>
<event>
      5   9999  3.79277E-02  7.93057E+01 -1.00000E+00  1.28533E-01
      21    -1     0     0   511   501  0.000000000E+00  0.000000000E+00  7.163172371E+02  7.163172371E+02  0.000000000E+00  0.00000E+00  9.000E+00
      21    -1     0     0   501   502  0.000000000E+00  0.000000000E+00 -1.012058188E+02  1.012058188E+02  0.000000000E+00  0.00000E+00  9.000E+00
      25     1     1     2     0     0 -6.484850050E+01 -1.311669791E+02  1.522863922E+02  2.454103699E+02  1.250000000E+02  0.00000E+00  9.000E+00
      25     1     1     2     0     0 -4.953505379E+00  1.688110856E+02  1.746376288E+02  2.732124105E+02  1.250000000E+02  0.00000E+00  9.000E+00
      21     1     1     2   511   502  6.980200588E+01 -3.764410656E+01  2.881873973E+02  2.989002756E+02  5.394796609E-06  0.00000E+00  9.000E+00
#rwgt            1           1   9.1576741242216462E-003           3       30400           0
</event>
<event>
      5   9999  3.79277E-02  9.37144E+01 -1.00000E+00  1.25109E-01
      21    -1     0     0   502   512  0.000000000E+00  0.000000000E+00  4.641939732E+02  4.641939732E+02  0.000000000E+00  0.00000E+00  9.000E+00
      21    -1     0     0   501   502  0.000000000E+00  0.000000000E+00 -1.740773581E+02  1.740773581E+02  0.000000000E+00  0.00000E+00  9.000E+00
      25     1     1     2     0     0  1.241988208E+02 -6.889109448E+01  2.028184831E+02  2.773655838E+02  1.250000000E+02  0.00000E+00  9.000E+00
      25     1     1     2     0     0 -3.530724634E+01  3.921475179E+01 -8.828720390E+01  1.618765850E+02  1.250000000E+02  0.00000E+00  9.000E+00
      21     1     1     2   501   512 -8.889157444E+01  2.967634269E+01  1.755853359E+02  1.990291624E+02  3.303624740E-06  0.00000E+00  9.000E+00
#rwgt            1           1   4.0241084542599288E-002           3       30496           0
</event>
<event>
      5   9999  3.79277E-02  1.47685E+02 -1.00000E+00  1.16662E-01
       1    -1     0     0   502     0  0.000000000E+00  0.000000000E+00  1.902073840E+03  1.902073840E+03  0.000000000E+00  0.00000E+00  9.000E+00
      21    -1     0     0   501   502  0.000000000E+00  0.000000000E+00 -4.055588947E+01  4.055588947E+01  0.000000000E+00  0.00000E+00  9.000E+00
      25     1     1     2     0     0  8.119974781E+01 -3.348521023E+01  2.867162385E+02  3.248782230E+02  1.250000000E+02  0.00000E+00  9.000E+00
      25     1     1     2     0     0 -1.592488733E+02 -9.189116173E+01  9.770538597E+02  1.002029657E+03  1.250000000E+02  0.00000E+00  9.000E+00
       1     1     1     2   501     0  7.804912554E+01  1.253763720E+02  5.977478518E+02  6.157218487E+02  7.629394531E-06  0.00000E+00  9.000E+00
#rwgt            1           1   3.0562778609678615E-002           3       30612           0
</event>
<event>
      5   9999  3.79277E-02  2.88342E+01 -1.00000E+00  1.54245E-01
      21    -1     0     0   502   501  0.000000000E+00  0.000000000E+00  2.474295719E+02  2.474295719E+02  0.000000000E+00  0.00000E+00  9.000E+00
      21    -1     0     0   511   502  0.000000000E+00  0.000000000E+00 -3.884936612E+02  3.884936612E+02  0.000000000E+00  0.00000E+00  9.000E+00
      25     1     1     2     0     0  8.655853299E+01  1.142247956E+02 -1.227063584E+02  2.263217487E+02  1.250000000E+02  0.00000E+00  9.000E+00
      25     1     1     2     0     0 -1.145225844E+02 -1.212550364E+02  1.384120094E+02  2.502020994E+02  1.250000000E+02  0.00000E+00  9.000E+00
      21     1     1     2   511   501  2.796405138E+01  7.030240783E+00 -1.567697404E+02  1.593993850E+02  2.697398305E-06  0.00000E+00  9.000E+00
#rwgt            1           1   2.0463435898263441E-002           3       30656           0
</event>
<event>
      5   9999  3.79277E-02  2.48483E+01 -1.00000E+00  1.58949E-01
      21    -1     0     0   512   501  0.000000000E+00  0.000000000E+00  4.871812898E+02  4.871812898E+02  0.000000000E+00  0.00000E+00  9.000E+00
      21    -1     0     0   501   502  0.000000000E+00  0.000000000E+00 -2.045281401E+02  2.045281401E+02  0.000000000E+00  0.00000E+00  9.000E+00
      25     1     1     2     0     0 -2.661491646E+02  4.264979449E+01  2.912346604E+01  2.985423907E+02  1.250000000E+02  0.00000E+00  9.000E+00
      25     1     1     2     0     0  2.413050903E+02 -4.219297488E+01  2.249596261E+02  3.553030074E+02  1.250000000E+02  0.00000E+00  9.000E+00
      21     1     1     2   512   502  2.484407432E+01 -4.568196082E-01  2.857005749E+01  3.786403172E+01  4.768371582E-07  0.00000E+00  9.000E+00
#rwgt            1           1   4.0423831145367052E-002           3       30768           0
</event>
<event>
      5   9999  3.79277E-02  1.48936E+02 -1.00000E+00  1.16516E-01
      21    -1     0     0   502   511  0.000000000E+00  0.000000000E+00  7.857497778E+02  7.857497778E+02  0.000000000E+00  0.00000E+00  9.000E+00
      21    -1     0     0   501   502  0.000000000E+00  0.000000000E+00 -2.990564788E+02  2.990564788E+02  0.000000000E+00  0.00000E+00  9.000E+00
      25     1     1     2     0     0  1.021074462E+02 -1.608840894E+02  4.271576885E+02  4.841469938E+02  1.250000000E+02  0.00000E+00  9.000E+00
      25     1     1     2     0     0 -1.580281565E+02  2.284484242E+01 -2.104939124E+02  2.922797842E+02  1.250000000E+02  0.00000E+00  9.000E+00
      21     1     1     2   501   511  5.592071037E+01  1.380392470E+02  2.700295230E+02  3.083794787E+02  3.814697266E-06  0.00000E+00  9.000E+00
#rwgt            1           1   4.3070210739701145E-002           3       30878           0
</event>
<event>
      5   9999  3.79277E-02  6.66671E+01 -1.00000E+00  1.32303E-01
      21    -1     0     0   502   501  0.000000000E+00  0.000000000E+00  2.432499098E+03  2.432499098E+03  0.000000000E+00  0.00000E+00  9.000E+00
       1    -1     0     0   501     0  0.000000000E+00  0.000000000E+00 -2.290407391E+01  2.290407391E+01  0.000000000E+00  0.00000E+00  9.000E+00
      25     1     1     2     0     0 -2.696937843E+01  2.237372998E+01  1.840699922E+03  1.845272103E+03  1.250000000E+02  0.00000E+00  9.000E+00
      25     1     1     2     0     0  7.602220516E+01  2.277399840E+01  4.511112847E+02  4.747888181E+02  1.250000000E+02  0.00000E+00  9.000E+00
       1     1     1     2   502     0 -4.905282673E+01 -4.514772838E+01  1.177838171E+02  1.353422504E+02  1.348699152E-06  0.00000E+00  9.000E+00
#rwgt            1           1   8.5503985091298140E-002           3       30978           0
</event>
<event>
      5   9999  3.79277E-02  1.05839E+02 -1.00000E+00  1.22730E-01
      21    -1     0     0   502   501  0.000000000E+00  0.000000000E+00  7.293352921E+01  7.293352921E+01  0.000000000E+00  0.00000E+00  9.000E+00
      21    -1     0     0   511   502  0.000000000E+00  0.000000000E+00 -1.420126763E+03  1.420126763E+03  0.000000000E+00  0.00000E+00  9.000E+00
      25     1     1     2     0     0  1.284006843E+02 -1.972650880E+02 -3.159424684E+02  4.133338772E+02  1.250000000E+02  0.00000E+00  9.000E+00
      25     1     1     2     0     0 -3.146823634E+01  1.547690615E+02 -5.202228744E+02  5.578535214E+02  1.250000000E+02  0.00000E+00  9.000E+00
      21     1     1     2   511   501 -9.693244799E+01  4.249602653E+01 -5.110278906E+02  5.218728932E+02  5.394796609E-06  0.00000E+00  9.000E+00
#rwgt            1           1   3.9491809371768008E-002           3       31098           0
</event>
<event>
      5   9999  3.79277E-02  1.03461E+01 -1.00000E+00  1.94065E-01
      21    -1     0     0   502   512  0.000000000E+00  0.000000000E+00  4.731826884E+02  4.731826884E+02  0.000000000E+00  0.00000E+00  9.000E+00
      21    -1     0     0   501   502  0.000000000E+00  0.000000000E+00 -7.534041203E+01  7.534041203E+01  0.000000000E+00  0.00000E+00  9.000E+00
      25     1     1     2     0     0  4.872041207E+01 -2.490759046E+01  3.265300447E+02  3.538939625E+02  1.250000000E+02  0.00000E+00  9.000E+00
      25     1     1     2     0     0 -4.360654770E+01  3.390143629E+01  1.512122824E+01  1.374935996E+02  1.250000000E+02  0.00000E+00  9.000E+00
      21     1     1     2   501   512 -5.113864367E+00 -8.993845836E+00  5.619100345E+01  5.713553833E+01  0.000000000E+00  0.00000E+00  9.000E+00
#rwgt            1           1   4.6463340342333168E-002           3       31179           0
</event>
<event>
      5   9999 -3.79277E-02  1.17201E+02 -1.00000E+00  1.20805E-01
      21    -1     0     0   511   501  0.000000000E+00  0.000000000E+00  8.231656394E+02  8.231656394E+02  0.000000000E+00  0.00000E+00  9.000E+00
      21    -1     0     0   501   502  0.000000000E+00  0.000000000E+00 -3.075439819E+02  3.075439819E+02  0.000000000E+00  0.00000E+00  9.000E+00
      25     1     1     2     0     0 -6.214312756E+01 -2.755673998E+02  1.391359698E+02  3.387963669E+02  1.250000000E+02  0.00000E+00  9.000E+00
      25     1     1     2     0     0  1.783970074E+02  2.606959049E+02 -5.557346693E+01  3.442401158E+02  1.250000000E+02  0.00000E+00  9.000E+00
      21     1     1     2   511   502 -1.162538799E+02  1.487149488E+01  4.320591546E+02  4.476731386E+02  0.000000000E+00  0.00000E+00  9.000E+00
#rwgt            1           1  -1.8057586500867726E-002           3       31547           0
</event>
<event>
      5   9999  3.79277E-02  2.62937E+01 -1.00000E+00  1.57127E-01
      21    -1     0     0   502   512  0.000000000E+00  0.000000000E+00  5.675464331E+02  5.675464331E+02  0.000000000E+00  0.00000E+00  9.000E+00
      21    -1     0     0   501   502  0.000000000E+00  0.000000000E+00 -2.288753602E+02  2.288753602E+02  0.000000000E+00  0.00000E+00  9.000E+00
      25     1     1     2     0     0 -1.401616078E+02 -1.701592042E+02 -2.689850560E+01  2.548488977E+02  1.250000000E+02  0.00000E+00  9.000E+00
      25     1     1     2     0     0  1.664271902E+02  1.713745801E+02  1.208770029E+02  2.954716673E+02  1.250000000E+02  0.00000E+00  9.000E+00
      21     1     1     2   501   512 -2.626558244E+01 -1.215375909E+00  2.446925756E+02  2.461012282E+02  0.000000000E+00  0.00000E+00  9.000E+00
#rwgt            1           1   3.3820753270349245E-002           3       31626           0
</event>
<event>
      5   9999  3.79277E-02  2.19498E+02 -1.00000E+00  1.10197E-01
      21    -1     0     0   502   501  0.000000000E+00  0.000000000E+00  1.672285100E+02  1.672285100E+02  0.000000000E+00  0.00000E+00  9.000E+00
       2    -1     0     0   501     0  0.000000000E+00  0.000000000E+00 -1.920456257E+03  1.920456257E+03  0.000000000E+00  0.00000E+00  9.000E+00
      25     1     1     2     0     0 -1.561697957E+01 -2.906391035E+02 -1.195172937E+02  3.385621982E+02  1.250000000E+02  0.00000E+00  9.000E+00
      25     1     1     2     0     0 -1.442243697E+02  1.402059400E+02 -2.361853692E+02  3.344650999E+02  1.250000000E+02  0.00000E+00  9.000E+00
       2     1     1     2   502     0  1.598413493E+02  1.504331635E+02 -1.397525085E+03  1.414657469E+03  1.525878906E-05  0.00000E+00  9.000E+00
#rwgt            2          13   1.4507139445266743E-003           3       31794           0
</event>
<event>
      5   9999  3.79277E-02  4.16240E+01 -1.00000E+00  1.43776E-01
      21    -1     0     0   502   511  0.000000000E+00  0.000000000E+00  5.221809706E+02  5.221809706E+02  0.000000000E+00  0.00000E+00  9.000E+00
      21    -1     0     0   501   502  0.000000000E+00  0.000000000E+00 -4.970495311E+02  4.970495311E+02  0.000000000E+00  0.00000E+00  9.000E+00
      25     1     1     2     0     0  6.680157272E+00 -5.282066202E+01 -4.100740302E+02  4.319957837E+02  1.250000000E+02  0.00000E+00  9.000E+00
      25     1     1     2     0     0  2.631125719E+01  7.820024890E+01 -2.692200813E-01  1.497752772E+02  1.250000000E+02  0.00000E+00  9.000E+00
      21     1     1     2   501   511 -3.299141447E+01 -2.537958688E+01  4.354746898E+02  4.374594408E+02  0.000000000E+00  0.00000E+00  9.000E+00
#rwgt            1           1   3.7230308785870289E-002           3       31888           0
</event>
<event>
      5   9999  3.79277E-02  4.65033E+01 -1.00000E+00  1.40896E-01
      21    -1     0     0   502   512  0.000000000E+00  0.000000000E+00  7.667516178E+01  7.667516178E+01  0.000000000E+00  0.00000E+00  9.000E+00
      21    -1     0     0   501   502  0.000000000E+00  0.000000000E+00 -1.108291133E+03  1.108291133E+03  0.000000000E+00  0.00000E+00  9.000E+00
      25     1     1     2     0     0  2.214173146E+02  1.351784856E+01 -7.608145913E+02  8.022918433E+02  1.250000000E+02  0.00000E+00  9.000E+00
      25     1     1     2     0     0 -1.764366775E+02 -1.715368573E+00 -2.531580809E+02  3.329367171E+02  1.250000000E+02  0.00000E+00  9.000E+00
      21     1     1     2   501   512 -4.498063705E+01 -1.180247998E+01 -1.764329930E+01  4.973773471E+01  7.539457465E-07  0.00000E+00  9.000E+00
#rwgt            1           1   2.3493503127378579E-002           3       32020           0
</event>
<event>
      5   9999  3.79277E-02  4.41707E+01 -1.00000E+00  1.42218E-01
      21    -1     0     0   511   501  0.000000000E+00  0.000000000E+00  2.375281805E+02  2.375281805E+02  0.000000000E+00  0.00000E+00  9.000E+00
      21    -1     0     0   501   502  0.000000000E+00  0.000000000E+00 -2.452926733E+02  2.452926733E+02  0.000000000E+00  0.00000E+00  9.000E+00
      25     1     1     2     0     0  8.228643239E+01 -7.471968750E+01 -1.669688836E+02  2.363423296E+02  1.250000000E+02  0.00000E+00  9.000E+00
      25     1     1     2     0     0 -4.437997784E+01  5.204478563E+01  1.341208813E+02  1.956825310E+02  1.250000000E+02  0.00000E+00  9.000E+00
      21     1     1     2   511   502 -3.790645456E+01  2.267490187E+01  2.508350954E+01  5.079599318E+01  1.066240300E-06  0.00000E+00  9.000E+00
#rwgt            1           1   4.5018794764526526E-002           3       32125           0
</event>
<event>
      5   9999  3.79277E-02  7.31611E+01 -1.00000E+00  1.30257E-01
      21    -1     0     0   502   501  0.000000000E+00  0.000000000E+00  1.077571728E+02  1.077571728E+02  0.000000000E+00  0.00000E+00  9.000E+00
       2    -1     0     0   501     0  0.000000000E+00  0.000000000E+00 -6.635396988E+02  6.635396988E+02  0.000000000E+00  0.00000E+00  9.000E+00
      25     1     1     2     0     0 -2.245487284E+01 -1.001323010E+02 -1.352833505E+02  2.108489600E+02  1.250000000E+02  0.00000E+00  9.000E+00
      25     1     1     2     0     0  8.058956079E+01  1.445496158E+02 -9.733073232E+01  2.291015936E+02  1.250000000E+02  0.00000E+00  9.000E+00
       2     1     1     2   502     0 -5.813468795E+01 -4.441731480E+01 -3.231684432E+02  3.313463180E+02  6.607249480E-06  0.00000E+00  9.000E+00
#rwgt            1           1   4.3264565242449690E-002           3       32250           0
</event>
<event>
      5   9999  3.79277E-02  2.55581E+01 -1.00000E+00  1.58036E-01
      21    -1     0     0   502   511  0.000000000E+00  0.000000000E+00  1.272360356E+02  1.272360356E+02  0.000000000E+00  0.00000E+00  9.000E+00
      21    -1     0     0   501   502  0.000000000E+00  0.000000000E+00 -1.168936173E+03  1.168936173E+03  0.000000000E+00  0.00000E+00  9.000E+00
      25     1     1     2     0     0  1.882436330E+02 -2.304869306E+02 -2.164047432E+02  3.886076471E+02  1.250000000E+02  0.00000E+00  9.000E+00
      25     1     1     2     0     0 -1.934854340E+02  2.555016873E+02 -8.032385537E+02  8.738048407E+02  1.250000000E+02  0.00000E+00  9.000E+00
      21     1     1     2   501   511  5.241801031E+00 -2.501475669E+01 -2.205684026E+01  3.375972057E+01  6.743495762E-07  0.00000E+00  9.000E+00
#rwgt            1           1   4.5522062020750501E-002           3       32328           0
</event>
<event>
      5   9999  3.79277E-02  4.81989E+01 -1.00000E+00  1.39991E-01
       2    -1     0     0   502     0  0.000000000E+00  0.000000000E+00  1.124388621E+03  1.124388621E+03  0.000000000E+00  0.00000E+00  9.000E+00
      21    -1     0     0   501   502  0.000000000E+00  0.000000000E+00 -3.984913363E+02  3.984913363E+02  0.000000000E+00  0.00000E+00  9.000E+00
      25     1     1     2     0     0 -1.511313807E+02  2.174898640E+01 -2.729208703E+02  3.367855610E+02  1.250000000E+02  0.00000E+00  9.000E+00
      25     1     1     2     0     0  1.061146076E+02 -4.526231970E+00 -2.079490483E+01  1.653427494E+02  1.250000000E+02  0.00000E+00  9.000E+00
       2     1     1     2   501     0  4.501677312E+01 -1.722275443E+01  1.019613060E+03  1.020751647E+03  1.078959322E-05  0.00000E+00  9.000E+00
#rwgt            1           1   4.5757684417131794E-002           3       32552           0
</event>
<event>
      5   9999  3.79277E-02  7.50836E+01 -1.00000E+00  1.29697E-01
      21    -1     0     0   502   501  0.000000000E+00  0.000000000E+00  1.560273049E+02  1.560273049E+02  0.000000000E+00  0.00000E+00  9.000E+00
      21    -1     0     0   501   511  0.000000000E+00  0.000000000E+00 -4.096158531E+02  4.096158531E+02  0.000000000E+00  0.00000E+00  9.000E+00
      25     1     1     2     0     0 -1.248396647E+02 -8.992677266E+01  3.354501532E+01  2.010523175E+02  1.250000000E+02  0.00000E+00  9.000E+00
      25     1     1     2     0     0  6.304908627E+01  4.727155473E+01 -1.676622111E+02  2.234846845E+02  1.250000000E+02  0.00000E+00  9.000E+00
      21     1     1     2   502   511  6.179057842E+01  4.265521793E+01 -1.194713525E+02  1.411061560E+02  1.907348633E-06  0.00000E+00  9.000E+00
#rwgt            1           1   3.7530379023956742E-002           3       32710           0
</event>
<event>
      5   9999  3.79277E-02  7.57104E+01 -1.00000E+00  1.29519E-01
      21    -1     0     0   512   501  0.000000000E+00  0.000000000E+00  9.589981872E+02  9.589981872E+02  0.000000000E+00  0.00000E+00  9.000E+00
      21    -1     0     0   501   502  0.000000000E+00  0.000000000E+00 -1.010118908E+02  1.010118908E+02  0.000000000E+00  0.00000E+00  9.000E+00
      25     1     1     2     0     0 -1.018786275E+01 -2.629957209E+02  2.658854567E+02  3.944497659E+02  1.250000000E+02  0.00000E+00  9.000E+00
      25     1     1     2     0     0  2.141176761E+01  1.881219098E+02  4.699545628E+02  5.218530520E+02  1.250000000E+02  0.00000E+00  9.000E+00
      21     1     1     2   512   502 -1.122390486E+01  7.487381110E+01  1.221462769E+02  1.437072600E+02  1.907348633E-06  0.00000E+00  9.000E+00
#rwgt            1           1   3.8206239034611664E-002           3       32774           0
</event>
<event>
      5   9999  3.79277E-02  2.52170E+01 -1.00000E+00  1.58470E-01
      21    -1     0     0   511   501  0.000000000E+00  0.000000000E+00  6.420973314E+02  6.420973314E+02  0.000000000E+00  0.00000E+00  9.000E+00
      21    -1     0     0   501   502  0.000000000E+00  0.000000000E+00 -8.234583037E+02  8.234583037E+02  0.000000000E+00  0.00000E+00  9.000E+00
      25     1     1     2     0     0 -8.586324501E+01  4.569780481E+00 -7.712239420E+02  7.860055652E+02  1.250000000E+02  0.00000E+00  9.000E+00
      25     1     1     2     0     0  1.046770110E+02 -2.136085331E+01  1.073388938E+02  1.963675146E+02  1.250000000E+02  0.00000E+00  9.000E+00
      21     1     1     2   511   502 -1.881376599E+01  1.679107282E+01  4.825240759E+02  4.831825553E+02  7.629394531E-06  0.00000E+00  9.000E+00
#rwgt            1           1   4.7409828463568914E-002           3       32909           0
</event>
<event>
      5   9999  3.79277E-02  7.01141E+01 -1.00000E+00  1.31185E-01
      21    -1     0     0   512   501  0.000000000E+00  0.000000000E+00  9.675716072E+02  9.675716072E+02  0.000000000E+00  0.00000E+00  9.000E+00
      21    -1     0     0   501   502  0.000000000E+00  0.000000000E+00 -8.715228198E+01  8.715228198E+01  0.000000000E+00  0.00000E+00  9.000E+00
      25     1     1     2     0     0  2.560577586E+01  2.663453654E+01 -1.426145039E+01  1.311237708E+02  1.250000000E+02  0.00000E+00  9.000E+00
      25     1     1     2     0     0 -1.884519208E+01 -9.642197417E+01  6.024193070E+02  6.230460334E+02  1.250000000E+02  0.00000E+00  9.000E+00
      21     1     1     2   512   502 -6.760583783E+00  6.978743763E+01  2.922614686E+02  3.005540850E+02  3.814697266E-06  0.00000E+00  9.000E+00
#rwgt            1           1   4.1114963289565584E-002           3       33131           0
</event>
<event>
      5   9999  3.79277E-02  3.45794E+01 -1.00000E+00  1.48875E-01
      21    -1     0     0   502   501  0.000000000E+00  0.000000000E+00  1.031843010E+02  1.031843010E+02  0.000000000E+00  0.00000E+00  9.000E+00
      21    -1     0     0   501   511  0.000000000E+00  0.000000000E+00 -4.212655479E+02  4.212655479E+02  0.000000000E+00  0.00000E+00  9.000E+00
      25     1     1     2     0     0  6.989091022E+01  1.406800078E+02 -1.467475303E+02  2.486673312E+02  1.250000000E+02  0.00000E+00  9.000E+00
      25     1     1     2     0     0 -7.635620524E+01 -1.067103416E+02 -1.383882565E+02  2.280212196E+02  1.250000000E+02  0.00000E+00  9.000E+00
      21     1     1     2   502   511  6.465295023E+00 -3.396966622E+01 -3.294546002E+01  4.776129813E+01  6.743495762E-07  0.00000E+00  9.000E+00
#rwgt            1           1   3.4708924823770297E-002           3       33224           0
</event>
<event>
      5   9999  3.79277E-02  2.48678E+00 -1.00000E+00  3.24005E-01
      21    -1     0     0   502   512  0.000000000E+00  0.000000000E+00  1.053823515E+02  1.053823515E+02  0.000000000E+00  0.00000E+00  9.000E+00
      21    -1     0     0   501   502  0.000000000E+00  0.000000000E+00 -2.426955749E+03  2.426955749E+03  0.000000000E+00  0.00000E+00  9.000E+00
      25     1     1     2     0     0 -1.561893491E+02  7.482358508E+01 -1.140602874E+03  1.160428195E+03  1.250000000E+02  0.00000E+00  9.000E+00
      25     1     1     2     0     0  1.575008701E+02 -7.693640398E+01 -1.267344067E+03  1.285500571E+03  1.250000000E+02  0.00000E+00  9.000E+00
      21     1     1     2   501   512 -1.311521027E+00  2.112818900E+00  8.637354288E+01  8.640933399E+01  4.768371582E-06  0.00000E+00  9.000E+00
#rwgt            1           1   5.4078809082089917E-002           3       33432           0
</event>
<event>
      5   9999  3.79277E-02  7.83182E+01 -1.00000E+00  1.28798E-01
      -2    -1     0     0     0   501  0.000000000E+00  0.000000000E+00  5.510562949E+02  5.510562949E+02  0.000000000E+00  0.00000E+00  9.000E+00
      21    -1     0     0   501   502  0.000000000E+00  0.000000000E+00 -3.202095243E+02  3.202095243E+02  0.000000000E+00  0.00000E+00  9.000E+00
      25     1     1     2     0     0  1.715248593E+01  4.495256175E+01  9.067854254E+01  1.617483807E+02  1.250000000E+02  0.00000E+00  9.000E+00
      25     1     1     2     0     0 -9.453039308E+01 -3.285268735E+01 -2.580372755E+02  3.036832722E+02  1.250000000E+02  0.00000E+00  9.000E+00
      -2     1     1     2     0   502  7.737790715E+01 -1.209987439E+01  3.982055035E+02  4.058341663E+02  0.000000000E+00  0.00000E+00  9.000E+00
#rwgt            1           1   4.6897587206117863E-002           3       33998           0
</event>
<event>
      5   9999  3.79277E-02  9.43347E+01 -1.00000E+00  1.24978E-01
      21    -1     0     0   502   511  0.000000000E+00  0.000000000E+00  9.652069720E+02  9.652069720E+02  0.000000000E+00  0.00000E+00  9.000E+00
      21    -1     0     0   501   502  0.000000000E+00  0.000000000E+00 -1.028726953E+02  1.028726953E+02  0.000000000E+00  0.00000E+00  9.000E+00
      25     1     1     2     0     0  1.499678002E+02 -2.152263650E+02  5.162637364E+02  5.924238136E+02  1.250000000E+02  0.00000E+00  9.000E+00
      25     1     1     2     0     0 -7.458495811E+01  1.585124262E+02  1.639136802E+02  2.705213481E+02  1.250000000E+02  0.00000E+00  9.000E+00
      21     1     1     2   501   511 -7.538284212E+01  5.671393883E+01  1.821568600E+02  2.051345056E+02  2.697398305E-06  0.00000E+00  9.000E+00
#rwgt            1           1   3.3406055081287925E-002           3       34148           0
</event>
<event>
      5   9999  3.79277E-02  8.12808E+00 -1.00000E+00  2.06773E-01
      21    -1     0     0   502   512  0.000000000E+00  0.000000000E+00  3.691394576E+02  3.691394576E+02  0.000000000E+00  0.00000E+00  9.000E+00
      21    -1     0     0   501   502  0.000000000E+00  0.000000000E+00 -2.058500490E+02  2.058500490E+02  0.000000000E+00  0.00000E+00  9.000E+00
      25     1     1     2     0     0 -7.712926647E+01 -1.269618527E+02 -8.935333466E+01  2.137223764E+02  1.250000000E+02  0.00000E+00  9.000E+00
      25     1     1     2     0     0  6.975434554E+01  1.303789037E+02  1.187676250E+02  2.271454952E+02  1.250000000E+02  0.00000E+00  9.000E+00
      21     1     1     2   501   512  7.374920931E+00 -3.417051024E+00  1.338751183E+02  1.341216350E+02  1.907348633E-06  0.00000E+00  9.000E+00
#rwgt            1           1   4.3615818475926250E-002           3       34250           0
</event>
<event>
      5   9999  3.79277E-02  1.90138E+01 -1.00000E+00  1.68202E-01
      21    -1     0     0   502   511  0.000000000E+00  0.000000000E+00  2.431195727E+02  2.431195727E+02  0.000000000E+00  0.00000E+00  9.000E+00
      21    -1     0     0   501   502  0.000000000E+00  0.000000000E+00 -2.109861803E+02  2.109861803E+02  0.000000000E+00  0.00000E+00  9.000E+00
      25     1     1     2     0     0 -8.678406457E+01  8.696309013E+01  2.230363266E+01  1.766819316E+02  1.250000000E+02  0.00000E+00  9.000E+00
      25     1     1     2     0     0  9.122074444E+01 -1.054520085E+02 -6.653382138E+01  1.987287088E+02  1.250000000E+02  0.00000E+00  9.000E+00
      21     1     1     2   501   511 -4.436679876E+00  1.848891835E+01  7.636358112E+01  7.869511262E+01  9.536743164E-07  0.00000E+00  9.000E+00
#rwgt            1           1   3.7926028322235864E-002           3       34691           0
</event>
<event>
      5   9999  3.79277E-02  1.34466E+02 -1.00000E+00  1.18307E-01
      21    -1     0     0   502   512  0.000000000E+00  0.000000000E+00  3.755325831E+02  3.755325831E+02  0.000000000E+00  0.00000E+00  9.000E+00
      21    -1     0     0   501   502  0.000000000E+00  0.000000000E+00 -5.137703839E+02  5.137703839E+02  0.000000000E+00  0.00000E+00  9.000E+00
      25     1     1     2     0     0  2.944261316E+02  1.765037670E+02 -2.427469701E+02  4.386244615E+02  1.250000000E+02  0.00000E+00  9.000E+00
      25     1     1     2     0     0 -2.698957031E+02 -4.429386699E+01  9.711332777E+01  3.160089170E+02  1.250000000E+02  0.00000E+00  9.000E+00
      21     1     1     2   501   512 -2.453042854E+01 -1.322099000E+02  7.395841599E+00  1.346695885E+02  2.339055165E-06  0.00000E+00  9.000E+00
#rwgt            2          11   3.4851209137980827E-003           3       34887           0
</event>
<event>
      5   9999  3.79277E-02  6.99782E+00 -1.00000E+00  2.15573E-01
      21    -1     0     0   502   501  0.000000000E+00  0.000000000E+00  2.898010962E+02  2.898010962E+02  0.000000000E+00  0.00000E+00  9.000E+00
      21    -1     0     0   511   502  0.000000000E+00  0.000000000E+00 -1.330848420E+02  1.330848420E+02  0.000000000E+00  0.00000E+00  9.000E+00
      25     1     1     2     0     0 -3.792993357E+01  1.170299997E+02  1.550694677E+02  2.341073269E+02  1.250000000E+02  0.00000E+00  9.000E+00
      25     1     1     2     0     0  4.480832469E+01 -1.183173166E+02  9.690405740E+00  1.781170327E+02  1.250000000E+02  0.00000E+00  9.000E+00
      21     1     1     2   511   501 -6.878391116E+00  1.287316938E+00 -8.043619248E+00  1.066157868E+01  1.685873940E-07  0.00000E+00  9.000E+00
#rwgt            1           1   2.2629552039012547E-002           3       35012           0
</event>
<event>
      5   9999  3.79277E-02  2.09284E+02 -1.00000E+00  1.10935E-01
      21    -1     0     0   502   501  0.000000000E+00  0.000000000E+00  5.054887061E+02  5.054887061E+02  0.000000000E+00  0.00000E+00  9.000E+00
       1    -1     0     0   501     0  0.000000000E+00  0.000000000E+00 -1.469313769E+03  1.469313769E+03  0.000000000E+00  0.00000E+00  9.000E+00
      25     1     1     2     0     0 -7.249986071E+01  1.929199607E+02 -2.471077099E+02  3.451978583E+02  1.250000000E+02  0.00000E+00  9.000E+00
      25     1     1     2     0     0  2.292823248E+02 -5.428696229E+01  4.069738102E+02  4.865903215E+02  1.250000000E+02  0.00000E+00  9.000E+00
       1     1     1     2   502     0 -1.567824641E+02 -1.386329984E+02 -1.123691163E+03  1.143014295E+03  0.000000000E+00  0.00000E+00  9.000E+00
#rwgt            1           1   6.1560327710336545E-002           3       35411           0
</event>
<event>
      5   9999  3.79277E-02  2.49025E+01 -1.00000E+00  1.58878E-01
      21    -1     0     0   502   501  0.000000000E+00  0.000000000E+00  1.421812361E+02  1.421812361E+02  0.000000000E+00  0.00000E+00  9.000E+00
       2    -1     0     0   501     0  0.000000000E+00  0.000000000E+00 -6.972167926E+02  6.972167926E+02  0.000000000E+00  0.00000E+00  9.000E+00
      25     1     1     2     0     0  1.424352326E+01 -1.468168574E+02 -2.819340279E+01  1.953917489E+02  1.250000000E+02  0.00000E+00  9.000E+00
      25     1     1     2     0     0 -2.530161032E+01  1.691294655E+02 -1.345954557E+02  2.509698872E+02  1.250000000E+02  0.00000E+00  9.000E+00
       2     1     1     2   502     0  1.105808707E+01 -2.231260809E+01 -3.922466981E+02  3.930363926E+02  5.394796609E-06  0.00000E+00  9.000E+00
#rwgt            1           1   3.1684719094885565E-002           3       35460           0
</event>
<event>
      5   9999  3.79277E-02  2.32794E+01 -1.00000E+00  1.61106E-01
      21    -1     0     0   502   501  0.000000000E+00  0.000000000E+00  7.256811744E+02  7.256811744E+02  0.000000000E+00  0.00000E+00  9.000E+00
      21    -1     0     0   501   511  0.000000000E+00  0.000000000E+00 -7.756800529E+01  7.756800529E+01  0.000000000E+00  0.00000E+00  9.000E+00
      25     1     1     2     0     0 -7.314264218E+01  1.172348156E+02  2.539529717E+02  3.149777133E+02  1.250000000E+02  0.00000E+00  9.000E+00
      25     1     1     2     0     0  9.275699041E+01 -1.046965070E+02  4.160069498E+02  4.563463598E+02  1.250000000E+02  0.00000E+00  9.000E+00
      21     1     1     2   502   511 -1.961434823E+01 -1.253830856E+01 -2.184675234E+01  3.192510651E+01  1.143415337E-06  0.00000E+00  9.000E+00
#rwgt            1           1   3.7428831567591712E-002           3       35626           0
</event>
<event>
      5   9999  3.79277E-02  6.61552E+01 -1.00000E+00  1.32475E-01
       5    -1     0     0   502     0  0.000000000E+00  0.000000000E+00  3.034568388E+02  3.034568388E+02  0.000000000E+00  0.00000E+00  9.000E+00
      21    -1     0     0   501   502  0.000000000E+00  0.000000000E+00 -2.523774906E+02  2.523774906E+02  0.000000000E+00  0.00000E+00  9.000E+00
      25     1     1     2     0     0 -1.548053198E+02 -1.469449061E+02  6.262050188E+01  2.551545017E+02  1.250000000E+02  0.00000E+00  9.000E+00
      25     1     1     2     0     0  9.411855795E+01  1.732817187E+02  2.977414505E-01  2.334736508E+02  1.250000000E+02  0.00000E+00  9.000E+00
       5     1     1     2   501     0  6.068676184E+01 -2.633681256E+01 -1.183889513E+01  6.720617677E+01  1.348699152E-06  0.00000E+00  9.000E+00
#rwgt            1           1   4.7287016308552775E-002           3       35788           0
</event>
<event>
      5   9999  3.79277E-02  1.00128E+02 -1.00000E+00  1.23803E-01
      21    -1     0     0   502   501  0.000000000E+00  0.000000000E+00  1.857446815E+03  1.857446815E+03  0.000000000E+00  0.00000E+00  9.000E+00
      21    -1     0     0   501   511  0.000000000E+00  0.000000000E+00 -4.806940354E+01  4.806940354E+01  0.000000000E+00  0.00000E+00  9.000E+00
      25     1     1     2     0     0  1.270302937E+01 -4.760284600E+01  1.355796787E+03  1.362438008E+03  1.250000000E+02  0.00000E+00  9.000E+00
      25     1     1     2     0     0 -8.674744113E+01  1.150048850E+02  3.525639549E+02  4.008460857E+02  1.250000000E+02  0.00000E+00  9.000E+00
      21     1     1     2   502   511  7.404441176E+01 -6.740203896E+01  1.010166689E+02  1.422321242E+02  3.015782986E-06  0.00000E+00  9.000E+00
#rwgt            1           1   5.0439702899703703E-002           3       36002           0
</event>
<event>
      5   9999  3.79277E-02  4.25693E+01 -1.00000E+00  1.43183E-01
      21    -1     0     0   512   501  0.000000000E+00  0.000000000E+00  3.008448714E+02  3.008448714E+02  0.000000000E+00  0.00000E+00  9.000E+00
      21    -1     0     0   501   502  0.000000000E+00  0.000000000E+00 -1.550580881E+02  1.550580881E+02  0.000000000E+00  0.00000E+00  9.000E+00
      25     1     1     2     0     0  1.089159506E+01  1.085015971E+01 -8.645286162E+01  1.527594517E+02  1.250000000E+02  0.00000E+00  9.000E+00
      25     1     1     2     0     0  2.875680215E+01  4.646714247E+00  9.563931071E+01  1.600638103E+02  1.250000000E+02  0.00000E+00  9.000E+00
      21     1     1     2   512   502 -3.964839721E+01 -1.549687395E+01  1.366003342E+02  1.430796974E+02  3.303624740E-06  0.00000E+00  9.000E+00
#rwgt            1           1   3.7975982650388686E-002           3       36065           0
</event>
<event>
      5   9999 -3.79277E-02  1.93404E+02 -1.00000E+00  1.12181E-01
      21    -1     0     0   502   501  0.000000000E+00  0.000000000E+00  3.143961676E+02  3.143961676E+02  0.000000000E+00  0.00000E+00  9.000E+00
      21    -1     0     0   501   511  0.000000000E+00  0.000000000E+00 -4.923011366E+02  4.923011366E+02  0.000000000E+00  0.00000E+00  9.000E+00
      25     1     1     2     0     0  1.860606411E+02  2.691085516E+02 -4.820620189E+01  3.535347404E+02  1.250000000E+02  0.00000E+00  9.000E+00
      25     1     1     2     0     0 -9.434242418E+01 -9.883580273E+01  4.714815970E+01  1.910941073E+02  1.250000000E+02  0.00000E+00  9.000E+00
      21     1     1     2   502   511 -9.171821696E+01 -1.702727489E+02 -1.768469268E+02  2.620684564E+02  1.907348633E-06  0.00000E+00  9.000E+00
#rwgt            1           1 -0.20242971710301563                3       36138           0
</event>
<event>
      5   9999  3.79277E-02  3.21113E+01 -1.00000E+00  1.51016E-01
      21    -1     0     0   502   501  0.000000000E+00  0.000000000E+00  6.686369336E+02  6.686369336E+02  0.000000000E+00  0.00000E+00  9.000E+00
      21    -1     0     0   512   502  0.000000000E+00  0.000000000E+00 -3.720328269E+02  3.720328269E+02  0.000000000E+00  0.00000E+00  9.000E+00
      25     1     1     2     0     0 -4.519373902E+01 -1.453925915E+02  3.732289067E+02  4.220264168E+02  1.250000000E+02  0.00000E+00  9.000E+00
      25     1     1     2     0     0  3.292402785E+01  1.157178166E+02  2.423541036E+02  2.980522038E+02  1.250000000E+02  0.00000E+00  9.000E+00
      21     1     1     2   512   501  1.226971117E+01  2.967477486E+01 -3.189789035E+02  3.205911399E+02  3.814697266E-06  0.00000E+00  9.000E+00
#rwgt            1           1   3.9770130517762903E-002           3       36180           0
</event>
<event>
      5   9999 -3.79277E-02  5.46688E+01 -1.00000E+00  1.36899E-01
      21    -1     0     0   502   501  0.000000000E+00  0.000000000E+00  3.708289841E+02  3.708289841E+02  0.000000000E+00  0.00000E+00  9.000E+00
      21    -1     0     0   501   511  0.000000000E+00  0.000000000E+00 -3.000570403E+02  3.000570403E+02  0.000000000E+00  0.00000E+00  9.000E+00
      25     1     1     2     0     0 -1.259764602E+02 -8.714811070E+00  8.124118387E+01  1.953743750E+02  1.250000000E+02  0.00000E+00  9.000E+00
      25     1     1     2     0     0  1.602391310E+02  5.131461977E+01  1.806598251E+02  2.767178016E+02  1.250000000E+02  0.00000E+00  9.000E+00
      21     1     1     2   502   511 -3.426267080E+01 -4.259980870E+01 -1.911290652E+02  1.987938477E+02  2.697398305E-06  0.00000E+00  9.000E+00
#rwgt            1           1  -7.5704787556798353E-002           3       36316           0
</event>
<event>
      5   9999  3.79277E-02  3.53095E+01 -1.00000E+00  1.48282E-01
      21    -1     0     0   502   512  0.000000000E+00  0.000000000E+00  1.167966577E+02  1.167966577E+02  0.000000000E+00  0.00000E+00  9.000E+00
      21    -1     0     0   501   502  0.000000000E+00  0.000000000E+00 -5.301151218E+02  5.301151218E+02  0.000000000E+00  0.00000E+00  9.000E+00
      25     1     1     2     0     0  3.440568939E+01  1.209518747E+02 -3.879652426E+02  4.265619966E+02  1.250000000E+02  0.00000E+00  9.000E+00
      25     1     1     2     0     0 -6.653771849E+01 -1.063130127E+02 -4.095463060E+01  1.817470946E+02  1.250000000E+02  0.00000E+00  9.000E+00
      21     1     1     2   501   512  3.213202910E+01 -1.463886199E+01  1.560140908E+01  3.860268824E+01  2.384185791E-07  0.00000E+00  9.000E+00
#rwgt            1           1   4.5068613349551694E-002           3       36508           0
</event>
<event>
      5   9999  3.79277E-02  3.46289E+01 -1.00000E+00  1.48834E-01
      21    -1     0     0   502   511  0.000000000E+00  0.000000000E+00  2.025953982E+02  2.025953982E+02  0.000000000E+00  0.00000E+00  9.000E+00
      21    -1     0     0   501   502  0.000000000E+00  0.000000000E+00 -6.295087243E+02  6.295087243E+02  0.000000000E+00  0.00000E+00  9.000E+00
      25     1     1     2     0     0 -2.173792894E+02  1.474502272E+02 -1.746479225E+02  3.392966575E+02  1.250000000E+02  0.00000E+00  9.000E+00
      25     1     1     2     0     0  1.898734456E+02 -1.684880358E+02 -3.135914658E+02  4.223798657E+02  1.250000000E+02  0.00000E+00  9.000E+00
      21     1     1     2   501   511  2.750584386E+01  2.103780858E+01  6.132606219E+01  7.042759928E+01  1.907348633E-06  0.00000E+00  9.000E+00
#rwgt            2          11   1.0779476727385510E-003           3       36729           0
</event>
<event>
      5   9999  3.79277E-02  2.04431E+01 -1.00000E+00  1.65588E-01
      21    -1     0     0   502   501  0.000000000E+00  0.000000000E+00  1.856777851E+02  1.856777851E+02  0.000000000E+00  0.00000E+00  9.000E+00
      21    -1     0     0   501   512  0.000000000E+00  0.000000000E+00 -3.555875076E+02  3.555875076E+02  0.000000000E+00  0.00000E+00  9.000E+00
      25     1     1     2     0     0 -1.621175956E+02 -4.827284673E+01  4.357650132E+01  2.147936079E+02  1.250000000E+02  0.00000E+00  9.000E+00
      25     1     1     2     0     0  1.824951043E+02  4.663700774E+01 -2.011261975E+02  3.025825852E+02  1.250000000E+02  0.00000E+00  9.000E+00
      21     1     1     2   502   512 -2.037750868E+01  1.635838999E+00 -1.236002635E+01  2.388909962E+01  2.384185791E-07  0.00000E+00  9.000E+00
#rwgt            1           1   3.5235193115466704E-002           3       36764           0
</event>
<event>
      5   9999  3.79277E-02  2.13207E+01 -1.00000E+00  1.64110E-01
      21    -1     0     0   502   501  0.000000000E+00  0.000000000E+00  1.128797452E+03  1.128797452E+03  0.000000000E+00  0.00000E+00  9.000E+00
      21    -1     0     0   501   511  0.000000000E+00  0.000000000E+00 -9.238251914E+01  9.238251914E+01  0.000000000E+00  0.00000E+00  9.000E+00
      25     1     1     2     0     0 -1.589224665E+01  1.391563242E+02  7.819943634E+02  8.042121800E+02  1.250000000E+02  0.00000E+00  9.000E+00
      25     1     1     2     0     0 -4.613428631E+00 -1.333175245E+02  3.086339367E+02  3.587126328E+02  1.250000000E+02  0.00000E+00  9.000E+00
      21     1     1     2   502   511  2.050567528E+01 -5.838799763E+00 -5.421336716E+01  5.825515840E+01  6.743495762E-07  0.00000E+00  9.000E+00
#rwgt            1           1   4.0075294471320744E-002           3       37034           0
</event>
<event>
      5   9999  3.79277E-02  6.07290E+01 -1.00000E+00  1.34424E-01
      21    -1     0     0   502   501  0.000000000E+00  0.000000000E+00  2.522491423E+02  2.522491423E+02  0.000000000E+00  0.00000E+00  9.000E+00
      21    -1     0     0   512   502  0.000000000E+00  0.000000000E+00 -3.689694061E+02  3.689694061E+02  0.000000000E+00  0.00000E+00  9.000E+00
      25     1     1     2     0     0  1.530721420E+02  5.902008603E+01  7.385946245E+01  2.190768619E+02  1.250000000E+02  0.00000E+00  9.000E+00
      25     1     1     2     0     0 -1.518278081E+02  1.696175202E+00  5.626907736E+00  1.967516770E+02  1.250000000E+02  0.00000E+00  9.000E+00
      21     1     1     2   512   501 -1.244333933E+00 -6.071626123E+01 -1.962066340E+02  2.053900094E+02  2.697398305E-06  0.00000E+00  9.000E+00
#rwgt            1           1   3.7056094299714334E-002           3       37262           0
</event>
<event>
      5   9999  3.79277E-02  9.42500E+01 -1.00000E+00  1.24996E-01
       3    -1     0     0   502     0  0.000000000E+00  0.000000000E+00  3.097545789E+02  3.097545789E+02  0.000000000E+00  0.00000E+00  9.000E+00
      21    -1     0     0   501   502  0.000000000E+00  0.000000000E+00 -2.501629614E+02  2.501629614E+02  0.000000000E+00  0.00000E+00  9.000E+00
      25     1     1     2     0     0  4.142651600E+01 -1.660107330E+02 -5.328112801E+01  2.184939320E+02  1.250000000E+02  0.00000E+00  9.000E+00
      25     1     1     2     0     0  4.553691785E+01  1.296730191E+02 -1.061058733E+01  1.860813997E+02  1.250000000E+02  0.00000E+00  9.000E+00
       3     1     1     2   501     0 -8.696343386E+01  3.633771392E+01  1.234833329E+02  1.553422086E+02  1.348699152E-06  0.00000E+00  9.000E+00
#rwgt            2          19   2.6415366289525038E-005           3       37345           0
</event>
<event>
      5   9999  3.79277E-02  3.11940E+01 -1.00000E+00  1.51872E-01
      21    -1     0     0   502   511  0.000000000E+00  0.000000000E+00  1.516088398E+02  1.516088398E+02  0.000000000E+00  0.00000E+00  9.000E+00
      21    -1     0     0   501   502  0.000000000E+00  0.000000000E+00 -3.572607684E+02  3.572607684E+02  0.000000000E+00  0.00000E+00  9.000E+00
      25     1     1     2     0     0  5.452349746E+01 -1.255125009E+02 -2.403059988E+02  3.034768075E+02  1.250000000E+02  0.00000E+00  9.000E+00
      25     1     1     2     0     0 -3.005454056E+01  1.061648079E+02  4.470366389E+01  1.726199855E+02  1.250000000E+02  0.00000E+00  9.000E+00
      21     1     1     2   501   511 -2.446895690E+01  1.934769307E+01 -1.004959362E+01  3.277281512E+01  3.153981341E-07  0.00000E+00  9.000E+00
#rwgt            1           1   4.8511256770093998E-002           3       37364           0
</event>
<event>
      5   9999  3.79277E-02  9.02014E+01 -1.00000E+00  1.25876E-01
       2    -1     0     0   502     0  0.000000000E+00  0.000000000E+00  6.285686871E+02  6.285686871E+02  0.000000000E+00  0.00000E+00  9.000E+00
      21    -1     0     0   501   502  0.000000000E+00  0.000000000E+00 -1.185384720E+02  1.185384720E+02  0.000000000E+00  0.00000E+00  9.000E+00
      25     1     1     2     0     0 -8.844843262E+01  1.387164177E+02  1.062691552E+02  2.323435024E+02  1.250000000E+02  0.00000E+00  9.000E+00
      25     1     1     2     0     0 -1.028532367E+00 -1.501257936E+02  1.525875464E+02  2.478845923E+02  1.250000000E+02  0.00000E+00  9.000E+00
       2     1     1     2   501     0  8.947696499E+01  1.140937590E+01  2.511735136E+02  2.668790644E+02  2.697398305E-06  0.00000E+00  9.000E+00
#rwgt            1           1   4.4567999526699348E-002           3       37626           0
</event>
<event>
      5   9999  3.79277E-02  2.30534E+02 -1.00000E+00  1.09447E-01
      21    -1     0     0   502   501  0.000000000E+00  0.000000000E+00  1.350203180E+02  1.350203180E+02  0.000000000E+00  0.00000E+00  9.000E+00
       2    -1     0     0   501     0  0.000000000E+00  0.000000000E+00 -1.382327952E+03  1.382327952E+03  0.000000000E+00  0.00000E+00  9.000E+00
      25     1     1     2     0     0  2.797064245E+02 -3.810337631E+00 -2.537939290E+02  3.978524362E+02  1.250000000E+02  0.00000E+00  9.000E+00
      25     1     1     2     0     0 -9.655790235E+01 -1.361986880E+02 -1.851056939E+02  2.788595149E+02  1.250000000E+02  0.00000E+00  9.000E+00
       2     1     1     2   502     0 -1.831485222E+02  1.400090256E+02 -8.084080112E+02  8.406363191E+02  1.525878906E-05  0.00000E+00  9.000E+00
#rwgt            1           1   3.5633807093622495E-002           3       37726           0
</event>
<event>
      5   9999  3.79277E-02  8.98628E+01 -1.00000E+00  1.25952E-01
      21    -1     0     0   511   501  0.000000000E+00  0.000000000E+00  7.516303121E+02  7.516303121E+02  0.000000000E+00  0.00000E+00  9.000E+00
      21    -1     0     0   501   502  0.000000000E+00  0.000000000E+00 -3.282628834E+02  3.282628834E+02  0.000000000E+00  0.00000E+00  9.000E+00
      25     1     1     2     0     0  1.295350548E+02 -1.201954089E+02 -5.537895470E+01  2.234235783E+02  1.250000000E+02  0.00000E+00  9.000E+00
      25     1     1     2     0     0 -1.590495974E+02  2.050730397E+02 -7.323549537E+01  2.972207325E+02  1.250000000E+02  0.00000E+00  9.000E+00
      21     1     1     2   511   502  2.951454262E+01 -8.487763087E+01  5.519818788E+02  5.592488846E+02  1.078959322E-05  0.00000E+00  9.000E+00
#rwgt            1           1   4.1231473739705170E-002           3       37800           0
</event>
<event>
      5   9999 -3.79277E-02  7.81800E+01 -1.00000E+00  1.28835E-01
      21    -1     0     0   502   501  0.000000000E+00  0.000000000E+00  2.075773466E+02  2.075773466E+02  0.000000000E+00  0.00000E+00  9.000E+00
       2    -1     0     0   501     0  0.000000000E+00  0.000000000E+00 -5.166501952E+02  5.166501952E+02  0.000000000E+00  0.00000E+00  9.000E+00
      25     1     1     2     0     0  9.954407382E+01  1.188558589E+02 -1.234520814E+02  2.343099533E+02  1.250000000E+02  0.00000E+00  9.000E+00
      25     1     1     2     0     0 -8.675363934E+01 -4.172926745E+01  1.046350725E+02  1.893172578E+02  1.250000000E+02  0.00000E+00  9.000E+00
       2     1     1     2   502     0 -1.279043449E+01 -7.712659140E+01 -2.902558397E+02  3.006003307E+02  0.000000000E+00  0.00000E+00  9.000E+00
#rwgt            1           1 -0.13268145788634328                3       37991           0
</event>
<event>
      5   9999  3.79277E-02  3.45684E+01 -1.00000E+00  1.48884E-01
       5    -1     0     0   502     0  0.000000000E+00  0.000000000E+00  6.833529145E+02  6.833529145E+02  0.000000000E+00  0.00000E+00  9.000E+00
      21    -1     0     0   501   502  0.000000000E+00  0.000000000E+00 -1.398136148E+02  1.398136148E+02  0.000000000E+00  0.00000E+00  9.000E+00
      25     1     1     2     0     0 -5.240854054E+01  1.256632725E+02  4.752821195E+01  1.908450788E+02  1.250000000E+02  0.00000E+00  9.000E+00
      25     1     1     2     0     0  7.375075232E+01 -1.528567403E+02  9.737260025E+01  2.321869501E+02  1.250000000E+02  0.00000E+00  9.000E+00
       5     1     1     2   501     0 -2.134221178E+01  2.719346775E+01  3.986384875E+02  4.001345004E+02  0.000000000E+00  0.00000E+00  9.000E+00
#rwgt            1           1   4.0932731513749987E-002           3       38049           0
</event>
<event>
      5   9999  3.79277E-02  3.23501E+01 -1.00000E+00  1.50799E-01
      -4    -1     0     0     0   501  0.000000000E+00  0.000000000E+00  2.455350706E+02  2.455350706E+02  0.000000000E+00  0.00000E+00  9.000E+00
      21    -1     0     0   501   502  0.000000000E+00  0.000000000E+00 -5.506471039E+02  5.506471039E+02  0.000000000E+00  0.00000E+00  9.000E+00
      25     1     1     2     0     0  2.172118392E+02  1.173775193E+02 -2.186543073E+02  3.526941610E+02  1.250000000E+02  0.00000E+00  9.000E+00
      25     1     1     2     0     0 -2.279313848E+02 -8.685503624E+01 -1.909903239E+02  3.340640917E+02  1.250000000E+02  0.00000E+00  9.000E+00
      -4     1     1     2     0   502  1.071954565E+01 -3.052248310E+01  1.045325979E+02  1.094239217E+02  2.697398305E-06  0.00000E+00  9.000E+00
#rwgt            2           2   1.0671046655924180E-005           3       38241           0
</event>
<event>
      5   9999  3.79277E-02  1.05988E+02 -1.00000E+00  1.22703E-01
      21    -1     0     0   502   501  0.000000000E+00  0.000000000E+00  1.678786637E+02  1.678786637E+02  0.000000000E+00  0.00000E+00  9.000E+00
       1    -1     0     0   501     0  0.000000000E+00  0.000000000E+00 -2.614976531E+03  2.614976531E+03  0.000000000E+00  0.00000E+00  9.000E+00
      25     1     1     2     0     0  1.771117945E+02  1.249998740E+02 -3.342677885E+02  4.175565958E+02  1.250000000E+02  0.00000E+00  9.000E+00
      25     1     1     2     0     0 -2.820493465E+02 -1.398839743E+02 -1.049526037E+02  3.546257311E+02  1.250000000E+02  0.00000E+00  9.000E+00
       1     1     1     2   502     0  1.049375521E+02  1.488410032E+01 -2.007877475E+03  2.010672867E+03  2.157918644E-05  0.00000E+00  9.000E+00
#rwgt            1           1   3.9534396325638425E-002           3       38350           0
</event>
<event>
      5   9999 -3.79277E-02  1.90454E+01 -1.00000E+00  1.68141E-01
      21    -1     0     0   502   501  0.000000000E+00  0.000000000E+00  6.880149058E+02  6.880149058E+02  0.000000000E+00  0.00000E+00  9.000E+00
      21    -1     0     0   501   511  0.000000000E+00  0.000000000E+00 -3.100566246E+02  3.100566246E+02  0.000000000E+00  0.00000E+00  9.000E+00
      25     1     1     2     0     0 -1.649159658E+02  2.142657017E+02 -1.677948182E+01  2.983515003E+02  1.250000000E+02  0.00000E+00  9.000E+00
      25     1     1     2     0     0  1.606743621E+02 -2.328327336E+02  5.026296543E+02  5.901600646E+02  1.250000000E+02  0.00000E+00  9.000E+00
      21     1     1     2   502   511  4.241603724E+00  1.856703184E+01 -1.078918912E+02  1.095599656E+02  1.348699152E-06  0.00000E+00  9.000E+00
#rwgt            1           1  -9.6792074553306254E-002           3       38524           0
</event>
<event>
      5   9999  3.79277E-02  1.43904E+02 -1.00000E+00  1.17112E-01
      21    -1     0     0   502   501  0.000000000E+00  0.000000000E+00  1.010342258E+03  1.010342258E+03  0.000000000E+00  0.00000E+00  9.000E+00
      21    -1     0     0   512   502  0.000000000E+00  0.000000000E+00 -7.003002986E+01  7.003002986E+01  0.000000000E+00  0.00000E+00  9.000E+00
      25     1     1     2     0     0  6.781533409E+01 -2.021159622E-01  2.726443410E+02  3.075043042E+02  1.250000000E+02  0.00000E+00  9.000E+00
      25     1     1     2     0     0 -2.099757222E+02 -2.212885920E+01  4.243812306E+02  4.902080367E+02  1.250000000E+02  0.00000E+00  9.000E+00
      21     1     1     2   512   501  1.421603881E+02  2.233097516E+01  2.432866564E+02  2.826599469E+02  3.814697266E-06  0.00000E+00  9.000E+00
#rwgt            1           1   3.7063589399813232E-002           3       38732           0
</event>
<event>
      5   9999  3.79277E-02  2.12048E+02 -1.00000E+00  1.10731E-01
      21    -1     0     0   502   511  0.000000000E+00  0.000000000E+00  6.764120266E+02  6.764120266E+02  0.000000000E+00  0.00000E+00  9.000E+00
      21    -1     0     0   501   502  0.000000000E+00  0.000000000E+00 -1.591314038E+02  1.591314038E+02  0.000000000E+00  0.00000E+00  9.000E+00
      25     1     1     2     0     0 -1.389361791E+02  4.902883862E+01  2.472211330E+02  3.137680314E+02  1.250000000E+02  0.00000E+00  9.000E+00
      25     1     1     2     0     0 -6.205123633E+01 -1.166192153E+02  4.472728615E+00  1.819214188E+02  1.250000000E+02  0.00000E+00  9.000E+00
      21     1     1     2   501   511  2.009874154E+02  6.759037672E+01  2.655867612E+02  3.398539803E+02  5.394796609E-06  0.00000E+00  9.000E+00
#rwgt            1           1   4.6479564945011827E-002           3       38766           0
</event>
<event>
      5   9999  3.79277E-02  2.73627E+01 -1.00000E+00  1.55868E-01
      21    -1     0     0   512   501  0.000000000E+00  0.000000000E+00  1.642335414E+02  1.642335414E+02  0.000000000E+00  0.00000E+00  9.000E+00
      21    -1     0     0   501   502  0.000000000E+00  0.000000000E+00 -4.063640672E+02  4.063640672E+02  0.000000000E+00  0.00000E+00  9.000E+00
      25     1     1     2     0     0  7.413752095E+01  2.184112244E+00 -2.985681403E+02  3.320678798E+02  1.250000000E+02  0.00000E+00  9.000E+00
      25     1     1     2     0     0 -1.008950558E+02 -7.907074575E+00 -1.548591830E+01  1.615770645E+02  1.250000000E+02  0.00000E+00  9.000E+00
      21     1     1     2   512   502  2.675753483E+01  5.722962331E+00  7.192353282E+01  7.695266429E+01  1.348699152E-06  0.00000E+00  9.000E+00
#rwgt            1           1   3.7271845067363980E-002           3       38884           0
</event>
<event>
      5   9999  3.79277E-02  5.56409E+01 -1.00000E+00  1.36477E-01
       2    -1     0     0   502     0  0.000000000E+00  0.000000000E+00  2.120759993E+03  2.120759993E+03  0.000000000E+00  0.00000E+00  9.000E+00
      21    -1     0     0   501   502  0.000000000E+00  0.000000000E+00 -1.434483684E+02  1.434483684E+02  0.000000000E+00  0.00000E+00  9.000E+00
      25     1     1     2     0     0 -1.623441052E+02 -1.639658912E+02  6.279773259E+01  2.698313866E+02  1.250000000E+02  0.00000E+00  9.000E+00
      25     1     1     2     0     0  1.212709691E+02  2.015013244E+02  4.104790092E+02  4.893132419E+02  1.250000000E+02  0.00000E+00  9.000E+00
       2     1     1     2   501     0  4.107313609E+01 -3.753543319E+01  1.504034882E+03  1.505063733E+03  3.051757812E-05  0.00000E+00  9.000E+00
#rwgt            1           1   3.3186997610476859E-002           3       39072           0
</event>
<event>
      5   9999  3.79277E-02  5.61107E+01 -1.00000E+00  1.36277E-01
      21    -1     0     0   502   501  0.000000000E+00  0.000000000E+00  1.464318353E+02  1.464318353E+02  0.000000000E+00  0.00000E+00  9.000E+00
      21    -1     0     0   501   511  0.000000000E+00  0.000000000E+00 -4.448184159E+02  4.448184159E+02  0.000000000E+00  0.00000E+00  9.000E+00
      25     1     1     2     0     0 -1.487914707E+02  6.017020558E+01  1.294815475E+01  2.038431017E+02  1.250000000E+02  0.00000E+00  9.000E+00
      25     1     1     2     0     0  1.201127903E+02 -1.194217738E+01 -2.221198722E+02  2.820140699E+02  1.250000000E+02  0.00000E+00  9.000E+00
      21     1     1     2   502   511  2.867868047E+01 -4.822802820E+01 -8.921486314E+01  1.053930796E+02  9.536743164E-07  0.00000E+00  9.000E+00
#rwgt            1           1   4.4658508853618821E-002           3       39142           0
</event>
<event>
      5   9999  3.79277E-02  5.59677E+01 -1.00000E+00  1.36338E-01
      21    -1     0     0   512   501  0.000000000E+00  0.000000000E+00  1.106512738E+02  1.106512738E+02  0.000000000E+00  0.00000E+00  9.000E+00
      21    -1     0     0   501   502  0.000000000E+00  0.000000000E+00 -7.294783297E+02  7.294783297E+02  0.000000000E+00  0.00000E+00  9.000E+00
      25     1     1     2     0     0  1.550698199E+02 -7.293651432E+01 -5.017669775E+02  5.447581884E+02  1.250000000E+02  0.00000E+00  9.000E+00
      25     1     1     2     0     0 -1.737395506E+02  2.017460304E+01 -9.779720443E+01  2.361815811E+02  1.250000000E+02  0.00000E+00  9.000E+00
      21     1     1     2   512   502  1.866973071E+01  5.276191128E+01 -1.926287401E+01  5.918983394E+01  8.596304120E-07  0.00000E+00  9.000E+00
#rwgt            1           1   4.6599026842641000E-002           3       39303           0
</event>
<event>
      5   9999  3.79277E-02  1.11520E+02 -1.00000E+00  1.21735E-01
      21    -1     0     0   511   501  0.000000000E+00  0.000000000E+00  9.010445210E+02  9.010445210E+02  0.000000000E+00  0.00000E+00  9.000E+00
      21    -1     0     0   501   502  0.000000000E+00  0.000000000E+00 -1.979430846E+02  1.979430846E+02  0.000000000E+00  0.00000E+00  9.000E+00
      25     1     1     2     0     0  6.077186495E+01 -1.330054107E+02  4.605169209E+01  1.978115699E+02  1.250000000E+02  0.00000E+00  9.000E+00
      25     1     1     2     0     0  4.749612693E+01  1.597385837E+02 -2.522991438E+01  2.098424309E+02  1.250000000E+02  0.00000E+00  9.000E+00
      21     1     1     2   511   502 -1.082679919E+02 -2.673317303E+01  6.822796586E+02  6.913336049E+02  7.629394531E-06  0.00000E+00  9.000E+00
#rwgt            1           1   4.3181956453705823E-002           3       39383           0
</event>
<event>
      5   9999  3.79277E-02  1.61175E+01 -1.00000E+00  1.74493E-01
      21    -1     0     0   502   512  0.000000000E+00  0.000000000E+00  1.117584684E+03  1.117584684E+03  0.000000000E+00  0.00000E+00  9.000E+00
      21    -1     0     0   501   502  0.000000000E+00  0.000000000E+00 -1.230376684E+02  1.230376684E+02  0.000000000E+00  0.00000E+00  9.000E+00
      25     1     1     2     0     0  1.200145631E+02 -6.923031458E+01  5.679786441E+01  1.950572460E+02  1.250000000E+02  0.00000E+00  9.000E+00
      25     1     1     2     0     0 -1.065350428E+02  7.806643935E+01  9.974923449E+01  2.074102072E+02  1.250000000E+02  0.00000E+00  9.000E+00
      21     1     1     2   501   512 -1.347952030E+01 -8.836124772E+00  8.379999169E+02  8.381548993E+02  1.078959322E-05  0.00000E+00  9.000E+00
#rwgt            1           1   4.3923853238346265E-002           3       39468           0
</event>
<event>
      5   9999  3.79277E-02  1.82330E+01 -1.00000E+00  1.69753E-01
      21    -1     0     0   502   501  0.000000000E+00  0.000000000E+00  8.167725530E+02  8.167725530E+02  0.000000000E+00  0.00000E+00  9.000E+00
      21    -1     0     0   511   502  0.000000000E+00  0.000000000E+00 -8.595093155E+01  8.595093155E+01  0.000000000E+00  0.00000E+00  9.000E+00
      25     1     1     2     0     0 -6.764963898E+01  1.365764004E+02  2.793449824E+02  3.418891721E+02  1.250000000E+02  0.00000E+00  9.000E+00
      25     1     1     2     0     0  8.537924991E+01 -1.323215304E+02  4.836935013E+02  5.238158139E+02  1.250000000E+02  0.00000E+00  9.000E+00
      21     1     1     2   511   501 -1.772961093E+01 -4.254869979E+00 -3.221686222E+01  3.701849854E+01  6.743495762E-07  0.00000E+00  9.000E+00
#rwgt            1           1   2.8612899721245397E-002           3       39923           0
</event>
<event>
      5   9999  3.79277E-02  2.59966E+01 -1.00000E+00  1.57490E-01
      21    -1     0     0   502   501  0.000000000E+00  0.000000000E+00  1.280027215E+02  1.280027215E+02  0.000000000E+00  0.00000E+00  9.000E+00
      21    -1     0     0   501   512  0.000000000E+00  0.000000000E+00 -5.508639817E+02  5.508639817E+02  0.000000000E+00  0.00000E+00  9.000E+00
      25     1     1     2     0     0  2.350375370E+00  1.041608653E+02 -3.915747489E+02  4.240410288E+02  1.250000000E+02  0.00000E+00  9.000E+00
      25     1     1     2     0     0  3.369755031E+00 -7.880137251E+01  6.029249708E+01  1.596283082E+02  1.250000000E+02  0.00000E+00  9.000E+00
      21     1     1     2   502   512 -5.720130401E+00 -2.535949280E+01 -9.157900840E+01  9.519736628E+01  1.348699152E-06  0.00000E+00  9.000E+00
#rwgt            1           1   4.3811302754144979E-002           3       40181           0
</event>
<event>
      5   9999 -3.79277E-02  6.88187E+01 -1.00000E+00  1.31596E-01
      21    -1     0     0   511   501  0.000000000E+00  0.000000000E+00  3.304650828E+02  3.304650828E+02  0.000000000E+00  0.00000E+00  9.000E+00
      21    -1     0     0   501   502  0.000000000E+00  0.000000000E+00 -2.282009240E+02  2.282009240E+02  0.000000000E+00  0.00000E+00  9.000E+00
      25     1     1     2     0     0  1.812687976E+02 -6.335290163E+01 -8.364202657E+01  2.439117786E+02  1.250000000E+02  0.00000E+00  9.000E+00
      25     1     1     2     0     0 -1.222764561E+02  2.791397067E+01  9.565993135E+01  2.012623759E+02  1.250000000E+02  0.00000E+00  9.000E+00
      21     1     1     2   511   502 -5.899234146E+01  3.543893096E+01  9.024625398E+01  1.134918523E+02  1.348699152E-06  0.00000E+00  9.000E+00
#rwgt            1           1 -0.28556418351861323                3       40377           0
</event>
<event>
      5   9999  3.79277E-02  1.19505E+01 -1.00000E+00  1.87217E-01
      21    -1     0     0   502   501  0.000000000E+00  0.000000000E+00  4.246077948E+02  4.246077948E+02  0.000000000E+00  0.00000E+00  9.000E+00
      21    -1     0     0   512   502  0.000000000E+00  0.000000000E+00 -5.739681262E+02  5.739681262E+02  0.000000000E+00  0.00000E+00  9.000E+00
      25     1     1     2     0     0  6.381164748E+01  1.515430988E+02  1.937905139E+02  2.832260589E+02  1.250000000E+02  0.00000E+00  9.000E+00
      25     1     1     2     0     0 -5.483355421E+01 -1.594302919E+02  1.268244125E+02  2.452226911E+02  1.250000000E+02  0.00000E+00  9.000E+00
      21     1     1     2   512   501 -8.978093278E+00  7.887193105E+00 -4.699752578E+02  4.701271710E+02  0.000000000E+00  0.00000E+00  9.000E+00
#rwgt            1           1   3.7373716696012242E-002           3       40452           0
</event>
<event>
      5   9999  3.79277E-02  6.86456E+01 -1.00000E+00  1.31652E-01
      21    -1     0     0   502   511  0.000000000E+00  0.000000000E+00  1.702422162E+02  1.702422162E+02  0.000000000E+00  0.00000E+00  9.000E+00
      21    -1     0     0   501   502  0.000000000E+00  0.000000000E+00 -4.084974001E+02  4.084974001E+02  0.000000000E+00  0.00000E+00  9.000E+00
      25     1     1     2     0     0  5.105827965E+01 -1.731747975E+01 -2.848024332E+02  3.156648048E+02  1.250000000E+02  0.00000E+00  9.000E+00
      25     1     1     2     0     0 -1.180883956E+02  2.512831801E+00 -1.263327459E+01  1.724406655E+02  1.250000000E+02  0.00000E+00  9.000E+00
      21     1     1     2   501   511  6.703011590E+01  1.480464794E+01  5.918052388E+01  9.063414613E+01  1.651812370E-06  0.00000E+00  9.000E+00
#rwgt            1           1   2.4430814563599194E-002           3       40691           0
</event>
<event>
      5   9999  3.79277E-02  2.93962E+01 -1.00000E+00  1.53656E-01
      21    -1     0     0   502   501  0.000000000E+00  0.000000000E+00  1.986414575E+02  1.986414575E+02  0.000000000E+00  0.00000E+00  9.000E+00
      21    -1     0     0   501   512  0.000000000E+00  0.000000000E+00 -5.234490076E+02  5.234490076E+02  0.000000000E+00  0.00000E+00  9.000E+00
      25     1     1     2     0     0  5.989316596E+01 -1.091085453E+02 -2.793230155E+02  3.303607316E+02  1.250000000E+02  0.00000E+00  9.000E+00
      25     1     1     2     0     0 -3.429062236E+01  1.235530466E+02  1.252222170E+02  2.185104248E+02  1.250000000E+02  0.00000E+00  9.000E+00
      21     1     1     2   502   512 -2.560254360E+01 -1.444450129E+01 -1.707067517E+02  1.732193088E+02  2.697398305E-06  0.00000E+00  9.000E+00
#rwgt            1           1   2.8204081762802858E-002           3       40759           0
</event>
<event>
      5   9999  3.79277E-02  6.15051E+01 -1.00000E+00  1.34131E-01
      21    -1     0     0   502   501  0.000000000E+00  0.000000000E+00  5.410491834E+02  5.410491834E+02  0.000000000E+00  0.00000E+00  9.000E+00
      21    -1     0     0   511   502  0.000000000E+00  0.000000000E+00 -1.223173372E+02  1.223173372E+02  0.000000000E+00  0.00000E+00  9.000E+00
      25     1     1     2     0     0  1.307481019E+02  6.289171652E+01  1.596636931E+02  2.493349736E+02  1.250000000E+02  0.00000E+00  9.000E+00
      25     1     1     2     0     0 -7.522349158E+01 -3.643609604E+01  3.031268240E+02  3.383741039E+02  1.250000000E+02  0.00000E+00  9.000E+00
      21     1     1     2   511   501 -5.552461035E+01 -2.645562048E+01 -4.405867091E+01  7.565744307E+01  1.348699152E-06  0.00000E+00  9.000E+00
#rwgt            1           1   3.3677031099477728E-002           3       40886           0
</event>
<event>
      5   9999  3.79277E-02  5.03496E+01 -1.00000E+00  1.38903E-01
      21    -1     0     0   502   512  0.000000000E+00  0.000000000E+00  9.895139581E+02  9.895139581E+02  0.000000000E+00  0.00000E+00  9.000E+00
      21    -1     0     0   501   502  0.000000000E+00  0.000000000E+00 -3.004089193E+02  3.004089193E+02  0.000000000E+00  0.00000E+00  9.000E+00
      25     1     1     2     0     0  5.314952087E+01  2.673520549E+02 -3.270792028E+01  3.016567601E+02  1.250000000E+02  0.00000E+00  9.000E+00
      25     1     1     2     0     0 -1.004547244E+02 -2.501095413E+02  3.448775630E+01  2.990992138E+02  1.250000000E+02  0.00000E+00  9.000E+00
      21     1     1     2   501   512  4.730520357E+01 -1.724251359E+01  6.873252028E+02  6.891669036E+02  7.629394531E-06  0.00000E+00  9.000E+00
#rwgt            1           1   4.0084607664424052E-002           3       41123           0
</event>
<event>
      5   9999  3.79277E-02  5.86492E+01 -1.00000E+00  1.35234E-01
      21    -1     0     0   502   511  0.000000000E+00  0.000000000E+00  8.539262771E+02  8.539262771E+02  0.000000000E+00  0.00000E+00  9.000E+00
      21    -1     0     0   501   502  0.000000000E+00  0.000000000E+00 -2.217761737E+02  2.217761737E+02  0.000000000E+00  0.00000E+00  9.000E+00
      25     1     1     2     0     0 -9.323065378E+01  1.251599651E+01 -7.203813684E+01  1.722297829E+02  1.250000000E+02  0.00000E+00  9.000E+00
      25     1     1     2     0     0  1.517727492E+02 -8.972565379E+00 -2.037842395E-02  1.968260012E+02  1.250000000E+02  0.00000E+00  9.000E+00
      21     1     1     2   501   511 -5.854209545E+01 -3.543431136E+00  7.042086187E+02  7.066466666E+02  1.078959322E-05  0.00000E+00  9.000E+00
#rwgt            1           1   3.3850151901694957E-002           3       41205           0
</event>
<event>
      5   9999  3.79277E-02  8.73869E+01 -1.00000E+00  1.26520E-01
      21    -1     0     0   502   501  0.000000000E+00  0.000000000E+00  2.927437359E+02  2.927437359E+02  0.000000000E+00  0.00000E+00  9.000E+00
      21    -1     0     0   512   502  0.000000000E+00  0.000000000E+00 -1.393231803E+03  1.393231803E+03  0.000000000E+00  0.00000E+00  9.000E+00
      25     1     1     2     0     0  1.868074316E+01 -1.627702776E+02  6.599512824E+01  2.163873619E+02  1.250000000E+02  0.00000E+00  9.000E+00
      25     1     1     2     0     0  6.365471359E+01  1.334898628E+02  8.755115392E+01  2.125127539E+02  1.250000000E+02  0.00000E+00  9.000E+00
      21     1     1     2   512   501 -8.233545675E+01  2.928041484E+01 -1.254034350E+03  1.257075423E+03  2.642899792E-05  0.00000E+00  9.000E+00
#rwgt            1           1   5.3576883737952129E-002           3       41276           0
</event>
<event>
      5   9999  3.79277E-02  2.77154E+01 -1.00000E+00  1.55468E-01
      21    -1     0     0   502   511  0.000000000E+00  0.000000000E+00  3.102157737E+02  3.102157737E+02  0.000000000E+00  0.00000E+00  9.000E+00
      21    -1     0     0   501   502  0.000000000E+00  0.000000000E+00 -8.959685737E+01  8.959685737E+01  0.000000000E+00  0.00000E+00  9.000E+00
      25     1     1     2     0     0  2.192519755E+01 -6.082446532E+01  6.716646021E+01  1.559380109E+02  1.250000000E+02  0.00000E+00  9.000E+00
      25     1     1     2     0     0 -2.437016088E+01  8.843183820E+01  1.024747025E+02  1.858498303E+02  1.250000000E+02  0.00000E+00  9.000E+00
      21     1     1     2   501   511  2.444963330E+00 -2.760737288E+01  5.097775362E+01  5.802478994E+01  0.000000000E+00  0.00000E+00  9.000E+00
#rwgt            1           1  0.24190677453291823                3       41360           0
</event>
<event>
      5   9999  3.79277E-02  5.51470E+00 -1.00000E+00  2.31315E-01
      21    -1     0     0   512   501  0.000000000E+00  0.000000000E+00  1.319068686E+02  1.319068686E+02  0.000000000E+00  0.00000E+00  9.000E+00
      21    -1     0     0   501   502  0.000000000E+00  0.000000000E+00 -4.470104356E+02  4.470104356E+02  0.000000000E+00  0.00000E+00  9.000E+00
      25     1     1     2     0     0  4.462104650E+01  6.516602070E+01  2.454883620E+01  1.498842667E+02  1.250000000E+02  0.00000E+00  9.000E+00
      25     1     1     2     0     0 -4.835562831E+01 -6.922371000E+01 -3.692770907E+02  3.988994341E+02  1.250000000E+02  0.00000E+00  9.000E+00
      21     1     1     2   512   502  3.734581809E+00  4.057689296E+00  2.962468755E+01  3.013360344E+01  3.371747881E-07  0.00000E+00  9.000E+00
#rwgt            1           1   2.8959683492149856E-002           3       41575           0
</event>
<event>
      5   9999  3.79277E-02  1.11710E+02 -1.00000E+00  1.21703E-01
      21    -1     0     0   502   501  0.000000000E+00  0.000000000E+00  9.629206921E+02  9.629206921E+02  0.000000000E+00  0.00000E+00  9.000E+00
      21    -1     0     0   501   511  0.000000000E+00  0.000000000E+00 -9.310613349E+02  9.310613349E+02  0.000000000E+00  0.00000E+00  9.000E+00
      25     1     1     2     0     0 -8.312858314E+00  1.769446886E+02  4.184156606E+02  4.712485453E+02  1.250000000E+02  0.00000E+00  9.000E+00
      25     1     1     2     0     0  9.007195526E+01 -2.530668808E+02  4.718133063E+02  5.571252995E+02  1.250000000E+02  0.00000E+00  9.000E+00
      21     1     1     2   502   511 -8.175909694E+01  7.612219227E+01 -8.583696097E+02  8.656081821E+02  1.078959322E-05  0.00000E+00  9.000E+00
#rwgt            1           1   9.7258661492255441E-002           3       41985           0
</event>
<event>
      5   9999  3.79277E-02  4.26021E+00 -1.00000E+00  2.57183E-01
      21    -1     0     0   512   501  0.000000000E+00  0.000000000E+00  1.425517167E+01  1.425517167E+01  0.000000000E+00  0.00000E+00  9.000E+00
      21    -1     0     0   501   502  0.000000000E+00  0.000000000E+00 -1.828412651E+03  1.828412651E+03  0.000000000E+00  0.00000E+00  9.000E+00
      25     1     1     2     0     0 -1.465580335E+01  9.778278054E+01 -9.341333827E+02  9.476320179E+02  1.250000000E+02  0.00000E+00  9.000E+00
      25     1     1     2     0     0  1.082907361E+01 -9.591047038E+01 -8.686609995E+02  8.829003450E+02  1.250000000E+02  0.00000E+00  9.000E+00
      21     1     1     2   512   502  3.826729736E+00 -1.872310154E+00 -1.136309667E+01  1.213545927E+01  2.384185791E-07  0.00000E+00  9.000E+00
#rwgt            1           1  0.13691384657866840                3       42052           0
</event>
<event>
      5   9999  3.79277E-02  4.62856E+01 -1.00000E+00  1.41016E-01
       2    -1     0     0   502     0  0.000000000E+00  0.000000000E+00  6.523635000E+02  6.523635000E+02  0.000000000E+00  0.00000E+00  9.000E+00
      21    -1     0     0   501   502  0.000000000E+00  0.000000000E+00 -1.937241030E+02  1.937241030E+02  0.000000000E+00  0.00000E+00  9.000E+00
      25     1     1     2     0     0  1.807941099E+02 -1.238737270E+02  7.257750572E+01  2.625332450E+02  1.250000000E+02  0.00000E+00  9.000E+00
      25     1     1     2     0     0 -2.053800940E+02  8.465780570E+01  7.029495321E+01  2.644131380E+02  1.250000000E+02  0.00000E+00  9.000E+00
       2     1     1     2   501     0  2.458598413E+01  3.921592133E+01  3.157669381E+02  3.191412200E+02  5.394796609E-06  0.00000E+00  9.000E+00
#rwgt            1           1   6.7695812622532561E-002           3       42505           0
</event>
<event>
      5   9999  3.79277E-02  1.46012E+02 -1.00000E+00  1.16859E-01
      21    -1     0     0   502   501  0.000000000E+00  0.000000000E+00  4.551528533E+02  4.551528533E+02  0.000000000E+00  0.00000E+00  9.000E+00
      21    -1     0     0   501   511  0.000000000E+00  0.000000000E+00 -8.775698223E+02  8.775698223E+02  0.000000000E+00  0.00000E+00  9.000E+00
      25     1     1     2     0     0  3.234816093E+02  2.629237123E+02  9.631954622E+01  4.457260201E+02  1.250000000E+02  0.00000E+00  9.000E+00
      25     1     1     2     0     0 -4.097525779E+02 -3.807231155E+02 -4.019688299E+02  7.000365747E+02  1.250000000E+02  0.00000E+00  9.000E+00
      21     1     1     2   502   511  8.627096853E+01  1.177994033E+02 -1.167676854E+02  1.869600807E+02  2.336015456E-06  0.00000E+00  9.000E+00
#rwgt            1           1   8.2353136561233373E-002           3       42577           0
</event>
<event>
      5   9999  3.79277E-02  7.46583E+00 -1.00000E+00  2.11674E-01
      21    -1     0     0   512   501  0.000000000E+00  0.000000000E+00  4.256851655E+02  4.256851655E+02  0.000000000E+00  0.00000E+00  9.000E+00
      21    -1     0     0   501   502  0.000000000E+00  0.000000000E+00 -2.555277083E+02  2.555277083E+02  0.000000000E+00  0.00000E+00  9.000E+00
      25     1     1     2     0     0  1.334611404E+02 -7.081977259E+01 -1.858006952E+02  2.701373994E+02  1.250000000E+02  0.00000E+00  9.000E+00
      25     1     1     2     0     0 -1.315898924E+02  7.804729302E+01  3.361775940E+02  3.899328845E+02  1.250000000E+02  0.00000E+00  9.000E+00
      21     1     1     2   512   502 -1.871248081E+00 -7.227520427E+00  1.978055836E+01  2.114258995E+01  3.371747881E-07  0.00000E+00  9.000E+00
#rwgt            1           1   3.9229795884278607E-002           3       42735           0
</event>
<event>
      5   9999  3.79277E-02  5.53206E+01 -1.00000E+00  1.36615E-01
      21    -1     0     0   502   501  0.000000000E+00  0.000000000E+00  9.487891240E+01  9.487891240E+01  0.000000000E+00  0.00000E+00  9.000E+00
      21    -1     0     0   511   502  0.000000000E+00  0.000000000E+00 -6.419963026E+02  6.419963026E+02  0.000000000E+00  0.00000E+00  9.000E+00
      25     1     1     2     0     0  7.079020381E+00 -1.195358631E+02 -2.524905620E+02  3.061297421E+02  1.250000000E+02  0.00000E+00  9.000E+00
      25     1     1     2     0     0  4.780874021E+01  1.264429610E+02 -6.610512112E+01  1.956230689E+02  1.250000000E+02  0.00000E+00  9.000E+00
      21     1     1     2   511   501 -5.488776059E+01 -6.907097928E+00 -2.285217072E+02  2.351224041E+02  3.814697266E-06  0.00000E+00  9.000E+00
#rwgt            1           1   4.2016942251593338E-002           3       43095           0
</event>
<event>
      5   9999  3.79277E-02  5.13175E+00 -1.00000E+00  2.36559E-01
      21    -1     0     0   502   501  0.000000000E+00  0.000000000E+00  2.264869718E+02  2.264869718E+02  0.000000000E+00  0.00000E+00  9.000E+00
      21    -1     0     0   512   502  0.000000000E+00  0.000000000E+00 -1.016400173E+03  1.016400173E+03  0.000000000E+00  0.00000E+00  9.000E+00
      25     1     1     2     0     0 -2.332801647E+02 -3.567120231E+01  1.112781901E+02  2.893093596E+02  1.250000000E+02  0.00000E+00  9.000E+00
      25     1     1     2     0     0  2.335159342E+02  4.079753108E+01 -6.600242184E+02  7.123560198E+02  1.250000000E+02  0.00000E+00  9.000E+00
      21     1     1     2   512   501 -2.357694367E-01 -5.126328776E+00 -2.411671728E+02  2.412217654E+02  2.697398305E-06  0.00000E+00  9.000E+00
#rwgt            1           1   4.1931827079723573E-002           3       43207           0
</event>
<event>
      5   9999  3.79277E-02  2.54597E+01 -1.00000E+00  1.58160E-01
      21    -1     0     0   502   511  0.000000000E+00  0.000000000E+00  2.295241610E+02  2.295241610E+02  0.000000000E+00  0.00000E+00  9.000E+00
      21    -1     0     0   501   502  0.000000000E+00  0.000000000E+00 -1.761097600E+02  1.761097600E+02  0.000000000E+00  0.00000E+00  9.000E+00
      25     1     1     2     0     0 -1.221636122E+02 -1.884889844E+01  5.374492216E+01  1.838280332E+02  1.250000000E+02  0.00000E+00  9.000E+00
      25     1     1     2     0     0  1.450222560E+02  7.638311379E+00 -1.538602601E+01  1.922278032E+02  1.250000000E+02  0.00000E+00  9.000E+00
      21     1     1     2   501   511 -2.285864376E+01  1.121058706E+01  1.505550487E+01  2.957808452E+01  5.057621821E-07  0.00000E+00  9.000E+00
#rwgt            1           1   4.4909430723001922E-002           3       43740           0
</event>
<event>
      5   9999  3.79277E-02  2.59697E+01 -1.00000E+00  1.57523E-01
      21    -1     0     0   502   501  0.000000000E+00  0.000000000E+00  3.851608081E+02  3.851608081E+02  0.000000000E+00  0.00000E+00  9.000E+00
      21    -1     0     0   512   502  0.000000000E+00  0.000000000E+00 -1.998207832E+02  1.998207832E+02  0.000000000E+00  0.00000E+00  9.000E+00
      25     1     1     2     0     0 -3.220590781E+01 -1.546086057E+02  1.851446273E+02  2.735773647E+02  1.250000000E+02  0.00000E+00  9.000E+00
      25     1     1     2     0     0  5.032741698E+01  1.360065322E+02  9.455735132E+01  2.135338811E+02  1.250000000E+02  0.00000E+00  9.000E+00
      21     1     1     2   512   501 -1.812150917E+01  1.860207345E+01 -9.436195364E+01  9.787034549E+01  1.348699152E-06  0.00000E+00  9.000E+00
#rwgt            1           1   4.3762880193953212E-002           3       43858           0
</event>
<event>
      5   9999  3.79277E-02  2.40909E+01 -1.00000E+00  1.59965E-01
      21    -1     0     0   502   511  0.000000000E+00  0.000000000E+00  2.868053402E+02  2.868053402E+02  0.000000000E+00  0.00000E+00  9.000E+00
      21    -1     0     0   501   502  0.000000000E+00  0.000000000E+00 -1.385259358E+02  1.385259358E+02  0.000000000E+00  0.00000E+00  9.000E+00
      25     1     1     2     0     0  5.212695327E+01  7.977305565E+01 -2.960584961E+01  1.599451969E+02  1.250000000E+02  0.00000E+00  9.000E+00
      25     1     1     2     0     0 -6.496093548E+01 -1.001608136E+02  1.557051263E+02  2.326396313E+02  1.250000000E+02  0.00000E+00  9.000E+00
      21     1     1     2   501   511  1.283398221E+01  2.038775798E+01  2.218012779E+01  3.274644780E+01  6.307962682E-07  0.00000E+00  9.000E+00
#rwgt            1           1   3.8662896688247086E-002           3       44061           0
</event>
<event>
      5   9999  3.79277E-02  4.25694E+01 -1.00000E+00  1.43183E-01
      21    -1     0     0   502   501  0.000000000E+00  0.000000000E+00  9.927755180E+01  9.927755180E+01  0.000000000E+00  0.00000E+00  9.000E+00
      21    -1     0     0   501   512  0.000000000E+00  0.000000000E+00 -5.607587070E+02  5.607587070E+02  0.000000000E+00  0.00000E+00  9.000E+00
      25     1     1     2     0     0 -1.796330948E+02 -4.982887275E+01 -1.508921569E+02  2.704522292E+02  1.250000000E+02  0.00000E+00  9.000E+00
      25     1     1     2     0     0  1.436258220E+02  2.712134565E+01 -2.614739765E+02  3.245883309E+02  1.250000000E+02  0.00000E+00  9.000E+00
      21     1     1     2   502   512  3.600727274E+01  2.270752710E+01 -4.911502188E+01  6.499569872E+01  6.743495762E-07  0.00000E+00  9.000E+00
#rwgt            1           1   3.5733790474068661E-002           3       44251           0
</event>
<event>
      5   9999  3.79277E-02  2.01017E+01 -1.00000E+00  1.66187E-01
      21    -1     0     0   502   511  0.000000000E+00  0.000000000E+00  5.998872432E+02  5.998872432E+02  0.000000000E+00  0.00000E+00  9.000E+00
      21    -1     0     0   501   502  0.000000000E+00  0.000000000E+00 -1.229455858E+02  1.229455858E+02  0.000000000E+00  0.00000E+00  9.000E+00
      25     1     1     2     0     0  1.618870176E+02 -5.964472963E+00  2.202039186E+02  3.005956540E+02  1.250000000E+02  0.00000E+00  9.000E+00
      25     1     1     2     0     0 -1.516370613E+02  2.325662170E+01  3.667452548E+01  2.012577691E+02  1.250000000E+02  0.00000E+00  9.000E+00
      21     1     1     2   501   511 -1.024995637E+01 -1.729214874E+01  2.200632133E+02  2.209794060E+02  3.814697266E-06  0.00000E+00  9.000E+00
#rwgt            1           1   3.9290377181092268E-002           3       44357           0
</event>
<event>
      5   9999  3.79277E-02  2.31992E+01 -1.00000E+00  1.61222E-01
      21    -1     0     0   502   512  0.000000000E+00  0.000000000E+00  6.608435451E+02  6.608435451E+02  0.000000000E+00  0.00000E+00  9.000E+00
      21    -1     0     0   501   502  0.000000000E+00  0.000000000E+00 -6.519592158E+01  6.519592158E+01  0.000000000E+00  0.00000E+00  9.000E+00
      25     1     1     2     0     0  1.058024819E+02 -4.291759478E+01  1.093234562E+02  2.015259368E+02  1.250000000E+02  0.00000E+00  9.000E+00
      25     1     1     2     0     0 -9.934910418E+01  2.063407292E+01  3.380014830E+02  3.743875158E+02  1.250000000E+02  0.00000E+00  9.000E+00
      21     1     1     2   501   512 -6.453377706E+00  2.228352186E+01  1.483226843E+02  1.501260141E+02  2.697398305E-06  0.00000E+00  9.000E+00
#rwgt            1           1   1.7633420090795483E-002           3       44624           0
</event>
<event>
      5   9999  3.79277E-02  3.08625E+01 -1.00000E+00  1.52190E-01
      21    -1     0     0   502   501  0.000000000E+00  0.000000000E+00  2.372658002E+02  2.372658002E+02  0.000000000E+00  0.00000E+00  9.000E+00
      21    -1     0     0   501   511  0.000000000E+00  0.000000000E+00 -3.432301905E+02  3.432301905E+02  0.000000000E+00  0.00000E+00  9.000E+00
      25     1     1     2     0     0 -1.304928074E+02  3.123040825E+01 -6.274025843E+01  1.938170560E+02  1.250000000E+02  0.00000E+00  9.000E+00
      25     1     1     2     0     0  1.008620613E+02 -3.986261882E+01  1.301758245E+02  2.105538626E+02  1.250000000E+02  0.00000E+00  9.000E+00
      21     1     1     2   502   511  2.963074608E+01  8.632210568E+00 -1.733999563E+02  1.761250720E+02  1.907348633E-06  0.00000E+00  9.000E+00
#rwgt            1           1   4.5346702737003787E-002           3       44872           0
</event>
<event>
      5   9999  3.79277E-02  2.01138E+01 -1.00000E+00  1.66166E-01
      21    -1     0     0   502   501  0.000000000E+00  0.000000000E+00  2.918808246E+01  2.918808246E+01  0.000000000E+00  0.00000E+00  9.000E+00
      21    -1     0     0   501   512  0.000000000E+00  0.000000000E+00 -1.342059742E+03  1.342059742E+03  0.000000000E+00  0.00000E+00  9.000E+00
      25     1     1     2     0     0  1.113515254E+02 -7.455814470E+01 -8.231876257E+02  8.433391644E+02  1.250000000E+02  0.00000E+00  9.000E+00
      25     1     1     2     0     0 -9.124750458E+01  7.518437630E+01 -3.907942859E+02  4.269941117E+02  1.250000000E+02  0.00000E+00  9.000E+00
      21     1     1     2   502   512 -2.010402082E+01 -6.262316065E-01 -9.888974793E+01  1.009145483E+02  1.348699152E-06  0.00000E+00  9.000E+00
#rwgt            1           1   4.7912601103967355E-002           3       45011           0
</event>
<event>
      5   9999  3.79277E-02  1.86736E+01 -1.00000E+00  1.68866E-01
      21    -1     0     0   502   501  0.000000000E+00  0.000000000E+00  5.587052191E+01  5.587052191E+01  0.000000000E+00  0.00000E+00  9.000E+00
      21    -1     0     0   501   511  0.000000000E+00  0.000000000E+00 -6.196871065E+02  6.196871065E+02  0.000000000E+00  0.00000E+00  9.000E+00
      25     1     1     2     0     0  9.660080373E+00 -7.986085362E+01 -8.741551164E+01  1.724457734E+02  1.250000000E+02  0.00000E+00  9.000E+00
      25     1     1     2     0     0 -2.016360405E+01  6.442135009E+01 -4.369653577E+02  4.594784055E+02  1.250000000E+02  0.00000E+00  9.000E+00
      21     1     1     2   502   511  1.050352368E+01  1.543950353E+01 -3.943571527E+01  4.363344953E+01  8.259061849E-07  0.00000E+00  9.000E+00
#rwgt            1           1   5.0214857837536549E-002           3       45178           0
</event>
<event>
      5   9999 -3.79277E-02  1.80836E+01 -1.00000E+00  1.70061E-01
      21    -1     0     0   502   501  0.000000000E+00  0.000000000E+00  1.342320868E+02  1.342320868E+02  0.000000000E+00  0.00000E+00  9.000E+00
      21    -1     0     0   512   502  0.000000000E+00  0.000000000E+00 -2.560325505E+02  2.560325505E+02  0.000000000E+00  0.00000E+00  9.000E+00
      25     1     1     2     0     0  9.110035679E+01  2.404325974E+01 -1.283471255E+02  2.024236596E+02  1.250000000E+02  0.00000E+00  9.000E+00
      25     1     1     2     0     0 -9.954828650E+01 -4.003229339E+01  1.908428931E+01  1.658362323E+02  1.250000000E+02  0.00000E+00  9.000E+00
      21     1     1     2   512   501  8.447929709E+00  1.598903366E+01 -1.253762761E+01  2.200474539E+01  3.371747881E-07  0.00000E+00  9.000E+00
#rwgt            1           1  -9.1158006172855910E-002           3       45353           0
</event>
<event>
      5   9999  3.79277E-02  4.40303E+01 -1.00000E+00  1.42301E-01
      21    -1     0     0   502   501  0.000000000E+00  0.000000000E+00  2.150159165E+03  2.150159165E+03  0.000000000E+00  0.00000E+00  9.000E+00
      21    -1     0     0   501   511  0.000000000E+00  0.000000000E+00 -4.622199434E+01  4.622199434E+01  0.000000000E+00  0.00000E+00  9.000E+00
      25     1     1     2     0     0  4.212235152E+01 -1.498823422E+02  1.871135052E+03  1.881757261E+03  1.250000000E+02  0.00000E+00  9.000E+00
      25     1     1     2     0     0 -3.046002936E+01  1.074246097E+02  1.842152104E+02  2.490544195E+02  1.250000000E+02  0.00000E+00  9.000E+00
      21     1     1     2   502   511 -1.166232216E+01  4.245773241E+01  4.858690817E+01  6.556947800E+01  9.536743164E-07  0.00000E+00  9.000E+00
#rwgt            1           1   8.9034877079682329E-002           3       45529           0
</event>
<event>
      5   9999  3.79277E-02  3.89637E+00 -1.00000E+00  2.66186E-01
      21    -1     0     0   502   512  0.000000000E+00  0.000000000E+00  2.420222696E+02  2.420222696E+02  0.000000000E+00  0.00000E+00  9.000E+00
      21    -1     0     0   501   502  0.000000000E+00  0.000000000E+00 -2.408949023E+02  2.408949023E+02  0.000000000E+00  0.00000E+00  9.000E+00
      25     1     1     2     0     0 -1.084951900E+02 -1.536217255E+02 -5.467485179E+01  2.323471115E+02  1.250000000E+02  0.00000E+00  9.000E+00
      25     1     1     2     0     0  1.059568078E+02  1.565777953E+02  3.491155340E+01  2.293191393E+02  1.250000000E+02  0.00000E+00  9.000E+00
      21     1     1     2   501   512  2.538382159E+00 -2.956069714E+00  2.089066573E+01  2.125092108E+01  0.000000000E+00  0.00000E+00  9.000E+00
#rwgt            1           1   4.2481166009407011E-002           3       45675           0
</event>
<event>
      5   9999  3.79277E-02  3.61634E+00 -1.00000E+00  2.74235E-01
      21    -1     0     0   502   511  0.000000000E+00  0.000000000E+00  4.959771949E+02  4.959771949E+02  0.000000000E+00  0.00000E+00  9.000E+00
      21    -1     0     0   501   502  0.000000000E+00  0.000000000E+00 -2.891168127E+02  2.891168127E+02  0.000000000E+00  0.00000E+00  9.000E+00
      25     1     1     2     0     0 -1.097735910E+02 -3.194578953E+02  6.429386980E+01  3.658719583E+02  1.250000000E+02  0.00000E+00  9.000E+00
      25     1     1     2     0     0  1.108373536E+02  3.229142371E+02  1.007807783E+02  3.772801197E+02  1.250000000E+02  0.00000E+00  9.000E+00
      21     1     1     2   501   511 -1.063762573E+00 -3.456341769E+00  4.178573414E+01  4.194192969E+01  0.000000000E+00  0.00000E+00  9.000E+00
#rwgt            1           1  0.17348386180695954                3       46257           0
</event>
<event>
      5   9999  3.79277E-02  1.93536E+01 -1.00000E+00  1.67555E-01
       1    -1     0     0   502     0  0.000000000E+00  0.000000000E+00  1.430702965E+03  1.430702965E+03  0.000000000E+00  0.00000E+00  9.000E+00
      21    -1     0     0   501   502  0.000000000E+00  0.000000000E+00 -2.257182376E+02  2.257182376E+02  0.000000000E+00  0.00000E+00  9.000E+00
      25     1     1     2     0     0  1.523464559E+02  1.022064955E+02 -6.092866030E+01  2.302018940E+02  1.250000000E+02  0.00000E+00  9.000E+00
      25     1     1     2     0     0 -1.329929419E+02 -1.022499467E+02  5.656786744E+01  2.167189374E+02  1.250000000E+02  0.00000E+00  9.000E+00
       1     1     1     2   501     0 -1.935351394E+01  4.345121175E-02  1.209345520E+03  1.209500371E+03  0.000000000E+00  0.00000E+00  9.000E+00
#rwgt            1           1   3.6155563984651473E-002           3       46896           0
</event>
<event>
      5   9999  3.79277E-02  2.96382E+01 -1.00000E+00  1.53407E-01
      21    -1     0     0   502   501  0.000000000E+00  0.000000000E+00  1.816296893E+02  1.816296893E+02  0.000000000E+00  0.00000E+00  9.000E+00
      21    -1     0     0   501   511  0.000000000E+00  0.000000000E+00 -1.738874612E+02  1.738874612E+02  0.000000000E+00  0.00000E+00  9.000E+00
      25     1     1     2     0     0  7.708602558E+01  4.943437247E+01  3.384910923E+00  1.549918390E+02  1.250000000E+02  0.00000E+00  9.000E+00
      25     1     1     2     0     0 -1.064121819E+02 -4.514519688E+01  9.158505253E+00  1.705007902E+02  1.250000000E+02  0.00000E+00  9.000E+00
      21     1     1     2   502   511  2.932615631E+01 -4.289175588E+00 -4.801188054E+00  3.002452128E+01  4.380028980E-07  0.00000E+00  9.000E+00
#rwgt            1           1   3.3879210918275109E-002           3       47031           0
</event>
<event>
      5   9999  3.79277E-02  4.15205E+01 -1.00000E+00  1.43842E-01
      21    -1     0     0   512   501  0.000000000E+00  0.000000000E+00  4.130825216E+02  4.130825216E+02  0.000000000E+00  0.00000E+00  9.000E+00
      21    -1     0     0   501   502  0.000000000E+00  0.000000000E+00 -4.344238131E+02  4.344238131E+02  0.000000000E+00  0.00000E+00  9.000E+00
      25     1     1     2     0     0 -1.633826441E+01  1.197344052E+02 -5.003195125E+01  1.809183872E+02  1.250000000E+02  0.00000E+00  9.000E+00
      25     1     1     2     0     0  5.109957758E+01 -1.424412309E+02 -2.872638638E+02  3.479169420E+02  1.250000000E+02  0.00000E+00  9.000E+00
      21     1     1     2   512   502 -3.476131317E+01  2.270682562E+01  3.159545236E+02  3.186710056E+02  3.814697266E-06  0.00000E+00  9.000E+00
#rwgt            1           1   3.6582263678844415E-002           3       47270           0
</event>
<event>
      5   9999 -3.79277E-02  2.12014E+01 -1.00000E+00  1.64306E-01
      21    -1     0     0   502   511  0.000000000E+00  0.000000000E+00  1.342353967E+02  1.342353967E+02  0.000000000E+00  0.00000E+00  9.000E+00
      21    -1     0     0   501   502  0.000000000E+00  0.000000000E+00 -9.917262599E+02  9.917262599E+02  0.000000000E+00  0.00000E+00  9.000E+00
      25     1     1     2     0     0 -1.231115519E+01  2.112860964E+02 -2.934607753E+01  2.475471093E+02  1.250000000E+02  0.00000E+00  9.000E+00
      25     1     1     2     0     0 -8.874709654E+00 -2.120972624E+02 -8.191356612E+02  8.553784195E+02  1.250000000E+02  0.00000E+00  9.000E+00
      21     1     1     2   501   511  2.118586484E+01  8.111660082E-01 -9.009124474E+00  2.303612778E+01  3.153981341E-07  0.00000E+00  9.000E+00
#rwgt            1           1  -7.3212482057344042E-002           3       47378           0
</event>
<event>
      5   9999  3.79277E-02  1.96846E+01 -1.00000E+00  1.66941E-01
      21    -1     0     0   502   501  0.000000000E+00  0.000000000E+00  2.501030368E+02  2.501030368E+02  0.000000000E+00  0.00000E+00  9.000E+00
      21    -1     0     0   512   502  0.000000000E+00  0.000000000E+00 -6.931840984E+02  6.931840984E+02  0.000000000E+00  0.00000E+00  9.000E+00
      25     1     1     2     0     0  1.754425254E+01 -6.600225854E+01  2.139904069E+02  2.570622360E+02  1.250000000E+02  0.00000E+00  9.000E+00
      25     1     1     2     0     0 -8.369502656E-01  7.641127468E+01 -3.623624918E+02  3.908592571E+02  1.250000000E+02  0.00000E+00  9.000E+00
      21     1     1     2   512   501 -1.670730228E+01 -1.040901614E+01 -2.947089768E+02  2.953656421E+02  0.000000000E+00  0.00000E+00  9.000E+00
#rwgt            1           1   4.4996638482904402E-002           3       47598           0
</event>
<event>
      5   9999 -3.79277E-02  1.85031E+01 -1.00000E+00  1.69206E-01
      21    -1     0     0   502   501  0.000000000E+00  0.000000000E+00  1.578681951E+02  1.578681951E+02  0.000000000E+00  0.00000E+00  9.000E+00
      21    -1     0     0   501   511  0.000000000E+00  0.000000000E+00 -6.814873990E+02  6.814873990E+02  0.000000000E+00  0.00000E+00  9.000E+00
      25     1     1     2     0     0 -3.683466948E+01 -2.290300981E+02 -3.024219094E+02  4.011179253E+02  1.250000000E+02  0.00000E+00  9.000E+00
      25     1     1     2     0     0  5.178532740E+01  2.399315555E+02 -6.772722688E+01  2.836562157E+02  1.250000000E+02  0.00000E+00  9.000E+00
      21     1     1     2   502   511 -1.495065793E+01 -1.090145744E+01 -1.534700677E+02  1.545814530E+02  1.907348633E-06  0.00000E+00  9.000E+00
#rwgt            1           1 -0.22452790834430159                3       47839           0
</event>
<event>
      5   9999  3.79277E-02  4.97831E+01 -1.00000E+00  1.39183E-01
      -2    -1     0     0     0   501  0.000000000E+00  0.000000000E+00  5.085604828E+02  5.085604828E+02  0.000000000E+00  0.00000E+00  9.000E+00
      21    -1     0     0   501   502  0.000000000E+00  0.000000000E+00 -1.247756098E+02  1.247756098E+02  0.000000000E+00  0.00000E+00  9.000E+00
      25     1     1     2     0     0  9.179314464E+01 -3.653131589E+01  2.579882019E+02  3.032217518E+02  1.250000000E+02  0.00000E+00  9.000E+00
      25     1     1     2     0     0 -1.383626757E+02  5.412774619E+01 -7.111026607E-01  1.941637160E+02  1.250000000E+02  0.00000E+00  9.000E+00
      -2     1     1     2     0   502  4.656953109E+01 -1.759643029E+01  1.265077737E+02  1.359506249E+02  1.907348633E-06  0.00000E+00  9.000E+00
#rwgt            1           1   4.9955219728280487E-002           3       48096           0
</event>
<event>
      5   9999  3.79277E-02  1.48211E+02 -1.00000E+00  1.16601E-01
      21    -1     0     0   502   501  0.000000000E+00  0.000000000E+00  1.300306758E+03  1.300306758E+03  0.000000000E+00  0.00000E+00  9.000E+00
       2    -1     0     0   501     0  0.000000000E+00  0.000000000E+00 -5.123306137E+02  5.123306137E+02  0.000000000E+00  0.00000E+00  9.000E+00
      25     1     1     2     0     0  2.756232031E+02  1.239017626E+02  5.961506126E+02  6.799561382E+02  1.250000000E+02  0.00000E+00  9.000E+00
      25     1     1     2     0     0 -2.266402468E+02  1.598058004E+01  6.240326179E+02  6.757683690E+02  1.250000000E+02  0.00000E+00  9.000E+00
       2     1     1     2   502     0 -4.898295639E+01 -1.398823426E+02 -4.322070865E+02  4.569128642E+02  7.629394531E-06  0.00000E+00  9.000E+00
#rwgt            1           1  0.14025428843681675                3       48215           0
</event>
<event>
      5   9999  3.79277E-02  1.35843E+01 -1.00000E+00  1.81538E-01
      21    -1     0     0   502   501  0.000000000E+00  0.000000000E+00  7.853843115E+01  7.853843115E+01  0.000000000E+00  0.00000E+00  9.000E+00
      21    -1     0     0   501   511  0.000000000E+00  0.000000000E+00 -7.996464496E+02  7.996464496E+02  0.000000000E+00  0.00000E+00  9.000E+00
      25     1     1     2     0     0 -1.670340139E+02  9.577752122E+01 -2.425530368E+02  3.339620802E+02  1.250000000E+02  0.00000E+00  9.000E+00
      25     1     1     2     0     0  1.699580212E+02 -1.090434402E+02 -4.055956857E+02  4.700096393E+02  1.250000000E+02  0.00000E+00  9.000E+00
      21     1     1     2   502   511 -2.924007264E+00  1.326591899E+01 -7.295929598E+01  7.421316120E+01  0.000000000E+00  0.00000E+00  9.000E+00
#rwgt            1           1   4.0016576830834781E-002           3       48270           0
</event>
<event>
      5   9999  3.79277E-02  5.90618E+00 -1.00000E+00  2.26540E-01
      21    -1     0     0   502   512  0.000000000E+00  0.000000000E+00  2.325484291E+02  2.325484291E+02  0.000000000E+00  0.00000E+00  9.000E+00
      21    -1     0     0   501   502  0.000000000E+00  0.000000000E+00 -2.388657290E+02  2.388657290E+02  0.000000000E+00  0.00000E+00  9.000E+00
      25     1     1     2     0     0 -9.309765809E+01  9.490685301E+00 -1.744226607E+02  2.341057701E+02  1.250000000E+02  0.00000E+00  9.000E+00
      25     1     1     2     0     0  9.710620866E+01 -1.382825620E+01  1.509368951E+02  2.191524190E+02  1.250000000E+02  0.00000E+00  9.000E+00
      21     1     1     2   501   512 -4.008550567E+00  4.337570902E+00  1.716846559E+01  1.815596899E+01  0.000000000E+00  0.00000E+00  9.000E+00
#rwgt            1           1   2.9040962566897092E-002           3       48535           0
</event>
<event>
      5   9999  3.79277E-02  5.53191E+01 -1.00000E+00  1.36616E-01
      21    -1     0     0   511   501  0.000000000E+00  0.000000000E+00  9.352606946E+01  9.352606946E+01  0.000000000E+00  0.00000E+00  9.000E+00
      21    -1     0     0   501   502  0.000000000E+00  0.000000000E+00 -8.335219497E+02  8.335219497E+02  0.000000000E+00  0.00000E+00  9.000E+00
      25     1     1     2     0     0 -5.668245269E+00 -1.640380372E+02 -5.159045426E+02  5.556285663E+02  1.250000000E+02  0.00000E+00  9.000E+00
      25     1     1     2     0     0  4.737679415E+01  2.003781347E+02 -1.832469445E+02  3.026555801E+02  1.250000000E+02  0.00000E+00  9.000E+00
      21     1     1     2   511   502 -4.170854889E+01 -3.634009756E+01 -4.084439317E+01  6.876387274E+01  1.348699152E-06  0.00000E+00  9.000E+00
#rwgt            1           1   2.7245316041695760E-002           3       48836           0
</event>
<event>
      5   9999  3.79277E-02  5.46457E+01 -1.00000E+00  1.36909E-01
      21    -1     0     0   512   501  0.000000000E+00  0.000000000E+00  4.731031845E+02  4.731031845E+02  0.000000000E+00  0.00000E+00  9.000E+00
      21    -1     0     0   501   502  0.000000000E+00  0.000000000E+00 -2.146296519E+02  2.146296519E+02  0.000000000E+00  0.00000E+00  9.000E+00
      25     1     1     2     0     0  5.961851236E+01 -2.191125479E+02 -4.378072833E+01  2.628810146E+02  1.250000000E+02  0.00000E+00  9.000E+00
      25     1     1     2     0     0 -2.721613250E+01  1.751098690E+02  1.516114937E+02  2.646039098E+02  1.250000000E+02  0.00000E+00  9.000E+00
      21     1     1     2   512   502 -3.240237986E+01  4.400267895E+01  1.506427672E+02  1.602479120E+02  0.000000000E+00  0.00000E+00  9.000E+00
#rwgt            1           1   4.3058500802132790E-002           3       48954           0
</event>
<event>
      5   9999  3.79277E-02  1.26278E+02 -1.00000E+00  1.19436E-01
      21    -1     0     0   502   501  0.000000000E+00  0.000000000E+00  6.478470893E+01  6.478470893E+01  0.000000000E+00  0.00000E+00  9.000E+00
      21    -1     0     0   511   502  0.000000000E+00  0.000000000E+00 -1.762517071E+03  1.762517071E+03  0.000000000E+00  0.00000E+00  9.000E+00
      25     1     1     2     0     0 -1.221581364E+02 -1.014496349E+02 -1.566150124E+02  2.556714705E+02  1.250000000E+02  0.00000E+00  9.000E+00
      25     1     1     2     0     0  8.678442776E+01 -1.977233448E+01 -5.037054766E+02  5.265611923E+02  1.250000000E+02  0.00000E+00  9.000E+00
      21     1     1     2   511   501  3.537370866E+01  1.212219694E+02 -1.037411874E+03  1.045069118E+03  2.157918644E-05  0.00000E+00  9.000E+00
#rwgt            1           1   3.9869130847504639E-002           3       49124           0
</event>
<event>
      5   9999  3.79277E-02  4.90759E+01 -1.00000E+00  1.39539E-01
      21    -1     0     0   502   512  0.000000000E+00  0.000000000E+00  5.982893665E+02  5.982893665E+02  0.000000000E+00  0.00000E+00  9.000E+00
      21    -1     0     0   501   502  0.000000000E+00  0.000000000E+00 -6.118568740E+01  6.118568740E+01  0.000000000E+00  0.00000E+00  9.000E+00
      25     1     1     2     0     0 -2.967063659E+01 -4.014397767E+01  3.630635928E+02  3.872106120E+02  1.250000000E+02  0.00000E+00  9.000E+00
      25     1     1     2     0     0  5.425162590E+00  8.281243203E+01  9.005538039E+01  1.749922936E+02  1.250000000E+02  0.00000E+00  9.000E+00
      21     1     1     2   501   512  2.424547400E+01 -4.266845436E+01  8.398470584E+01  9.727214823E+01  0.000000000E+00  0.00000E+00  9.000E+00
#rwgt            1           1   3.7802973644254112E-002           3       49154           0
</event>
<event>
      5   9999 -3.79277E-02  7.35016E+01 -1.00000E+00  1.30156E-01
      21    -1     0     0   502   501  0.000000000E+00  0.000000000E+00  3.494265053E+02  3.494265053E+02  0.000000000E+00  0.00000E+00  9.000E+00
      21    -1     0     0   501   511  0.000000000E+00  0.000000000E+00 -6.944263407E+02  6.944263407E+02  0.000000000E+00  0.00000E+00  9.000E+00
      25     1     1     2     0     0 -1.834371577E+02 -8.651723291E+01  1.211313422E+02  2.672680761E+02  1.250000000E+02  0.00000E+00  9.000E+00
      25     1     1     2     0     0  1.123788518E+02  1.053109780E+02  8.843033565E+01  2.171735082E+02  1.250000000E+02  0.00000E+00  9.000E+00
      21     1     1     2   502   511  7.105830592E+01 -1.879374514E+01 -5.545615133E+02  5.594112617E+02  7.629394531E-06  0.00000E+00  9.000E+00
#rwgt            1           1 -0.13836918201012788                3       49260           0
</event>
<event>
      5   9999  3.79277E-02  5.42458E+00 -1.00000E+00  2.32494E-01
      21    -1     0     0   502   501  0.000000000E+00  0.000000000E+00  1.984804761E+01  1.984804761E+01  0.000000000E+00  0.00000E+00  9.000E+00
      21    -1     0     0   512   502  0.000000000E+00  0.000000000E+00 -1.564219058E+03  1.564219058E+03  0.000000000E+00  0.00000E+00  9.000E+00
      25     1     1     2     0     0  2.383553622E+01  1.016688356E+02 -8.649783161E+02  8.801801930E+02  1.250000000E+02  0.00000E+00  9.000E+00
      25     1     1     2     0     0 -2.137936000E+01 -1.065054902E+02 -5.502611252E+02  5.746414555E+02  1.250000000E+02  0.00000E+00  9.000E+00
      21     1     1     2   512   501 -2.456176224E+00  4.836654604E+00 -1.291315691E+02  1.292454570E+02  1.907348633E-06  0.00000E+00  9.000E+00
#rwgt            1           1   3.1248124328289842E-002           3       49517           0
</event>
<event>
      5   9999  3.79277E-02  2.15052E+02 -1.00000E+00  1.10513E-01
       2    -1     0     0   502     0  0.000000000E+00  0.000000000E+00  2.556892625E+03  2.556892625E+03  0.000000000E+00  0.00000E+00  9.000E+00
      21    -1     0     0   501   502  0.000000000E+00  0.000000000E+00 -1.567543484E+02  1.567543484E+02  0.000000000E+00  0.00000E+00  9.000E+00
      25     1     1     2     0     0  9.661171183E+01 -1.262612363E+02  1.327210237E+02  2.418999644E+02  1.250000000E+02  0.00000E+00  9.000E+00
      25     1     1     2     0     0 -1.778821865E+02 -7.284310481E+01  3.852276185E+01  2.325020288E+02  1.250000000E+02  0.00000E+00  9.000E+00
       2     1     1     2   501     0  8.127047469E+01  1.991043411E+02  2.228894491E+03  2.239244980E+03  5.285799584E-05  0.00000E+00  9.000E+00
#rwgt            1           1   3.5102513810210664E-002           3       49919           0
</event>
<event>
      5   9999  3.79277E-02  1.79691E+01 -1.00000E+00  1.70300E-01
      21    -1     0     0   502   501  0.000000000E+00  0.000000000E+00  8.553830806E+01  8.553830806E+01  0.000000000E+00  0.00000E+00  9.000E+00
       4    -1     0     0   501     0  0.000000000E+00  0.000000000E+00 -3.139352147E+02  3.139352147E+02  0.000000000E+00  0.00000E+00  9.000E+00
      25     1     1     2     0     0 -4.306958824E+01 -4.133798361E+01 -2.861916053E+01  1.414491947E+02  1.250000000E+02  0.00000E+00  9.000E+00
      25     1     1     2     0     0  6.091320433E+01  3.921834601E+01 -1.685603524E+02  2.220047061E+02  1.250000000E+02  0.00000E+00  9.000E+00
       4     1     1     2   502     0 -1.784361610E+01  2.119637603E+00 -3.121739368E+01  3.601962197E+01  8.259061849E-07  0.00000E+00  9.000E+00
#rwgt            1           1   3.5350231389747772E-002           3       50003           0
</event>
<event>
      5   9999  3.79277E-02  2.93060E+01 -1.00000E+00  1.53749E-01
      21    -1     0     0   502   501  0.000000000E+00  0.000000000E+00  1.452089128E+01  1.452089128E+01  0.000000000E+00  0.00000E+00  9.000E+00
       1    -1     0     0   501     0  0.000000000E+00  0.000000000E+00 -4.363446272E+03  4.363446272E+03  0.000000000E+00  0.00000E+00  9.000E+00
      25     1     1     2     0     0  4.799858422E+00  4.228844510E+01 -1.795958097E+03  1.800805885E+03  1.250000000E+02  0.00000E+00  9.000E+00
      25     1     1     2     0     0 -2.502003529E+01 -2.107550504E+01 -3.358114196E+02  3.598117405E+02  1.250000000E+02  0.00000E+00  9.000E+00
       1     1     1     2   502     0  2.022017687E+01 -2.121294006E+01 -2.217155865E+03  2.217349538E+03  0.000000000E+00  0.00000E+00  9.000E+00
#rwgt            1           1  0.18718122304521650                3       50087           0
</event>
<event>
      5   9999  3.79277E-02  1.74479E+02 -1.00000E+00  1.13850E-01
      21    -1     0     0   502   501  0.000000000E+00  0.000000000E+00  1.996148307E+03  1.996148307E+03  0.000000000E+00  0.00000E+00  9.000E+00
      21    -1     0     0   501   511  0.000000000E+00  0.000000000E+00 -3.532529138E+02  3.532529138E+02  0.000000000E+00  0.00000E+00  9.000E+00
      25     1     1     2     0     0 -1.705571250E+02 -3.181090703E+01  3.071348175E+02  3.742438547E+02  1.250000000E+02  0.00000E+00  9.000E+00
      25     1     1     2     0     0  2.705519793E+01 -6.743617833E+01  1.628208696E+03  1.634615606E+03  1.250000000E+02  0.00000E+00  9.000E+00
      21     1     1     2   502   511  1.435019270E+02  9.924708536E+01 -2.924481205E+02  3.405417599E+02  6.607249480E-06  0.00000E+00  9.000E+00
#rwgt            1           1   3.5969501034401587E-002           3       50188           0
</event>
<event>
      5   9999  3.79277E-02  3.47163E+01 -1.00000E+00  1.48762E-01
      21    -1     0     0   502   501  0.000000000E+00  0.000000000E+00  7.068130838E+01  7.068130838E+01  0.000000000E+00  0.00000E+00  9.000E+00
       2    -1     0     0   501     0  0.000000000E+00  0.000000000E+00 -9.754871915E+02  9.754871915E+02  0.000000000E+00  0.00000E+00  9.000E+00
      25     1     1     2     0     0 -8.608481556E+01  2.190793964E+01 -6.660543636E+02  6.834793110E+02  1.250000000E+02  0.00000E+00  9.000E+00
      25     1     1     2     0     0  6.821034196E+01 -5.166907536E+01 -3.430958142E+01  1.553206087E+02  1.250000000E+02  0.00000E+00  9.000E+00
       2     1     1     2   502     0  1.787447360E+01  2.976113572E+01 -2.044419381E+02  2.073685802E+02  0.000000000E+00  0.00000E+00  9.000E+00
#rwgt            1           1   3.3991360663928410E-002           3       50323           0
</event>
<event>
      5   9999  3.79277E-02  7.01833E+01 -1.00000E+00  1.31163E-01
      21    -1     0     0   502   501  0.000000000E+00  0.000000000E+00  5.937757716E+02  5.937757716E+02  0.000000000E+00  0.00000E+00  9.000E+00
      21    -1     0     0   501   511  0.000000000E+00  0.000000000E+00 -1.313562533E+02  1.313562533E+02  0.000000000E+00  0.00000E+00  9.000E+00
      25     1     1     2     0     0  1.069178915E+02 -1.882154355E+02  9.622591141E+01  2.678449397E+02  1.250000000E+02  0.00000E+00  9.000E+00
      25     1     1     2     0     0 -6.502886340E+01  1.319037194E+02  3.185504451E+02  3.724603742E+02  1.250000000E+02  0.00000E+00  9.000E+00
      21     1     1     2   502   511 -4.188902809E+01  5.631171609E+01  4.764316172E+01  8.482671102E+01  1.168007728E-06  0.00000E+00  9.000E+00
#rwgt            1           1   4.5030039047571177E-002           3       50404           0
</event>
<event>
      5   9999  3.79277E-02  4.32185E+01 -1.00000E+00  1.42786E-01
       2    -1     0     0   502     0  0.000000000E+00  0.000000000E+00  2.705715750E+03  2.705715750E+03  0.000000000E+00  0.00000E+00  9.000E+00
      21    -1     0     0   501   502  0.000000000E+00  0.000000000E+00 -6.180506110E+01  6.180506110E+01  0.000000000E+00  0.00000E+00  9.000E+00
      25     1     1     2     0     0 -9.628955617E+01 -1.130238739E+01  6.133999084E+01  1.696673718E+02  1.250000000E+02  0.00000E+00  9.000E+00
      25     1     1     2     0     0  9.545517882E+01 -3.190803098E+01  8.663471046E+02  8.810857616E+02  1.250000000E+02  0.00000E+00  9.000E+00
       2     1     1     2   501     0  8.343773485E-01  4.321041837E+01  1.716223593E+03  1.716767677E+03  0.000000000E+00  0.00000E+00  9.000E+00
#rwgt            1           1   4.9261156645350281E-002           3       50538           0
</event>
<event>
      5   9999  3.79277E-02  1.84394E+01 -1.00000E+00  1.69334E-01
      21    -1     0     0   502   501  0.000000000E+00  0.000000000E+00  1.600616736E+02  1.600616736E+02  0.000000000E+00  0.00000E+00  9.000E+00
      21    -1     0     0   501   511  0.000000000E+00  0.000000000E+00 -6.594371455E+02  6.594371455E+02  0.000000000E+00  0.00000E+00  9.000E+00
      25     1     1     2     0     0 -2.476682748E+02 -1.329623636E+02 -2.483773952E+02  3.953920774E+02  1.250000000E+02  0.00000E+00  9.000E+00
      25     1     1     2     0     0  2.421249794E+02  1.505487654E+02 -2.003558129E+02  3.702119503E+02  1.250000000E+02  0.00000E+00  9.000E+00
      21     1     1     2   502   511  5.543295438E+00 -1.758640185E+01 -5.064226380E+01  5.389479138E+01  0.000000000E+00  0.00000E+00  9.000E+00
#rwgt            1           1   8.2422859827465014E-002           3       50734           0
</event>
<event>
      5   9999  3.79277E-02  2.19160E+01 -1.00000E+00  1.63156E-01
      21    -1     0     0   502   501  0.000000000E+00  0.000000000E+00  3.708055376E+02  3.708055376E+02  0.000000000E+00  0.00000E+00  9.000E+00
      21    -1     0     0   501   512  0.000000000E+00  0.000000000E+00 -3.101178832E+02  3.101178832E+02  0.000000000E+00  0.00000E+00  9.000E+00
      25     1     1     2     0     0 -7.319115739E+01  2.817031969E+02 -7.531215011E+00  3.168522618E+02  1.250000000E+02  0.00000E+00  9.000E+00
      25     1     1     2     0     0  5.237321397E+01 -2.885532268E+02  9.192686124E+01  3.317852710E+02  1.250000000E+02  0.00000E+00  9.000E+00
      21     1     1     2   502   512  2.081794342E+01  6.850029953E+00 -2.370799191E+01  3.228588792E+01  4.768371582E-07  0.00000E+00  9.000E+00
#rwgt            1           1   3.5938709037361717E-002           3       50955           0
</event>
<event>
      5   9999  3.79277E-02  5.17147E+01 -1.00000E+00  1.38245E-01
      21    -1     0     0   511   501  0.000000000E+00  0.000000000E+00  1.185553751E+02  1.185553751E+02  0.000000000E+00  0.00000E+00  9.000E+00
      21    -1     0     0   501   502  0.000000000E+00  0.000000000E+00 -5.188258098E+02  5.188258098E+02  0.000000000E+00  0.00000E+00  9.000E+00
      25     1     1     2     0     0  1.457181243E+02  7.125985768E+01 -2.191517892E+02  2.999404037E+02  1.250000000E+02  0.00000E+00  9.000E+00
      25     1     1     2     0     0 -1.494290884E+02 -1.967845393E+01 -2.023120233E+02  2.815518581E+02  1.250000000E+02  0.00000E+00  9.000E+00
      21     1     1     2   511   502  3.710964070E+00 -5.158140375E+01  2.119337776E+01  5.588892313E+01  1.305872339E-06  0.00000E+00  9.000E+00
#rwgt            1           1   3.8349674314233001E-002           3       51157           0
</event>
<event>
      5   9999  3.79277E-02  6.35103E+01 -1.00000E+00  1.33397E-01
      21    -1     0     0   502   512  0.000000000E+00  0.000000000E+00  1.090056902E+03  1.090056902E+03  0.000000000E+00  0.00000E+00  9.000E+00
      21    -1     0     0   501   502  0.000000000E+00  0.000000000E+00 -1.658045412E+02  1.658045412E+02  0.000000000E+00  0.00000E+00  9.000E+00
      25     1     1     2     0     0  6.586041408E+01  3.808269538E+00 -9.959079625E+01  1.729029316E+02  1.250000000E+02  0.00000E+00  9.000E+00
      25     1     1     2     0     0 -8.650369787E+01 -6.387002866E+01  2.117002471E+02  2.683361044E+02  1.250000000E+02  0.00000E+00  9.000E+00
      21     1     1     2   501   512  2.064328378E+01  6.006175912E+01  8.121429104E+02  8.146224076E+02  1.078959322E-05  0.00000E+00  9.000E+00
#rwgt            1           1   2.7327198664824522E-002           3       51313           0
</event>
<event>
      5   9999  3.79277E-02  4.60968E+01 -1.00000E+00  1.41120E-01
      21    -1     0     0   502   501  0.000000000E+00  0.000000000E+00  1.310708488E+03  1.310708488E+03  0.000000000E+00  0.00000E+00  9.000E+00
      21    -1     0     0   511   502  0.000000000E+00  0.000000000E+00 -7.489153660E+01  7.489153660E+01  0.000000000E+00  0.00000E+00  9.000E+00
      25     1     1     2     0     0 -2.350211390E+01  1.433264319E+02  5.549157866E+02  5.870701369E+02  1.250000000E+02  0.00000E+00  9.000E+00
      25     1     1     2     0     0  6.575529364E+01 -1.248987005E+02  7.161165208E+02  7.405209757E+02  1.250000000E+02  0.00000E+00  9.000E+00
      21     1     1     2   511   501 -4.225317974E+01 -1.842773140E+01 -3.521535650E+01  5.800891152E+01  1.430511475E-06  0.00000E+00  9.000E+00
#rwgt            2          11   2.8362078427999794E-003           3       51466           0
</event>
<event>
      5   9999  3.79277E-02  3.60355E+01 -1.00000E+00  1.47709E-01
      21    -1     0     0   502   501  0.000000000E+00  0.000000000E+00  1.745836527E+02  1.745836527E+02  0.000000000E+00  0.00000E+00  9.000E+00
      21    -1     0     0   501   512  0.000000000E+00  0.000000000E+00 -4.938233731E+02  4.938233731E+02  0.000000000E+00  0.00000E+00  9.000E+00
      25     1     1     2     0     0  2.274836479E+02  9.138274006E+01 -1.893992800E+02  3.340609263E+02  1.250000000E+02  0.00000E+00  9.000E+00
      25     1     1     2     0     0 -2.077861567E+02 -1.215582750E+02 -1.064783782E+02  2.914003194E+02  1.250000000E+02  0.00000E+00  9.000E+00
      21     1     1     2   502   512 -1.969749126E+01  3.017553499E+01 -2.336206225E+01  4.294578007E+01  4.768371582E-07  0.00000E+00  9.000E+00
#rwgt            1           1   3.1771933836490088E-002           3       51756           0
</event>
<event>
      5   9999  3.79277E-02  2.33538E+01 -1.00000E+00  1.60999E-01
      21    -1     0     0   502   501  0.000000000E+00  0.000000000E+00  3.199105403E+02  3.199105403E+02  0.000000000E+00  0.00000E+00  9.000E+00
      21    -1     0     0   501   511  0.000000000E+00  0.000000000E+00 -1.068942711E+02  1.068942711E+02  0.000000000E+00  0.00000E+00  9.000E+00
      25     1     1     2     0     0 -4.294704034E+01 -9.083899326E+01  1.483785357E+02  2.184888117E+02  1.250000000E+02  0.00000E+00  9.000E+00
      25     1     1     2     0     0  6.236840563E+01  1.038085529E+02  5.141513289E+01  1.814787854E+02  1.250000000E+02  0.00000E+00  9.000E+00
      21     1     1     2   502   511 -1.942136529E+01 -1.296955965E+01  1.322260060E+01  2.683721435E+01  5.331201500E-07  0.00000E+00  9.000E+00
#rwgt            1           1   4.0463118622336022E-002           3       52076           0
</event>
<event>
      5   9999  3.79277E-02  1.37810E+02 -1.00000E+00  1.17871E-01
      21    -1     0     0   502   501  0.000000000E+00  0.000000000E+00  6.425576150E+02  6.425576150E+02  0.000000000E+00  0.00000E+00  9.000E+00
      21    -1     0     0   501   512  0.000000000E+00  0.000000000E+00 -2.294277871E+02  2.294277871E+02  0.000000000E+00  0.00000E+00  9.000E+00
      25     1     1     2     0     0 -1.988644745E+02 -1.353899881E+02  3.983341712E+02  4.818429620E+02  1.250000000E+02  0.00000E+00  9.000E+00
      25     1     1     2     0     0  7.900651786E+01  2.034013860E+02  1.971063090E+01  2.522452430E+02  1.250000000E+02  0.00000E+00  9.000E+00
      21     1     1     2   502   512  1.198579566E+02 -6.801139781E+01 -4.914974190E+00  1.378971971E+02  4.577155510E-06  0.00000E+00  9.000E+00
#rwgt            1           1   4.1562683971400685E-002           3       52195           0
</event>
<event>
      5   9999  3.79277E-02  7.79099E+01 -1.00000E+00  1.28908E-01
      21    -1     0     0   502   511  0.000000000E+00  0.000000000E+00  1.488688372E+03  1.488688372E+03  0.000000000E+00  0.00000E+00  9.000E+00
      21    -1     0     0   501   502  0.000000000E+00  0.000000000E+00 -6.465433763E+02  6.465433763E+02  0.000000000E+00  0.00000E+00  9.000E+00
      25     1     1     2     0     0  7.458034038E+01  2.066561784E+02 -3.183070573E+02  4.064644953E+02  1.250000000E+02  0.00000E+00  9.000E+00
      25     1     1     2     0     0 -2.467558532E+01 -1.468275185E+02 -2.497066755E+02  3.164579411E+02  1.250000000E+02  0.00000E+00  9.000E+00
      21     1     1     2   501   511 -4.990475507E+01 -5.982865996E+01  1.410158728E+03  1.412309312E+03  2.642899792E-05  0.00000E+00  9.000E+00
#rwgt            1           1   4.2440698722153204E-002           3       52265           0
</event>
<event>
      5   9999  3.79277E-02  9.30246E+01 -1.00000E+00  1.25257E-01
      21    -1     0     0   512   501  0.000000000E+00  0.000000000E+00  1.738667972E+03  1.738667972E+03  0.000000000E+00  0.00000E+00  9.000E+00
      21    -1     0     0   501   502  0.000000000E+00  0.000000000E+00 -1.370661108E+02  1.370661108E+02  0.000000000E+00  0.00000E+00  9.000E+00
      25     1     1     2     0     0  5.040487300E+01 -1.556664773E+02 -2.588979430E+01  2.075282748E+02  1.250000000E+02  0.00000E+00  9.000E+00
      25     1     1     2     0     0 -9.584616967E+01  7.449590479E+01  3.891939452E+02  4.264188727E+02  1.250000000E+02  0.00000E+00  9.000E+00
      21     1     1     2   512   502  4.544129667E+01  8.117057251E+01  1.238297710E+03  1.241786935E+03  2.157918644E-05  0.00000E+00  9.000E+00
#rwgt            2          11   7.2284147118921005E-004           3       52379           0
</event>
<event>
      5   9999  3.79277E-02  2.25820E+01 -1.00000E+00  1.62133E-01
      21    -1     0     0   502   501  0.000000000E+00  0.000000000E+00  1.370301030E+02  1.370301030E+02  0.000000000E+00  0.00000E+00  9.000E+00
      21    -1     0     0   501   511  0.000000000E+00  0.000000000E+00 -4.656621675E+02  4.656621675E+02  0.000000000E+00  0.00000E+00  9.000E+00
      25     1     1     2     0     0 -1.342720737E+02  4.962714482E+01 -4.621889473E+01  1.955838171E+02  1.250000000E+02  0.00000E+00  9.000E+00
      25     1     1     2     0     0  1.413085024E+02 -7.108491124E+01 -1.032166500E+02  2.264946672E+02  1.250000000E+02  0.00000E+00  9.000E+00
      21     1     1     2   502   511 -7.036428684E+00  2.145776642E+01 -1.791965197E+02  1.806137862E+02  1.907348633E-06  0.00000E+00  9.000E+00
#rwgt            1           1   4.2894805928938198E-002           3       52594           0
</event>
<event>
      5   9999  3.79277E-02  5.24676E+01 -1.00000E+00  1.37892E-01
      21    -1     0     0   502   501  0.000000000E+00  0.000000000E+00  1.448278769E+02  1.448278769E+02  0.000000000E+00  0.00000E+00  9.000E+00
       2    -1     0     0   501     0  0.000000000E+00  0.000000000E+00 -9.297262146E+02  9.297262146E+02  0.000000000E+00  0.00000E+00  9.000E+00
      25     1     1     2     0     0 -5.581913609E+01 -2.032981334E+02 -4.884693078E+01  2.499138445E+02  1.250000000E+02  0.00000E+00  9.000E+00
      25     1     1     2     0     0  4.537508544E+01  2.547157368E+02 -4.506903558E+02  5.344958389E+02  1.250000000E+02  0.00000E+00  9.000E+00
       2     1     1     2   502     0  1.044405065E+01 -5.141760341E+01 -2.853610511E+02  2.901444082E+02  5.394796609E-06  0.00000E+00  9.000E+00
#rwgt            1           1   2.8760829119803207E-002           3       52857           0
</event>
<event>
      5   9999  3.79277E-02  1.20404E+02 -1.00000E+00  1.20306E-01
      21    -1     0     0   502   501  0.000000000E+00  0.000000000E+00  1.108751269E+03  1.108751269E+03  0.000000000E+00  0.00000E+00  9.000E+00
      21    -1     0     0   511   502  0.000000000E+00  0.000000000E+00 -1.822867448E+02  1.822867448E+02  0.000000000E+00  0.00000E+00  9.000E+00
      25     1     1     2     0     0 -2.753097978E+01  3.864638256E+01  6.313400472E+02  6.453423533E+02  1.250000000E+02  0.00000E+00  9.000E+00
      25     1     1     2     0     0  1.325452226E+02 -9.754539356E+01  4.225524908E+02  4.703817038E+02  1.250000000E+02  0.00000E+00  9.000E+00
      21     1     1     2   511   501 -1.050142428E+02  5.889901100E+01 -1.274280139E+02  1.753139567E+02  3.015782986E-06  0.00000E+00  9.000E+00
#rwgt            1           1   4.8303897012420424E-002           3       52946           0
</event>
<event>
      5   9999  3.79277E-02  8.84844E+01 -1.00000E+00  1.26266E-01
       1    -1     0     0   502     0  0.000000000E+00  0.000000000E+00  3.023202122E+02  3.023202122E+02  0.000000000E+00  0.00000E+00  9.000E+00
      21    -1     0     0   501   502  0.000000000E+00  0.000000000E+00 -2.124260580E+02  2.124260580E+02  0.000000000E+00  0.00000E+00  9.000E+00
      25     1     1     2     0     0 -1.514820773E+02  6.118188236E+01  1.054492670E+02  2.311592316E+02  1.250000000E+02  0.00000E+00  9.000E+00
      25     1     1     2     0     0  8.831913008E+01  7.852618387E-01 -8.134104950E+01  1.733270080E+02  1.250000000E+02  0.00000E+00  9.000E+00
       1     1     1     2   501     0  6.316294718E+01 -6.196714420E+01  6.578593679E+01  1.102600305E+02  1.348699152E-06  0.00000E+00  9.000E+00
#rwgt            1           1   4.1266889348679982E-002           3       52987           0
</event>
<event>
      5   9999  3.79277E-02  1.33857E+01 -1.00000E+00  1.82172E-01
      21    -1     0     0   502   501  0.000000000E+00  0.000000000E+00  1.158795043E+02  1.158795043E+02  0.000000000E+00  0.00000E+00  9.000E+00
      21    -1     0     0   511   502  0.000000000E+00  0.000000000E+00 -3.970780973E+02  3.970780973E+02  0.000000000E+00  0.00000E+00  9.000E+00
      25     1     1     2     0     0  9.611531210E+01 -1.211176778E+02 -1.587754845E+02  2.544450817E+02  1.250000000E+02  0.00000E+00  9.000E+00
      25     1     1     2     0     0 -8.670517276E+01  1.306374708E+02 -8.325138609E+01  2.171168557E+02  1.250000000E+02  0.00000E+00  9.000E+00
      21     1     1     2   511   501 -9.410139335E+00 -9.519792916E+00 -3.917172242E+01  4.139566422E+01  4.768371582E-07  0.00000E+00  9.000E+00
#rwgt            1           1   2.6389878854263700E-002           3       53044           0
</event>
<event>
      5   9999  3.79277E-02  6.34447E+01 -1.00000E+00  1.33420E-01
      21    -1     0     0   502   501  0.000000000E+00  0.000000000E+00  1.484224942E+02  1.484224942E+02  0.000000000E+00  0.00000E+00  9.000E+00
      21    -1     0     0   512   502  0.000000000E+00  0.000000000E+00 -8.582946506E+02  8.582946506E+02  0.000000000E+00  0.00000E+00  9.000E+00
      25     1     1     2     0     0 -3.350419955E+01 -2.190046826E+02 -5.193878297E+02  5.783375312E+02  1.250000000E+02  0.00000E+00  9.000E+00
      25     1     1     2     0     0  9.655206547E+01  2.119195382E+02 -4.293700559E+01  2.677700104E+02  1.250000000E+02  0.00000E+00  9.000E+00
      21     1     1     2   512   501 -6.304786592E+01  7.085144399E+00 -1.475473211E+02  1.606096032E+02  1.907348633E-06  0.00000E+00  9.000E+00
#rwgt            1           1   2.8812965158957850E-002           3       53237           0
</event>
<event>
      5   9999  3.79277E-02  1.03182E+01 -1.00000E+00  1.94197E-01
      21    -1     0     0   502   501  0.000000000E+00  0.000000000E+00  5.764210285E+01  5.764210285E+01  0.000000000E+00  0.00000E+00  9.000E+00
      21    -1     0     0   511   502  0.000000000E+00  0.000000000E+00 -8.959139999E+02  8.959139999E+02  0.000000000E+00  0.00000E+00  9.000E+00
      25     1     1     2     0     0 -1.136728198E+02 -2.571127787E+01 -1.140784225E+02  2.054786272E+02  1.250000000E+02  0.00000E+00  9.000E+00
      25     1     1     2     0     0  1.180404429E+02  1.636301020E+01 -6.274063046E+02  6.507418577E+02  1.250000000E+02  0.00000E+00  9.000E+00
      21     1     1     2   511   501 -4.367623128E+00  9.348267665E+00 -9.678716994E+01  9.733561787E+01  1.907348633E-06  0.00000E+00  9.000E+00
#rwgt            1           1   3.0498123890868489E-002           3       53292           0
</event>
<event>
      5   9999  3.79277E-02  4.56609E+01 -1.00000E+00  1.41363E-01
      21    -1     0     0   502   501  0.000000000E+00  0.000000000E+00  3.011488304E+02  3.011488304E+02  0.000000000E+00  0.00000E+00  9.000E+00
      21    -1     0     0   501   512  0.000000000E+00  0.000000000E+00 -1.998314086E+02  1.998314086E+02  0.000000000E+00  0.00000E+00  9.000E+00
      25     1     1     2     0     0 -9.214221753E+01  1.060744565E+02  8.251615950E+01  2.053677072E+02  1.250000000E+02  0.00000E+00  9.000E+00
      25     1     1     2     0     0  5.241475430E+01 -8.356555795E+01  1.100597743E+02  1.935682382E+02  1.250000000E+02  0.00000E+00  9.000E+00
      21     1     1     2   502   512  3.972746324E+01 -2.250889859E+01 -9.125851190E+01  1.020442935E+02  1.348699152E-06  0.00000E+00  9.000E+00
#rwgt            1           1   4.5420956800847082E-002           3       53577           0
</event>
<event>
      5   9999  3.79277E-02  4.41098E+01 -1.00000E+00  1.42254E-01
      21    -1     0     0   502   511  0.000000000E+00  0.000000000E+00  4.335655492E+02  4.335655492E+02  0.000000000E+00  0.00000E+00  9.000E+00
      21    -1     0     0   501   502  0.000000000E+00  0.000000000E+00 -4.946461398E+02  4.946461398E+02  0.000000000E+00  0.00000E+00  9.000E+00
      25     1     1     2     0     0 -9.697100273E+01  6.161381924E+01 -1.358421000E+01  1.703207822E+02  1.250000000E+02  0.00000E+00  9.000E+00
      25     1     1     2     0     0  1.056860258E+02 -1.837357656E+01 -3.843512772E+02  4.181602906E+02  1.250000000E+02  0.00000E+00  9.000E+00
      21     1     1     2   501   511 -8.715023068E+00 -4.324024268E+01  3.368548966E+02  3.397306162E+02  6.607249480E-06  0.00000E+00  9.000E+00
#rwgt            1           1   4.0705432248272146E-002           3       53707           0
</event>
<event>
      5   9999  3.79277E-02  5.05582E+01 -1.00000E+00  1.38801E-01
      21    -1     0     0   502   501  0.000000000E+00  0.000000000E+00  1.121797227E+02  1.121797227E+02  0.000000000E+00  0.00000E+00  9.000E+00
      21    -1     0     0   512   502  0.000000000E+00  0.000000000E+00 -5.123448308E+02  5.123448308E+02  0.000000000E+00  0.00000E+00  9.000E+00
      25     1     1     2     0     0 -6.514574487E+00 -5.794448646E+01 -3.533391978E+02  3.793067254E+02  1.250000000E+02  0.00000E+00  9.000E+00
      25     1     1     2     0     0 -3.934864281E+01  3.666785901E+01  4.251186502E+01  1.425661469E+02  1.250000000E+02  0.00000E+00  9.000E+00
      21     1     1     2   512   501  4.586321729E+01  2.127662746E+01 -8.933777525E+01  1.026516812E+02  9.536743164E-07  0.00000E+00  9.000E+00
#rwgt            1           1   4.0873114962981613E-002           3       53842           0
</event>
<event>
      5   9999  3.79277E-02  3.64823E+01 -1.00000E+00  1.47364E-01
      21    -1     0     0   502   501  0.000000000E+00  0.000000000E+00  2.582544679E+02  2.582544679E+02  0.000000000E+00  0.00000E+00  9.000E+00
      21    -1     0     0   501   511  0.000000000E+00  0.000000000E+00 -3.135493581E+02  3.135493581E+02  0.000000000E+00  0.00000E+00  9.000E+00
      25     1     1     2     0     0  1.277944338E+02  1.465756365E+02 -9.128872884E+01  2.485446973E+02  1.250000000E+02  0.00000E+00  9.000E+00
      25     1     1     2     0     0 -1.483419341E+02 -1.164300282E+02  1.017416524E+02  2.480678228E+02  1.250000000E+02  0.00000E+00  9.000E+00
      21     1     1     2   502   511  2.054750029E+01 -3.014560832E+01 -6.574781377E+01  7.519130591E+01  9.536743164E-07  0.00000E+00  9.000E+00
#rwgt            1           1   4.7380613951226253E-002           3       54065           0
</event>
<event>
      5   9999  3.79277E-02  7.43300E+01 -1.00000E+00  1.29914E-01
      21    -1     0     0   502   501  0.000000000E+00  0.000000000E+00  5.806220026E+02  5.806220026E+02  0.000000000E+00  0.00000E+00  9.000E+00
       2    -1     0     0   501     0  0.000000000E+00  0.000000000E+00 -3.920709209E+02  3.920709209E+02  0.000000000E+00  0.00000E+00  9.000E+00
      25     1     1     2     0     0 -1.617884395E+02 -8.929893684E+01  7.851741411E+01  2.365159267E+02  1.250000000E+02  0.00000E+00  9.000E+00
      25     1     1     2     0     0  1.685681840E+02  1.633190740E+02  3.757121341E+02  4.602966003E+02  1.250000000E+02  0.00000E+00  9.000E+00
       2     1     1     2   502     0 -6.779744480E+00 -7.402013714E+01 -2.656784664E+02  2.758803965E+02  5.394796609E-06  0.00000E+00  9.000E+00
#rwgt            1           1   2.9998390451873795E-002           3       54180           0
</event>
<event>
      5   9999  3.79277E-02  2.59124E+01 -1.00000E+00  1.57594E-01
      21    -1     0     0   502   511  0.000000000E+00  0.000000000E+00  7.336326329E+02  7.336326329E+02  0.000000000E+00  0.00000E+00  9.000E+00
      21    -1     0     0   501   502  0.000000000E+00  0.000000000E+00 -7.749269719E+01  7.749269719E+01  0.000000000E+00  0.00000E+00  9.000E+00
      25     1     1     2     0     0 -4.851825842E+00  1.946597268E+00 -5.344779429E+00  1.252233849E+02  1.250000000E+02  0.00000E+00  9.000E+00
      25     1     1     2     0     0  1.979333165E+01  1.922427129E+01  3.387670216E+02  3.621456109E+02  1.250000000E+02  0.00000E+00  9.000E+00
      21     1     1     2   501   511 -1.494150581E+01 -2.117086856E+01  3.227176936E+02  3.237563343E+02  0.000000000E+00  0.00000E+00  9.000E+00
#rwgt            1           1   4.0665618874673862E-002           3       54256           0
</event>
<event>
      5   9999  3.79277E-02  5.43858E+01 -1.00000E+00  1.37024E-01
      21    -1     0     0   502   512  0.000000000E+00  0.000000000E+00  8.786932763E+02  8.786932763E+02  0.000000000E+00  0.00000E+00  9.000E+00
      21    -1     0     0   501   502  0.000000000E+00  0.000000000E+00 -1.139722119E+02  1.139722119E+02  0.000000000E+00  0.00000E+00  9.000E+00
      25     1     1     2     0     0 -1.711804855E+02 -1.509310329E+02  1.432030584E+02  2.970101871E+02  1.250000000E+02  0.00000E+00  9.000E+00
      25     1     1     2     0     0  1.170485059E+02  1.456826043E+02  3.312998943E+02  4.003853068E+02  1.250000000E+02  0.00000E+00  9.000E+00
      21     1     1     2   501   512  5.413197961E+01  5.248428525E+00  2.902181116E+02  2.952699943E+02  3.814697266E-06  0.00000E+00  9.000E+00
#rwgt            1           1   3.7047420282576071E-002           3       54354           0
</event>
<event>
      5   9999  3.79277E-02  2.88855E+01 -1.00000E+00  1.54191E-01
      21    -1     0     0   511   501  0.000000000E+00  0.000000000E+00  6.404041358E+01  6.404041358E+01  0.000000000E+00  0.00000E+00  9.000E+00
      21    -1     0     0   501   502  0.000000000E+00  0.000000000E+00 -6.872339760E+02  6.872339760E+02  0.000000000E+00  0.00000E+00  9.000E+00
      25     1     1     2     0     0 -9.579948735E+01  8.424911636E+01 -4.113856425E+02  4.484847849E+02  1.250000000E+02  0.00000E+00  9.000E+00
      25     1     1     2     0     0  8.229564548E+01 -1.097837352E+02 -1.956876746E+02  2.697104146E+02  1.250000000E+02  0.00000E+00  9.000E+00
      21     1     1     2   511   502  1.350384188E+01  2.553461887E+01 -1.612024532E+01  3.307919007E+01  2.384185791E-07  0.00000E+00  9.000E+00
#rwgt            1           1   4.6814624814977598E-002           3       54443           0
</event>
<event>
      5   9999  3.79277E-02  5.74684E+01 -1.00000E+00  1.35712E-01
      21    -1     0     0   502   501  0.000000000E+00  0.000000000E+00  8.016759433E+01  8.016759433E+01  0.000000000E+00  0.00000E+00  9.000E+00
      21    -1     0     0   501   512  0.000000000E+00  0.000000000E+00 -1.168559469E+03  1.168559469E+03  0.000000000E+00  0.00000E+00  9.000E+00
      25     1     1     2     0     0  2.052564626E+02 -1.035570015E+02 -4.239200194E+02  4.981841535E+02  1.250000000E+02  0.00000E+00  9.000E+00
      25     1     1     2     0     0 -2.084509013E+02  1.609365324E+02 -5.571135288E+02  6.287708880E+02  1.250000000E+02  0.00000E+00  9.000E+00
      21     1     1     2   502   512  3.194438708E+00 -5.737953090E+01 -1.073583262E+02  1.217720215E+02  1.348699152E-06  0.00000E+00  9.000E+00
#rwgt            1           1   3.4645640134952214E-002           3       54535           0
</event>
<event>
      5   9999  3.79277E-02  9.49118E+01 -1.00000E+00  1.24857E-01
      21    -1     0     0   502   501  0.000000000E+00  0.000000000E+00  5.670496543E+01  5.670496543E+01  0.000000000E+00  0.00000E+00  9.000E+00
       1    -1     0     0   501     0  0.000000000E+00  0.000000000E+00 -1.492218386E+03  1.492218386E+03  0.000000000E+00  0.00000E+00  9.000E+00
      25     1     1     2     0     0 -1.574208888E+02 -3.722853256E+01 -5.058987775E+02  5.456426239E+02  1.250000000E+02  0.00000E+00  9.000E+00
      25     1     1     2     0     0  2.372643933E+02 -1.408680173E+01 -5.511137038E+02  6.130612896E+02  1.250000000E+02  0.00000E+00  9.000E+00
       1     1     1     2   502     0 -7.984350448E+01  5.131533430E+01 -3.785009392E+02  3.902194379E+02  5.394796609E-06  0.00000E+00  9.000E+00
#rwgt            1           1   3.7043910747624843E-002           3       54605           0
</event>
<event>
      5   9999  3.79277E-02  1.05651E+02 -1.00000E+00  1.22764E-01
      21    -1     0     0   511   501  0.000000000E+00  0.000000000E+00  1.283530577E+02  1.283530577E+02  0.000000000E+00  0.00000E+00  9.000E+00
      21    -1     0     0   501   502  0.000000000E+00  0.000000000E+00 -5.550469592E+02  5.550469592E+02  0.000000000E+00  0.00000E+00  9.000E+00
      25     1     1     2     0     0  8.593491524E+01 -5.178143712E+01 -2.487973444E+01  1.622039706E+02  1.250000000E+02  0.00000E+00  9.000E+00
      25     1     1     2     0     0  1.553075790E+01  8.122311761E+01 -3.863711115E+02  4.144225321E+02  1.250000000E+02  0.00000E+00  9.000E+00
      21     1     1     2   511   502 -1.014656731E+02 -2.944168049E+01 -1.544305558E+01  1.067735142E+02  4.460403188E-07  0.00000E+00  9.000E+00
#rwgt            1           1   4.8403997484974010E-002           3       54885           0
</event>
<event>
      5   9999  3.79277E-02  7.76049E+01 -1.00000E+00  1.28992E-01
      21    -1     0     0   502   501  0.000000000E+00  0.000000000E+00  8.827551177E+02  8.827551177E+02  0.000000000E+00  0.00000E+00  9.000E+00
      21    -1     0     0   512   502  0.000000000E+00  0.000000000E+00 -9.597969017E+01  9.597969017E+01  0.000000000E+00  0.00000E+00  9.000E+00
      25     1     1     2     0     0 -1.642734432E+02 -1.129732104E+02  4.975460070E+02  5.503868999E+02  1.250000000E+02  0.00000E+00  9.000E+00
      25     1     1     2     0     0  8.750239941E+01  1.243193265E+02  2.903074390E+02  3.507354758E+02  1.250000000E+02  0.00000E+00  9.000E+00
      21     1     1     2   512   501  7.677104383E+01 -1.134611606E+01 -1.078018435E+00  7.761243228E+01  1.884039558E-06  0.00000E+00  9.000E+00
#rwgt            1           1   4.3574034144773927E-002           3       55007           0
</event>
<event>
      5   9999  3.79277E-02  2.31797E+01 -1.00000E+00  1.61250E-01
      21    -1     0     0   502   511  0.000000000E+00  0.000000000E+00  4.381512710E+02  4.381512710E+02  0.000000000E+00  0.00000E+00  9.000E+00
      21    -1     0     0   501   502  0.000000000E+00  0.000000000E+00 -7.390914796E+01  7.390914796E+01  0.000000000E+00  0.00000E+00  9.000E+00
      25     1     1     2     0     0 -3.007868556E+01  1.841337655E+01  2.554205312E+01  1.323675800E+02  1.250000000E+02  0.00000E+00  9.000E+00
      25     1     1     2     0     0  1.597058033E+01 -3.680517260E+01  2.011269708E+02  2.401806373E+02  1.250000000E+02  0.00000E+00  9.000E+00
      21     1     1     2   501   511  1.410810522E+01  1.839179604E+01  1.375730992E+02  1.395122017E+02  1.907348633E-06  0.00000E+00  9.000E+00
#rwgt            1           1   9.0785060902646167E-002           3       55090           0
</event>
<event>
      5   9999  3.79277E-02  1.43926E+01 -1.00000E+00  1.79092E-01
      21    -1     0     0   502   512  0.000000000E+00  0.000000000E+00  1.347583958E+02  1.347583958E+02  0.000000000E+00  0.00000E+00  9.000E+00
      21    -1     0     0   501   502  0.000000000E+00  0.000000000E+00 -2.543996632E+02  2.543996632E+02  0.000000000E+00  0.00000E+00  9.000E+00
      25     1     1     2     0     0  3.582105604E+01  7.603247000E+01  2.921822184E+01  1.534365962E+02  1.250000000E+02  0.00000E+00  9.000E+00
      25     1     1     2     0     0 -2.193165531E+01 -7.980487748E+01 -1.586794844E+02  2.182979495E+02  1.250000000E+02  0.00000E+00  9.000E+00
      21     1     1     2   501   512 -1.388940073E+01  3.772407474E+00  9.819995173E+00  1.742351331E+01  2.920019320E-07  0.00000E+00  9.000E+00
#rwgt            1           1   4.0421352192919653E-002           3       55184           0
</event>
<event>
      5   9999  3.79277E-02  1.51721E+01 -1.00000E+00  1.76918E-01
      21    -1     0     0   511   501  0.000000000E+00  0.000000000E+00  9.720828546E+01  9.720828546E+01  0.000000000E+00  0.00000E+00  9.000E+00
      21    -1     0     0   501   502  0.000000000E+00  0.000000000E+00 -8.259027247E+02  8.259027247E+02  0.000000000E+00  0.00000E+00  9.000E+00
      25     1     1     2     0     0 -1.772723360E+02 -1.477577888E+02 -5.141741410E+02  5.772849318E+02  1.250000000E+02  0.00000E+00  9.000E+00
      25     1     1     2     0     0  1.623934409E+02  1.507259981E+02 -2.103426266E+02  3.300893466E+02  1.250000000E+02  0.00000E+00  9.000E+00
      21     1     1     2   511   502  1.487889512E+01 -2.968209353E+00 -4.177671648E+00  1.573673178E+01  2.384185791E-07  0.00000E+00  9.000E+00
#rwgt            1           1   3.8104799556412494E-002           3       55389           0
</event>
<event>
      5   9999  3.79277E-02  2.27396E+01 -1.00000E+00  1.61897E-01
      21    -1     0     0   502   501  0.000000000E+00  0.000000000E+00  1.633476892E+02  1.633476892E+02  0.000000000E+00  0.00000E+00  9.000E+00
       2    -1     0     0   501     0  0.000000000E+00  0.000000000E+00 -7.873568039E+02  7.873568039E+02  0.000000000E+00  0.00000E+00  9.000E+00
      25     1     1     2     0     0  1.156714191E+02 -3.296088210E+01  5.455504131E+01  1.818448500E+02  1.250000000E+02  0.00000E+00  9.000E+00
      25     1     1     2     0     0 -9.293628254E+01  3.251080398E+01 -9.596764165E+01  1.858195179E+02  1.250000000E+02  0.00000E+00  9.000E+00
       2     1     1     2   502     0 -2.273513658E+01  4.500781200E-01 -5.825965144E+02  5.830401252E+02  7.629394531E-06  0.00000E+00  9.000E+00
#rwgt            2          13   3.6881879225656518E-004           3       55627           0
</event>
<event>
      5   9999  3.79277E-02  2.94893E+01 -1.00000E+00  1.53560E-01
      21    -1     0     0   511   501  0.000000000E+00  0.000000000E+00  1.454941846E+03  1.454941846E+03  0.000000000E+00  0.00000E+00  9.000E+00
      21    -1     0     0   501   502  0.000000000E+00  0.000000000E+00 -3.693588315E+01  3.693588315E+01  0.000000000E+00  0.00000E+00  9.000E+00
      25     1     1     2     0     0  1.461018262E+02 -7.769102695E+01  6.189931997E+02  6.528087167E+02  1.250000000E+02  0.00000E+00  9.000E+00
      25     1     1     2     0     0 -1.553381008E+02  1.056965567E+02  6.805144139E+02  7.169564528E+02  1.250000000E+02  0.00000E+00  9.000E+00
      21     1     1     2   511   502  9.236274586E+00 -2.800552974E+01  1.184983490E+02  1.221125595E+02  1.348699152E-06  0.00000E+00  9.000E+00
#rwgt            1           1   3.3246920563092627E-002           3       55646           0
</event>
<event>
      5   9999  3.79277E-02  1.52749E+02 -1.00000E+00  1.16082E-01
       1    -1     0     0   502     0  0.000000000E+00  0.000000000E+00  9.228785129E+02  9.228785129E+02  0.000000000E+00  0.00000E+00  9.000E+00
      21    -1     0     0   501   502  0.000000000E+00  0.000000000E+00 -2.584230995E+02  2.584230995E+02  0.000000000E+00  0.00000E+00  9.000E+00
      25     1     1     2     0     0  1.568650972E+01  1.815880603E+02  2.481124394E+02  3.322725881E+02  1.250000000E+02  0.00000E+00  9.000E+00
      25     1     1     2     0     0 -3.158229438E+01 -2.966876911E+01 -1.856460791E+02  2.279630318E+02  1.250000000E+02  0.00000E+00  9.000E+00
       1     1     1     2   501     0  1.589578466E+01 -1.519192912E+02  6.019890531E+02  6.210659925E+02  7.629394531E-06  0.00000E+00  9.000E+00
#rwgt            1           1   4.8375945973392946E-002           3       55799           0
</event>
<event>
      5   9999  3.79277E-02  1.16540E+02 -1.00000E+00  1.20910E-01
      21    -1     0     0   502   501  0.000000000E+00  0.000000000E+00  8.304311406E+01  8.304311406E+01  0.000000000E+00  0.00000E+00  9.000E+00
      21    -1     0     0   501   511  0.000000000E+00  0.000000000E+00 -1.597264077E+03  1.597264077E+03  0.000000000E+00  0.00000E+00  9.000E+00
      25     1     1     2     0     0 -2.246905819E+02  1.372745511E+02 -2.944592894E+02  4.143204473E+02  1.250000000E+02  0.00000E+00  9.000E+00
      25     1     1     2     0     0  1.769119363E+02 -3.097843595E+01 -7.040556484E+02  7.372766460E+02  1.250000000E+02  0.00000E+00  9.000E+00
      21     1     1     2   502   511  4.777864561E+01 -1.062961152E+02 -5.157060248E+02  5.287100974E+02  0.000000000E+00  0.00000E+00  9.000E+00
#rwgt            1           1   3.8479117565657681E-002           3       56003           0
</event>
<event>
      5   9999 -3.79277E-02  9.83227E+01 -1.00000E+00  1.24159E-01
      21    -1     0     0   502   501  0.000000000E+00  0.000000000E+00  1.498225839E+03  1.498225839E+03  0.000000000E+00  0.00000E+00  9.000E+00
      21    -1     0     0   501   512  0.000000000E+00  0.000000000E+00 -2.800806523E+02  2.800806523E+02  0.000000000E+00  0.00000E+00  9.000E+00
      25     1     1     2     0     0 -1.486521655E+02 -4.004480350E+01  1.086101669E+03  1.104057466E+03  1.250000000E+02  0.00000E+00  9.000E+00
      25     1     1     2     0     0  5.049983328E+01  4.583081367E+01  3.809147908E+02  4.066592855E+02  1.250000000E+02  0.00000E+00  9.000E+00
      21     1     1     2   502   512  9.815233224E+01 -5.786010164E+00 -2.488712732E+02  2.675897398E+02  6.607249480E-06  0.00000E+00  9.000E+00
#rwgt            1           1 -0.19558003094232851                3       56117           0
</event>
<event>
      5   9999  3.79277E-02  2.94821E+01 -1.00000E+00  1.53567E-01
      21    -1     0     0   511   501  0.000000000E+00  0.000000000E+00  1.468629520E+03  1.468629520E+03  0.000000000E+00  0.00000E+00  9.000E+00
      21    -1     0     0   501   502  0.000000000E+00  0.000000000E+00 -1.052554856E+02  1.052554856E+02  0.000000000E+00  0.00000E+00  9.000E+00
      25     1     1     2     0     0 -2.315039514E+02 -1.545602124E+01  1.179756782E+02  2.887494221E+02  1.250000000E+02  0.00000E+00  9.000E+00
      25     1     1     2     0     0  2.571899599E+02  2.992743589E+01  1.138845686E+03  1.174579424E+03  1.250000000E+02  0.00000E+00  9.000E+00
      21     1     1     2   511   502 -2.568600846E+01 -1.447141465E+01  1.065526702E+02  1.105561594E+02  1.348699152E-06  0.00000E+00  9.000E+00
#rwgt            1           1   2.3827061454694664E-002           3       56157           0
</event>
<event>
      5   9999  3.79277E-02  6.43412E+01 -1.00000E+00  1.33102E-01
      21    -1     0     0   502   501  0.000000000E+00  0.000000000E+00  1.456931640E+02  1.456931640E+02  0.000000000E+00  0.00000E+00  9.000E+00
       1    -1     0     0   501     0  0.000000000E+00  0.000000000E+00 -1.780977098E+03  1.780977098E+03  0.000000000E+00  0.00000E+00  9.000E+00
      25     1     1     2     0     0 -1.076659113E+01  7.889863818E+01  5.962428717E+01  1.597528410E+02  1.250000000E+02  0.00000E+00  9.000E+00
      25     1     1     2     0     0  1.280111902E+01 -1.458957048E+01 -7.775390666E+01  1.484836497E+02  1.250000000E+02  0.00000E+00  9.000E+00
       1     1     1     2   502     0 -2.034527890E+00 -6.430906771E+01 -1.617154315E+03  1.618433772E+03  3.051757812E-05  0.00000E+00  9.000E+00
#rwgt            1           1  0.10058324464569857                3       56316           0
</event>
<event>
      5   9999  3.79277E-02  1.10018E+02 -1.00000E+00  1.21991E-01
      21    -1     0     0   502   501  0.000000000E+00  0.000000000E+00  1.771161690E+02  1.771161690E+02  0.000000000E+00  0.00000E+00  9.000E+00
       2    -1     0     0   501     0  0.000000000E+00  0.000000000E+00 -6.910482342E+02  6.910482342E+02  0.000000000E+00  0.00000E+00  9.000E+00
      25     1     1     2     0     0  1.465430860E+02  1.124423324E+02 -5.233239769E+02  5.688682967E+02  1.250000000E+02  0.00000E+00  9.000E+00
      25     1     1     2     0     0 -8.869061415E+01 -1.886350066E+01  7.450067585E+01  1.714561384E+02  1.250000000E+02  0.00000E+00  9.000E+00
       2     1     1     2   502     0 -5.785247189E+01 -9.357883176E+01 -6.510876410E+01  1.278399680E+02  0.000000000E+00  0.00000E+00  9.000E+00
#rwgt            1           1   3.7108343745947098E-002           3       56482           0
</event>
<event>
      5   9999  3.79277E-02  2.32259E+01 -1.00000E+00  1.61183E-01
      21    -1     0     0   511   501  0.000000000E+00  0.000000000E+00  4.952856816E+01  4.952856816E+01  0.000000000E+00  0.00000E+00  9.000E+00
      21    -1     0     0   501   502  0.000000000E+00  0.000000000E+00 -1.597808177E+03  1.597808177E+03  0.000000000E+00  0.00000E+00  9.000E+00
      25     1     1     2     0     0  1.346637030E+02  4.002383219E+01 -2.722830201E+02  3.309067286E+02  1.250000000E+02  0.00000E+00  9.000E+00
      25     1     1     2     0     0 -1.379732696E+02 -1.703492099E+01 -1.279372448E+03  1.292960042E+03  1.250000000E+02  0.00000E+00  9.000E+00
      21     1     1     2   511   502  3.309566617E+00 -2.298891121E+01  3.375858663E+00  2.346997425E+01  8.439899837E-07  0.00000E+00  9.000E+00
#rwgt            1           1   4.0055759739577035E-002           3       56537           0
</event>
<event>
      5   9999  3.79277E-02  1.99983E+01 -1.00000E+00  1.66372E-01
      21    -1     0     0   502   501  0.000000000E+00  0.000000000E+00  2.037052540E+02  2.037052540E+02  0.000000000E+00  0.00000E+00  9.000E+00
      21    -1     0     0   501   512  0.000000000E+00  0.000000000E+00 -2.772155702E+02  2.772155702E+02  0.000000000E+00  0.00000E+00  9.000E+00
      25     1     1     2     0     0 -1.278596516E+02 -7.279634194E+01  8.443706463E+01  2.107178583E+02  1.250000000E+02  0.00000E+00  9.000E+00
      25     1     1     2     0     0  1.430099376E+02  5.974264717E+01 -1.460353415E+02  2.469257927E+02  1.250000000E+02  0.00000E+00  9.000E+00
      21     1     1     2   502   512 -1.515028598E+01  1.305369477E+01 -1.191203929E+01  2.327717320E+01  4.129530925E-07  0.00000E+00  9.000E+00
#rwgt            1           1   3.0304686675732651E-002           3       56781           0
</event>
<event>
      5   9999  3.79277E-02  5.16177E+01 -1.00000E+00  1.38291E-01
      21    -1     0     0   502   511  0.000000000E+00  0.000000000E+00  1.898086521E+02  1.898086521E+02  0.000000000E+00  0.00000E+00  9.000E+00
      21    -1     0     0   501   502  0.000000000E+00  0.000000000E+00 -8.648168555E+02  8.648168555E+02  0.000000000E+00  0.00000E+00  9.000E+00
      25     1     1     2     0     0  1.008954820E+02 -1.753322133E+01 -1.955229105E+01  1.627716321E+02  1.250000000E+02  0.00000E+00  9.000E+00
      25     1     1     2     0     0 -1.420503529E+02 -1.362226941E+01 -7.556746727E+02  7.791232765E+02  1.250000000E+02  0.00000E+00  9.000E+00
      21     1     1     2   501   511  4.115487096E+01  3.115549074E+01  1.002187604E+02  1.127305990E+02  1.348699152E-06  0.00000E+00  9.000E+00
#rwgt            1           1   4.5563496679306599E-002           3       56930           0
</event>
<event>
      5   9999  3.79277E-02  8.75256E+00 -1.00000E+00  2.02693E-01
      21    -1     0     0   502   501  0.000000000E+00  0.000000000E+00  1.069658739E+03  1.069658739E+03  0.000000000E+00  0.00000E+00  9.000E+00
      21    -1     0     0   501   512  0.000000000E+00  0.000000000E+00 -5.736961449E+01  5.736961449E+01  0.000000000E+00  0.00000E+00  9.000E+00
      25     1     1     2     0     0 -8.512945931E+01 -1.914311760E+02  5.402161362E+02  5.927490142E+02  1.250000000E+02  0.00000E+00  9.000E+00
      25     1     1     2     0     0  7.638658171E+01  1.918428607E+02  4.577850582E+02  5.175236734E+02  1.250000000E+02  0.00000E+00  9.000E+00
      21     1     1     2   502   512  8.742877597E+00 -4.116847004E-01  1.428793046E+01  1.675566620E+01  1.685873940E-07  0.00000E+00  9.000E+00
#rwgt            1           1   3.4239855925640356E-002           3       57290           0
</event>
<event>
      5   9999  3.79277E-02  4.99070E+01 -1.00000E+00  1.39122E-01
      21    -1     0     0   502   501  0.000000000E+00  0.000000000E+00  3.699439269E+02  3.699439269E+02  0.000000000E+00  0.00000E+00  9.000E+00
      21    -1     0     0   511   502  0.000000000E+00  0.000000000E+00 -1.230471264E+02  1.230471264E+02  0.000000000E+00  0.00000E+00  9.000E+00
      25     1     1     2     0     0  1.190696309E+02 -6.728542024E+01  1.687378164E+02  2.506039813E+02  1.250000000E+02  0.00000E+00  9.000E+00
      25     1     1     2     0     0 -8.129736999E+01  9.990394170E+01  5.911422397E+01  1.889697103E+02  1.250000000E+02  0.00000E+00  9.000E+00
      21     1     1     2   511   501 -3.777226093E+01 -3.261852146E+01  1.904476019E+01  5.341736168E+01  0.000000000E+00  0.00000E+00  9.000E+00
#rwgt            1           1   4.4801541849880062E-002           3       57794           0
</event>
<event>
      5   9999  3.79277E-02  1.99664E+01 -1.00000E+00  1.66429E-01
       2    -1     0     0   502     0  0.000000000E+00  0.000000000E+00  1.448511428E+03  1.448511428E+03  0.000000000E+00  0.00000E+00  9.000E+00
      21    -1     0     0   501   502  0.000000000E+00  0.000000000E+00 -5.336403675E+02  5.336403675E+02  0.000000000E+00  0.00000E+00  9.000E+00
      25     1     1     2     0     0 -4.238196829E+02  2.083163949E+00 -1.760747042E+02  4.756624482E+02  1.250000000E+02  0.00000E+00  9.000E+00
      25     1     1     2     0     0  4.139158182E+02  1.525384275E+01  1.764961593E+01  4.330074979E+02  1.250000000E+02  0.00000E+00  9.000E+00
       2     1     1     2   501     0  9.903864696E+00 -1.733700670E+01  1.073296149E+03  1.073481850E+03  2.157918644E-05  0.00000E+00  9.000E+00
#rwgt            1           1  0.17430610929774973                3       57871           0
</event>
<event>
      5   9999  3.79277E-02  1.09317E+02 -1.00000E+00  1.22113E-01
      21    -1     0     0   511   501  0.000000000E+00  0.000000000E+00  3.684463626E+02  3.684463626E+02  0.000000000E+00  0.00000E+00  9.000E+00
      21    -1     0     0   501   502  0.000000000E+00  0.000000000E+00 -6.999479238E+02  6.999479238E+02  0.000000000E+00  0.00000E+00  9.000E+00
      25     1     1     2     0     0 -1.195354128E+02  2.800385106E+02 -1.480269336E+02  3.608978462E+02  1.250000000E+02  0.00000E+00  9.000E+00
      25     1     1     2     0     0  2.220672456E+02 -2.421258454E+02 -3.578952907E+02  5.016501029E+02  1.250000000E+02  0.00000E+00  9.000E+00
      21     1     1     2   511   502 -1.025318328E+02 -3.791266520E+01  1.744206630E+02  2.058463374E+02  1.907348633E-06  0.00000E+00  9.000E+00
#rwgt            1           1   4.0832974908709768E-002           3       58191           0
</event>
<event>
      5   9999  3.79277E-02  6.37151E+01 -1.00000E+00  1.33324E-01
       2    -1     0     0   502     0  0.000000000E+00  0.000000000E+00  2.198545887E+03  2.198545887E+03  0.000000000E+00  0.00000E+00  9.000E+00
      21    -1     0     0   501   502  0.000000000E+00  0.000000000E+00 -3.100578455E+02  3.100578455E+02  0.000000000E+00  0.00000E+00  9.000E+00
      25     1     1     2     0     0  1.361514588E+02 -9.524589920E+01  5.969084800E+01  2.163261389E+02  1.250000000E+02  0.00000E+00  9.000E+00
      25     1     1     2     0     0 -1.443384363E+02  3.205896561E+01 -1.907098360E+02  2.717657134E+02  1.250000000E+02  0.00000E+00  9.000E+00
       2     1     1     2   501     0  8.186977417E+00  6.318693359E+01  2.019507029E+03  2.020511880E+03  2.157918644E-05  0.00000E+00  9.000E+00
#rwgt            1           1   2.7944240761751105E-002           3       58389           0
</event>
<event>
      5   9999  3.79277E-02  6.12026E+01 -1.00000E+00  1.34244E-01
      21    -1     0     0   502   511  0.000000000E+00  0.000000000E+00  1.889562254E+03  1.889562254E+03  0.000000000E+00  0.00000E+00  9.000E+00
      21    -1     0     0   501   502  0.000000000E+00  0.000000000E+00 -5.511850349E+01  5.511850349E+01  0.000000000E+00  0.00000E+00  9.000E+00
      25     1     1     2     0     0  7.213704046E+01 -1.404966641E+02  6.387302731E+02  6.697345944E+02  1.250000000E+02  0.00000E+00  9.000E+00
      25     1     1     2     0     0 -5.303407779E+01  1.986416464E+02  3.371582560E+02  4.142122725E+02  1.250000000E+02  0.00000E+00  9.000E+00
      21     1     1     2   501   511 -1.910296267E+01 -5.814498225E+01  8.585552211E+02  8.607338903E+02  0.000000000E+00  0.00000E+00  9.000E+00
#rwgt            1           1   3.5341327703403091E-002           3       58548           0
</event>
<event>
      5   9999  3.79277E-02  4.31414E+01 -1.00000E+00  1.42833E-01
      21    -1     0     0   502   501  0.000000000E+00  0.000000000E+00  3.532653426E+02  3.532653426E+02  0.000000000E+00  0.00000E+00  9.000E+00
      -4    -1     0     0     0   502  0.000000000E+00  0.000000000E+00 -5.423690119E+02  5.423690119E+02  0.000000000E+00  0.00000E+00  9.000E+00
      25     1     1     2     0     0  2.288043069E+02 -5.530579627E-01  1.042847656E+02  2.808060346E+02  1.250000000E+02  0.00000E+00  9.000E+00
      25     1     1     2     0     0 -2.067161374E+02 -3.650496760E+01  6.583108437E+01  2.530274803E+02  1.250000000E+02  0.00000E+00  9.000E+00
      -4     1     1     2     0   501 -2.208816949E+01  3.705802556E+01 -3.592195193E+02  3.618008396E+02  5.394796609E-06  0.00000E+00  9.000E+00
#rwgt            1           1   1.4780940581219428E-002           3       58616           0
</event>
<event>
      5   9999  3.79277E-02  4.10981E+00 -1.00000E+00  2.60729E-01
      21    -1     0     0   502   501  0.000000000E+00  0.000000000E+00  3.017266947E+02  3.017266947E+02  0.000000000E+00  0.00000E+00  9.000E+00
      21    -1     0     0   511   502  0.000000000E+00  0.000000000E+00 -1.685837017E+02  1.685837017E+02  0.000000000E+00  0.00000E+00  9.000E+00
      25     1     1     2     0     0 -1.279823299E+02 -2.290741593E+01  1.934380517E+02  2.644759088E+02  1.250000000E+02  0.00000E+00  9.000E+00
      25     1     1     2     0     0  1.240858312E+02  2.421426003E+01 -3.625682973E+01  1.814474623E+02  1.250000000E+02  0.00000E+00  9.000E+00
      21     1     1     2   511   501  3.896498676E+00 -1.306844105E+00 -2.403822906E+01  2.438702523E+01  3.371747881E-07  0.00000E+00  9.000E+00
#rwgt            1           1   3.7936684332482144E-002           3       58757           0
</event>
<event>
      5   9999  3.79277E-02  1.10554E+02 -1.00000E+00  1.21899E-01
      21    -1     0     0   512   501  0.000000000E+00  0.000000000E+00  9.092021963E+02  9.092021963E+02  0.000000000E+00  0.00000E+00  9.000E+00
      21    -1     0     0   501   502  0.000000000E+00  0.000000000E+00 -7.800448420E+01  7.800448420E+01  0.000000000E+00  0.00000E+00  9.000E+00
      25     1     1     2     0     0  6.746233567E+01 -1.190467452E+02  5.852317108E+02  6.138765752E+02  1.250000000E+02  0.00000E+00  9.000E+00
      25     1     1     2     0     0  1.319677478E+01  4.343994586E+01  3.883800388E+01  1.385444849E+02  1.250000000E+02  0.00000E+00  9.000E+00
      21     1     1     2   512   502 -8.065911045E+01  7.560679933E+01  2.071279974E+02  2.347856203E+02  2.697398305E-06  0.00000E+00  9.000E+00
#rwgt            1           1   3.0941212562592239E-002           3       59444           0
</event>
<event>
      5   9999  3.79277E-02  4.56418E+00 -1.00000E+00  2.50660E-01
      21    -1     0     0   511   501  0.000000000E+00  0.000000000E+00  4.740836438E+01  4.740836438E+01  0.000000000E+00  0.00000E+00  9.000E+00
      21    -1     0     0   501   502  0.000000000E+00  0.000000000E+00 -1.608695676E+03  1.608695676E+03  0.000000000E+00  0.00000E+00  9.000E+00
      25     1     1     2     0     0  6.097181108E+01  2.051462830E+02 -1.108133050E+03  1.135511521E+03  1.250000000E+02  0.00000E+00  9.000E+00
      25     1     1     2     0     0 -5.962330757E+01 -2.095067091E+02 -4.487682411E+02  5.142625148E+02  1.250000000E+02  0.00000E+00  9.000E+00
      21     1     1     2   511   502 -1.348503507E+00  4.360426088E+00 -4.386021441E+00  6.330004855E+00  8.429369702E-08  0.00000E+00  9.000E+00
#rwgt            1           1   5.1389679501938054E-002           3       59568           0
</event>
<event>
      5   9999  3.79277E-02  5.21007E+01 -1.00000E+00  1.38063E-01
      21    -1     0     0   502   501  0.000000000E+00  0.000000000E+00  1.340506694E+02  1.340506694E+02  0.000000000E+00  0.00000E+00  9.000E+00
      21    -1     0     0   512   502  0.000000000E+00  0.000000000E+00 -1.353887755E+03  1.353887755E+03  0.000000000E+00  0.00000E+00  9.000E+00
      25     1     1     2     0     0  1.483744959E+02  1.384059173E+02 -1.244667495E+02  2.688645769E+02  1.250000000E+02  0.00000E+00  9.000E+00
      25     1     1     2     0     0 -9.915289571E+01 -1.213262151E+02 -1.030355837E+02  2.253723113E+02  1.250000000E+02  0.00000E+00  9.000E+00
      21     1     1     2   512   501 -4.922160022E+01 -1.707970223E+01 -9.923347522E+02  9.937015359E+02  0.000000000E+00  0.00000E+00  9.000E+00
#rwgt            1           1   3.3230530493549779E-002           3       59938           0
</event>
<event>
      5   9999  3.79277E-02  8.39497E+01 -1.00000E+00  1.27345E-01
      21    -1     0     0   502   501  0.000000000E+00  0.000000000E+00  5.859115960E+02  5.859115960E+02  0.000000000E+00  0.00000E+00  9.000E+00
       2    -1     0     0   501     0  0.000000000E+00  0.000000000E+00 -1.952650511E+02  1.952650511E+02  0.000000000E+00  0.00000E+00  9.000E+00
      25     1     1     2     0     0 -6.625515193E+01 -1.714232135E+02 -8.476504874E+01  2.378776508E+02  1.250000000E+02  0.00000E+00  9.000E+00
      25     1     1     2     0     0  6.087188013E+01  8.764631602E+01  3.915181894E+02  4.246160090E+02  1.250000000E+02  0.00000E+00  9.000E+00
       2     1     1     2   502     0  5.383271798E+00  8.377689748E+01  8.389340434E+01  1.186829872E+02  9.536743164E-07  0.00000E+00  9.000E+00
#rwgt            1           1   3.9514968110100267E-002           3       60110           0
</event>
<event>
      5   9999  3.79277E-02  1.10220E+01 -1.00000E+00  1.90995E-01
      21    -1     0     0   502   501  0.000000000E+00  0.000000000E+00  2.986208445E+02  2.986208445E+02  0.000000000E+00  0.00000E+00  9.000E+00
      21    -1     0     0   511   502  0.000000000E+00  0.000000000E+00 -1.419328404E+02  1.419328404E+02  0.000000000E+00  0.00000E+00  9.000E+00
      25     1     1     2     0     0  1.245947511E+02  4.948684696E+01  2.894041768E+01  1.855676367E+02  1.250000000E+02  0.00000E+00  9.000E+00
      25     1     1     2     0     0 -1.201590553E+02 -5.957693193E+01  1.455223521E+02  2.340712805E+02  1.250000000E+02  0.00000E+00  9.000E+00
      21     1     1     2   511   501 -4.435695770E+00  1.009008496E+01 -1.777476563E+01  2.091476762E+01  0.000000000E+00  0.00000E+00  9.000E+00
#rwgt            1           1   2.8257292822716162E-002           3       60249           0
</event>
<event>
      5   9999  3.79277E-02  3.29529E+01 -1.00000E+00  1.50261E-01
      -2    -1     0     0     0   501  0.000000000E+00  0.000000000E+00  4.214046244E+02  4.214046244E+02  0.000000000E+00  0.00000E+00  9.000E+00
      21    -1     0     0   501   502  0.000000000E+00  0.000000000E+00 -2.339577310E+03  2.339577310E+03  0.000000000E+00  0.00000E+00  9.000E+00
      25     1     1     2     0     0  2.114361735E+02  1.546511920E+02 -1.624063602E+03  1.649796905E+03  1.250000000E+02  0.00000E+00  9.000E+00
      25     1     1     2     0     0 -2.387603754E+02 -1.362316688E+02 -6.694464268E+02  7.344039099E+02  1.250000000E+02  0.00000E+00  9.000E+00
      -2     1     1     2     0   502  2.732420193E+01 -1.841952315E+01  3.753373428E+02  3.767811192E+02  9.344061824E-06  0.00000E+00  9.000E+00
#rwgt            1           1   9.1723891050794204E-002           3       60481           0
</event>
<event>
      5   9999  3.79277E-02  8.96944E+01 -1.00000E+00  1.25990E-01
      21    -1     0     0   502   501  0.000000000E+00  0.000000000E+00  4.661931920E+02  4.661931920E+02  0.000000000E+00  0.00000E+00  9.000E+00
      21    -1     0     0   501   511  0.000000000E+00  0.000000000E+00 -4.048608267E+02  4.048608267E+02  0.000000000E+00  0.00000E+00  9.000E+00
      25     1     1     2     0     0  8.433269478E+01 -1.934201708E+02  1.871410089E+02  3.084965528E+02  1.250000000E+02  0.00000E+00  9.000E+00
      25     1     1     2     0     0 -8.377669565E+01  1.037274672E+02  1.723425378E+02  2.512068321E+02  1.250000000E+02  0.00000E+00  9.000E+00
      21     1     1     2   502   511 -5.559991299E-01  8.969270359E+01 -2.981511813E+02  3.113506338E+02  7.629394531E-06  0.00000E+00  9.000E+00
#rwgt            1           1   3.8806242252299603E-002           3       60698           0
</event>
<event>
      5   9999  3.79277E-02  2.82191E+01 -1.00000E+00  1.54909E-01
      21    -1     0     0   502   501  0.000000000E+00  0.000000000E+00  3.827562531E+02  3.827562531E+02  0.000000000E+00  0.00000E+00  9.000E+00
      -3    -1     0     0     0   502  0.000000000E+00  0.000000000E+00 -4.464877633E+02  4.464877633E+02  0.000000000E+00  0.00000E+00  9.000E+00
      25     1     1     2     0     0  4.511089462E+01 -1.611609467E+02 -1.568502000E+02  2.612179718E+02  1.250000000E+02  0.00000E+00  9.000E+00
      25     1     1     2     0     0 -6.853062462E+01  1.454182851E+02  2.981533207E+02  3.610586196E+02  1.250000000E+02  0.00000E+00  9.000E+00
      -3     1     1     2     0   501  2.341973000E+01  1.574266160E+01 -2.050346309E+02  2.069674250E+02  2.697398305E-06  0.00000E+00  9.000E+00
#rwgt            1           1   9.8290339471645699E-002           3       60930           0
</event>
<event>
      5   9999  3.79277E-02  8.65880E+01 -1.00000E+00  1.26708E-01
      21    -1     0     0   511   501  0.000000000E+00  0.000000000E+00  2.477600625E+02  2.477600625E+02  0.000000000E+00  0.00000E+00  9.000E+00
      21    -1     0     0   501   502  0.000000000E+00  0.000000000E+00 -3.995504118E+02  3.995504118E+02  0.000000000E+00  0.00000E+00  9.000E+00
      25     1     1     2     0     0 -1.943579522E+02  9.888152607E+01 -1.954871388E+02  3.184223472E+02  1.250000000E+02  0.00000E+00  9.000E+00
      25     1     1     2     0     0  1.346173438E+02 -3.620338236E+01 -5.734449911E+01  1.958211065E+02  1.250000000E+02  0.00000E+00  9.000E+00
      21     1     1     2   511   502  5.974060835E+01 -6.267814371E+01  1.010412886E+02  1.330670207E+02  1.348699152E-06  0.00000E+00  9.000E+00
#rwgt            1           1   3.7774756847120596E-002           3       61070           0
</event>
<event>
      5   9999  3.79277E-02  1.01719E+02 -1.00000E+00  1.23496E-01
      21    -1     0     0   512   501  0.000000000E+00  0.000000000E+00  4.685228771E+02  4.685228771E+02  0.000000000E+00  0.00000E+00  9.000E+00
      21    -1     0     0   501   502  0.000000000E+00  0.000000000E+00 -7.942844515E+02  7.942844515E+02  0.000000000E+00  0.00000E+00  9.000E+00
      25     1     1     2     0     0 -9.924689791E+01 -1.146837981E+02 -3.186763939E+02  3.744088197E+02  1.250000000E+02  0.00000E+00  9.000E+00
      25     1     1     2     0     0  1.774616095E+02  4.965107241E+01 -4.133941280E+02  4.695503774E+02  1.250000000E+02  0.00000E+00  9.000E+00
      21     1     1     2   512   502 -7.821471164E+01  6.503272567E+01  4.063089474E+02  4.188481315E+02  9.344061824E-06  0.00000E+00  9.000E+00
#rwgt            1           1   4.4172466011521298E-002           3       61162           0
</event>
<event>
      5   9999  3.79277E-02  2.20610E+02 -1.00000E+00  1.10119E-01
      21    -1     0     0   502   511  0.000000000E+00  0.000000000E+00  5.393875187E+02  5.393875187E+02  0.000000000E+00  0.00000E+00  9.000E+00
      21    -1     0     0   501   502  0.000000000E+00  0.000000000E+00 -1.292459736E+03  1.292459736E+03  0.000000000E+00  0.00000E+00  9.000E+00
      25     1     1     2     0     0 -2.283467899E+02  1.296232125E+02 -3.516327058E+02  4.563058114E+02  1.250000000E+02  0.00000E+00  9.000E+00
      25     1     1     2     0     0  1.258832873E+02 -3.249941434E+02 -8.214935938E+02  9.010796413E+02  1.250000000E+02  0.00000E+00  9.000E+00
      21     1     1     2   501   511  1.024635027E+02  1.953709310E+02  4.200540821E+02  4.744618024E+02  5.394796609E-06  0.00000E+00  9.000E+00
#rwgt            1           1   6.9977854572210924E-002           3       61260           0
</event>
<event>
      5   9999  3.79277E-02  7.83765E+01 -1.00000E+00  1.28782E-01
      21    -1     0     0   512   501  0.000000000E+00  0.000000000E+00  4.774687107E+02  4.774687107E+02  0.000000000E+00  0.00000E+00  9.000E+00
      21    -1     0     0   501   502  0.000000000E+00  0.000000000E+00 -1.995884968E+02  1.995884968E+02  0.000000000E+00  0.00000E+00  9.000E+00
      25     1     1     2     0     0 -4.554654248E+01 -1.536104106E+01  1.914417949E+02  2.336352070E+02  1.250000000E+02  0.00000E+00  9.000E+00
      25     1     1     2     0     0  1.014666727E+02 -3.955541945E+01 -1.316357859E+02  2.116910414E+02  1.250000000E+02  0.00000E+00  9.000E+00
      21     1     1     2   512   502 -5.592013019E+01  5.491646051E+01  2.180742048E+02  2.317309591E+02  2.697398305E-06  0.00000E+00  9.000E+00
#rwgt            1           1   2.0284764268151290E-002           3       61413           0
</event>
<event>
      5   9999  3.79277E-02  1.75214E+02 -1.00000E+00  1.13781E-01
      21    -1     0     0   502   511  0.000000000E+00  0.000000000E+00  3.641657491E+02  3.641657491E+02  0.000000000E+00  0.00000E+00  9.000E+00
      21    -1     0     0   501   502  0.000000000E+00  0.000000000E+00 -8.876114029E+02  8.876114029E+02  0.000000000E+00  0.00000E+00  9.000E+00
      25     1     1     2     0     0 -2.294494212E+02 -6.277307332E+01 -7.385443483E+02  7.859136403E+02  1.250000000E+02  0.00000E+00  9.000E+00
      25     1     1     2     0     0  7.248715264E+01  1.406361971E+02  1.844967516E+01  2.024804132E+02  1.250000000E+02  0.00000E+00  9.000E+00
      21     1     1     2   501   511  1.569622686E+02 -7.786312375E+01  1.966490193E+02  2.633830985E+02  6.031565972E-06  0.00000E+00  9.000E+00
#rwgt            1           1   4.0836324167707362E-002           3       61494           0
</event>
<event>
      5   9999  3.79277E-02  2.74439E+01 -1.00000E+00  1.55776E-01
      21    -1     0     0   512   501  0.000000000E+00  0.000000000E+00  1.526318984E+03  1.526318984E+03  0.000000000E+00  0.00000E+00  9.000E+00
      21    -1     0     0   501   502  0.000000000E+00  0.000000000E+00 -4.207043496E+01  4.207043496E+01  0.000000000E+00  0.00000E+00  9.000E+00
      25     1     1     2     0     0  5.721248741E+01 -1.279618072E+02  5.854775826E+02  6.148629868E+02  1.250000000E+02  0.00000E+00  9.000E+00
      25     1     1     2     0     0 -8.424431377E+01  1.232239952E+02  3.232748102E+02  3.773762848E+02  1.250000000E+02  0.00000E+00  9.000E+00
      21     1     1     2   512   502  2.703182636E+01  4.737811987E+00  5.754961558E+02  5.761501469E+02  1.078959322E-05  0.00000E+00  9.000E+00
#rwgt            1           1   4.7159961020616259E-002           3       61564           0
</event>
<event>
      5   9999  3.79277E-02  7.42630E+01 -1.00000E+00  1.29933E-01
      21    -1     0     0   511   501  0.000000000E+00  0.000000000E+00  4.432803529E+02  4.432803529E+02  0.000000000E+00  0.00000E+00  9.000E+00
      21    -1     0     0   501   502  0.000000000E+00  0.000000000E+00 -2.205096026E+02  2.205096026E+02  0.000000000E+00  0.00000E+00  9.000E+00
      25     1     1     2     0     0  1.662847600E+02 -1.587760672E+02  4.884350356E+01  2.662163570E+02  1.250000000E+02  0.00000E+00  9.000E+00
      25     1     1     2     0     0 -1.331077814E+02  9.233602566E+01 -4.119875505E+00  2.046597090E+02  1.250000000E+02  0.00000E+00  9.000E+00
      21     1     1     2   511   502 -3.317697857E+01  6.644004152E+01  1.780471223E+02  1.929138895E+02  2.697398305E-06  0.00000E+00  9.000E+00
#rwgt            1           1   3.9993990954994861E-002           3       61743           0
</event>
<event>
      5   9999  3.79277E-02  4.15854E+01 -1.00000E+00  1.43801E-01
      21    -1     0     0   502   501  0.000000000E+00  0.000000000E+00  1.745557719E+01  1.745557719E+01  0.000000000E+00  0.00000E+00  9.000E+00
       2    -1     0     0   501     0  0.000000000E+00  0.000000000E+00 -1.957604402E+03  1.957604402E+03  0.000000000E+00  0.00000E+00  9.000E+00
      25     1     1     2     0     0  9.156326618E+01 -3.119988325E+01 -7.126331516E+02  7.299508704E+02  1.250000000E+02  0.00000E+00  9.000E+00
      25     1     1     2     0     0 -7.947742170E+01  7.099028709E+01 -1.051167822E+03  1.063924373E+03  1.250000000E+02  0.00000E+00  9.000E+00
       2     1     1     2   502     0 -1.208584448E+01 -3.979040384E+01 -1.763478520E+02  1.811847366E+02  2.697398305E-06  0.00000E+00  9.000E+00
#rwgt            2          13   4.9372639626415213E-004           3       61872           0
</event>
<event>
      5   9999  3.79277E-02  4.28182E+01 -1.00000E+00  1.43030E-01
      21    -1     0     0   502   511  0.000000000E+00  0.000000000E+00  1.868693708E+02  1.868693708E+02  0.000000000E+00  0.00000E+00  9.000E+00
      21    -1     0     0   501   502  0.000000000E+00  0.000000000E+00 -4.943517462E+02  4.943517462E+02  0.000000000E+00  0.00000E+00  9.000E+00
      25     1     1     2     0     0 -1.515595228E+02  1.681506936E+02 -8.367672632E+01  2.717935600E+02  1.250000000E+02  0.00000E+00  9.000E+00
      25     1     1     2     0     0  1.942414671E+02 -1.715643051E+02 -2.269943120E+02  3.664907584E+02  1.250000000E+02  0.00000E+00  9.000E+00
      21     1     1     2   501   511 -4.268194421E+01  3.413611467E+00  3.188662850E+00  4.293679862E+01  4.420398764E-07  0.00000E+00  9.000E+00
#rwgt            1           1   3.9155096284232922E-002           3       61891           0
</event>
<event>
      5   9999  3.79277E-02  5.50192E+01 -1.00000E+00  1.36746E-01
      21    -1     0     0   502   501  0.000000000E+00  0.000000000E+00  1.262387696E+02  1.262387696E+02  0.000000000E+00  0.00000E+00  9.000E+00
      21    -1     0     0   512   502  0.000000000E+00  0.000000000E+00 -3.008066329E+02  3.008066329E+02  0.000000000E+00  0.00000E+00  9.000E+00
      25     1     1     2     0     0 -8.411155630E+00 -1.026525977E+02 -8.812962719E+01  1.843912540E+02  1.250000000E+02  0.00000E+00  9.000E+00
      25     1     1     2     0     0 -3.006718298E+01  6.332671761E+01 -3.787543669E+00  1.433654566E+02  1.250000000E+02  0.00000E+00  9.000E+00
      21     1     1     2   512   501  3.847833861E+01  3.932588010E+01 -8.265069247E+01  9.928869198E+01  1.348699152E-06  0.00000E+00  9.000E+00
#rwgt            1           1   3.7265716798047736E-002           3       62020           0
</event>
<event>
      5   9999  3.79277E-02  1.07940E+02 -1.00000E+00  1.22354E-01
      21    -1     0     0   502   501  0.000000000E+00  0.000000000E+00  2.696933331E+02  2.696933331E+02  0.000000000E+00  0.00000E+00  9.000E+00
       1    -1     0     0   501     0  0.000000000E+00  0.000000000E+00 -4.286320125E+02  4.286320125E+02  0.000000000E+00  0.00000E+00  9.000E+00
      25     1     1     2     0     0 -1.131211455E+02  4.315851908E+00 -4.553847647E+01  1.746819194E+02  1.250000000E+02  0.00000E+00  9.000E+00
      25     1     1     2     0     0  1.481128695E+02 -1.064264354E+02  1.306253192E+02  2.568111802E+02  1.250000000E+02  0.00000E+00  9.000E+00
       1     1     1     2   502     0 -3.499172405E+01  1.021105835E+02 -2.440255222E+02  2.668322459E+02  4.672030912E-06  0.00000E+00  9.000E+00
#rwgt            1           1   4.4383032200791470E-002           3       62128           0
</event>
<event>
      5   9999  3.79277E-02  1.84432E+01 -1.00000E+00  1.69326E-01
      21    -1     0     0   511   501  0.000000000E+00  0.000000000E+00  1.823035530E+02  1.823035530E+02  0.000000000E+00  0.00000E+00  9.000E+00
      21    -1     0     0   501   502  0.000000000E+00  0.000000000E+00 -2.150263769E+02  2.150263769E+02  0.000000000E+00  0.00000E+00  9.000E+00
      25     1     1     2     0     0  2.399298702E+01  7.553872897E+01 -1.319225726E+02  1.982683236E+02  1.250000000E+02  0.00000E+00  9.000E+00
      25     1     1     2     0     0 -8.324379122E+00 -8.526727035E+01  9.822937117E+01  1.805929457E+02  1.250000000E+02  0.00000E+00  9.000E+00
      21     1     1     2   511   502 -1.566860790E+01  9.728541376E+00  9.703775384E-01  1.846866058E+01  2.018543658E-07  0.00000E+00  9.000E+00
#rwgt            1           1   4.9569409268248342E-002           3       62252           0
</event>
<event>
      5   9999  3.79277E-02  2.50628E+01 -1.00000E+00  1.58669E-01
      21    -1     0     0   502   512  0.000000000E+00  0.000000000E+00  8.946664462E+02  8.946664462E+02  0.000000000E+00  0.00000E+00  9.000E+00
      21    -1     0     0   501   502  0.000000000E+00  0.000000000E+00 -1.161802653E+02  1.161802653E+02  0.000000000E+00  0.00000E+00  9.000E+00
      25     1     1     2     0     0  1.955509281E+02  5.900338935E+01  2.354998355E+02  3.358671433E+02  1.250000000E+02  0.00000E+00  9.000E+00
      25     1     1     2     0     0 -1.956540813E+02 -3.394083208E+01  1.442093260E+02  2.754157390E+02  1.250000000E+02  0.00000E+00  9.000E+00
      21     1     1     2   501   512  1.031531511E-01 -2.506255727E+01  3.987770194E+02  3.995638292E+02  5.394796609E-06  0.00000E+00  9.000E+00
#rwgt            1           1   4.3743957349620152E-002           3       62428           0
</event>
<event>
      5   9999  3.79277E-02  4.06913E+01 -1.00000E+00  1.44380E-01
      21    -1     0     0   502   501  0.000000000E+00  0.000000000E+00  1.554196047E+02  1.554196047E+02  0.000000000E+00  0.00000E+00  9.000E+00
      21    -1     0     0   501   511  0.000000000E+00  0.000000000E+00 -2.984956208E+02  2.984956208E+02  0.000000000E+00  0.00000E+00  9.000E+00
      25     1     1     2     0     0  8.141040850E+01  1.146193316E+02 -8.075626597E+01  2.047237658E+02  1.250000000E+02  0.00000E+00  9.000E+00
      25     1     1     2     0     0 -8.154905208E+01 -7.392825332E+01  9.305041728E+00  1.668149224E+02  1.250000000E+02  0.00000E+00  9.000E+00
      21     1     1     2   502   511  1.386435868E-01 -4.069107830E+01 -7.162479190E+01  8.237653725E+01  1.348699152E-06  0.00000E+00  9.000E+00
#rwgt            2          11   1.4784135990373577E-003           3       62679           0
</event>
<event>
      5   9999  3.79277E-02  3.03271E+01 -1.00000E+00  1.52713E-01
      21    -1     0     0   502   501  0.000000000E+00  0.000000000E+00  1.232836975E+03  1.232836975E+03  0.000000000E+00  0.00000E+00  9.000E+00
      21    -1     0     0   501   512  0.000000000E+00  0.000000000E+00 -1.082380848E+02  1.082380848E+02  0.000000000E+00  0.00000E+00  9.000E+00
      25     1     1     2     0     0  2.382965129E+02  4.852669860E+01  3.782087058E+02  4.666978612E+02  1.250000000E+02  0.00000E+00  9.000E+00
      25     1     1     2     0     0 -2.370786551E+02 -1.822405746E+01  7.824385099E+02  8.272686545E+02  1.250000000E+02  0.00000E+00  9.000E+00
      21     1     1     2   502   512 -1.217857764E+00 -3.030264113E+01 -3.604832493E+01  4.710854453E+01  1.966049969E-06  0.00000E+00  9.000E+00
#rwgt            1           1  0.10313184093512626                3       62729           0
</event>
<event>
      5   9999  3.79277E-02  5.81896E+01 -1.00000E+00  1.35418E-01
      21    -1     0     0   502   501  0.000000000E+00  0.000000000E+00  3.101992648E+02  3.101992648E+02  0.000000000E+00  0.00000E+00  9.000E+00
      21    -1     0     0   501   511  0.000000000E+00  0.000000000E+00 -1.960826252E+02  1.960826252E+02  0.000000000E+00  0.00000E+00  9.000E+00
      25     1     1     2     0     0 -1.599658712E+02  5.219072241E+01  1.686988310E+02  2.690673652E+02  1.250000000E+02  0.00000E+00  9.000E+00
      25     1     1     2     0     0  1.024810937E+02 -4.316108098E+01 -6.227766133E+01  1.785182360E+02  1.250000000E+02  0.00000E+00  9.000E+00
      21     1     1     2   502   511  5.748477754E+01 -9.029641437E+00  7.695469957E+00  5.869628891E+01  1.180111758E-06  0.00000E+00  9.000E+00
#rwgt            1           1   3.4995832130112758E-002           3       62881           0
</event>
<event>
      5   9999  3.79277E-02  7.45417E+01 -1.00000E+00  1.29853E-01
      21    -1     0     0   512   501  0.000000000E+00  0.000000000E+00  4.951553363E+02  4.951553363E+02  0.000000000E+00  0.00000E+00  9.000E+00
      21    -1     0     0   501   502  0.000000000E+00  0.000000000E+00 -1.811510334E+02  1.811510334E+02  0.000000000E+00  0.00000E+00  9.000E+00
      25     1     1     2     0     0 -1.538786034E+02  1.259641458E+02  1.204216107E+02  2.639544561E+02  1.250000000E+02  0.00000E+00  9.000E+00
      25     1     1     2     0     0  2.234929504E+02 -9.931266439E+01  9.906595083E+01  2.919780245E+02  1.250000000E+02  0.00000E+00  9.000E+00
      21     1     1     2   512   502 -6.961434704E+01 -2.665148140E+01  9.451674135E+01  1.203738891E+02  0.000000000E+00  0.00000E+00  9.000E+00
#rwgt            1           1   3.0945339750372159E-002           3       62964           0
</event>
<event>
      5   9999  3.79277E-02  1.45184E+01 -1.00000E+00  1.78729E-01
      21    -1     0     0   502   501  0.000000000E+00  0.000000000E+00  3.176874285E+02  3.176874285E+02  0.000000000E+00  0.00000E+00  9.000E+00
      21    -1     0     0   501   511  0.000000000E+00  0.000000000E+00 -1.518809631E+02  1.518809631E+02  0.000000000E+00  0.00000E+00  9.000E+00
      25     1     1     2     0     0  9.439597982E+01 -1.321139570E+02  1.280522266E+02  2.416341685E+02  1.250000000E+02  0.00000E+00  9.000E+00
      25     1     1     2     0     0 -8.696354843E+01  1.445856285E+02  3.810333628E+01  2.134116374E+02  1.250000000E+02  0.00000E+00  9.000E+00
      21     1     1     2   502   511 -7.432431389E+00 -1.247167154E+01 -3.490974705E-01  1.452258573E+01  3.077369396E-07  0.00000E+00  9.000E+00
#rwgt            1           1   4.0717673016079391E-002           3       63095           0
</event>
<event>
      5   9999  3.79277E-02  1.12478E+02 -1.00000E+00  1.21574E-01
       1    -1     0     0   502     0  0.000000000E+00  0.000000000E+00  1.083924700E+03  1.083924700E+03  0.000000000E+00  0.00000E+00  9.000E+00
      21    -1     0     0   501   502  0.000000000E+00  0.000000000E+00 -9.991769740E+01  9.991769740E+01  0.000000000E+00  0.00000E+00  9.000E+00
      25     1     1     2     0     0 -1.750351234E+02 -7.854195876E+01  2.197248912E+02  3.173486435E+02  1.250000000E+02  0.00000E+00  9.000E+00
      25     1     1     2     0     0  8.486184981E+01  1.457732832E+02  1.960919824E+02  2.872776518E+02  1.250000000E+02  0.00000E+00  9.000E+00
       1     1     1     2   501     0  9.017327363E+01 -6.723132444E+01  5.681901289E+02  5.792161020E+02  0.000000000E+00  0.00000E+00  9.000E+00
#rwgt            1           1   3.5079739942249027E-002           3       63299           0
</event>
<event>
      5   9999  3.79277E-02  2.43808E+01 -1.00000E+00  1.59571E-01
      21    -1     0     0   502   511  0.000000000E+00  0.000000000E+00  6.386364425E+02  6.386364425E+02  0.000000000E+00  0.00000E+00  9.000E+00
      21    -1     0     0   501   502  0.000000000E+00  0.000000000E+00 -2.587576799E+02  2.587576799E+02  0.000000000E+00  0.00000E+00  9.000E+00
      25     1     1     2     0     0  3.231132661E+02 -1.254817671E+02  3.123582576E+01  3.697952588E+02  1.250000000E+02  0.00000E+00  9.000E+00
      25     1     1     2     0     0 -3.275903063E+02  1.015155955E+02  2.973664393E+02  4.708212231E+02  1.250000000E+02  0.00000E+00  9.000E+00
      21     1     1     2   501   511  4.477040245E+00  2.396617163E+01  5.127649749E+01  5.677764055E+01  0.000000000E+00  0.00000E+00  9.000E+00
#rwgt            1           1   4.5904399272082279E-002           3       63392           0
</event>
<event>
      5   9999  3.79277E-02  1.80149E+01 -1.00000E+00  1.70204E-01
      21    -1     0     0   502   512  0.000000000E+00  0.000000000E+00  7.907840778E+02  7.907840778E+02  0.000000000E+00  0.00000E+00  9.000E+00
      21    -1     0     0   501   502  0.000000000E+00  0.000000000E+00 -4.831953261E+01  4.831953261E+01  0.000000000E+00  0.00000E+00  9.000E+00
      25     1     1     2     0     0  1.031199798E+02 -5.569897851E+01  4.756951499E+02  5.056154488E+02  1.250000000E+02  0.00000E+00  9.000E+00
      25     1     1     2     0     0 -9.318802982E+01  4.066919869E+01  1.668297734E+02  2.319378492E+02  1.250000000E+02  0.00000E+00  9.000E+00
      21     1     1     2   501   512 -9.931949972E+00  1.502977983E+01  9.993962191E+01  1.015503124E+02  1.348699152E-06  0.00000E+00  9.000E+00
#rwgt            1           1   3.9442679830337411E-002           3       63709           0
</event>
<event>
      5   9999  3.79277E-02  5.93359E+01 -1.00000E+00  1.34962E-01
      -1    -1     0     0     0   501  0.000000000E+00  0.000000000E+00  8.984195337E+01  8.984195337E+01  0.000000000E+00  0.00000E+00  9.000E+00
      21    -1     0     0   501   502  0.000000000E+00  0.000000000E+00 -8.552736361E+02  8.552736361E+02  0.000000000E+00  0.00000E+00  9.000E+00
      25     1     1     2     0     0  1.165908050E+01  1.091511215E+02 -6.303106115E+02  6.518944458E+02  1.250000000E+02  0.00000E+00  9.000E+00
      25     1     1     2     0     0 -6.396343485E+01 -1.371689499E+02 -1.258289632E+02  2.331621105E+02  1.250000000E+02  0.00000E+00  9.000E+00
      -1     1     1     2     0   502  5.230435435E+01  2.801782840E+01 -9.292108074E+00  6.005903316E+01  1.105501472E-06  0.00000E+00  9.000E+00
#rwgt            1           1   2.8492759467275183E-002           3       63849           0
</event>
<event>
      5   9999  3.79277E-02  5.18809E+01 -1.00000E+00  1.38167E-01
      21    -1     0     0   502   501  0.000000000E+00  0.000000000E+00  5.656785936E+02  5.656785936E+02  0.000000000E+00  0.00000E+00  9.000E+00
       2    -1     0     0   501     0  0.000000000E+00  0.000000000E+00 -3.192671832E+03  3.192671832E+03  0.000000000E+00  0.00000E+00  9.000E+00
      25     1     1     2     0     0 -5.850429817E+01  2.095800853E+01  3.580511638E+00  1.396417240E+02  1.250000000E+02  0.00000E+00  9.000E+00
      25     1     1     2     0     0  1.007238291E+02 -5.110997927E+01  4.794831724E+02  5.082190791E+02  1.250000000E+02  0.00000E+00  9.000E+00
       2     1     1     2   502     0 -4.221953091E+01  3.015197074E+01 -3.110056923E+03  3.110489623E+03  4.315837288E-05  0.00000E+00  9.000E+00
#rwgt            1           1   4.7159161583364514E-002           3       63946           0
</event>
<event>
      5   9999  3.79277E-02  1.53739E+01 -1.00000E+00  1.76382E-01
      21    -1     0     0   511   501  0.000000000E+00  0.000000000E+00  2.892120018E+02  2.892120018E+02  0.000000000E+00  0.00000E+00  9.000E+00
      21    -1     0     0   501   502  0.000000000E+00  0.000000000E+00 -2.126045525E+02  2.126045525E+02  0.000000000E+00  0.00000E+00  9.000E+00
      25     1     1     2     0     0  1.557910319E+02 -2.254727067E+01 -2.760087780E+01  2.028941436E+02  1.250000000E+02  0.00000E+00  9.000E+00
      25     1     1     2     0     0 -1.516447342E+02  3.735151429E+01  6.640576216E+00  2.001508388E+02  1.250000000E+02  0.00000E+00  9.000E+00
      21     1     1     2   511   502 -4.146297704E+00 -1.480424362E+01  9.756775089E+01  9.877157196E+01  0.000000000E+00  0.00000E+00  9.000E+00
#rwgt            1           1   1.8768296148836513E-002           3       64188           0
</event>
<event>
      5   9999  3.79277E-02  2.98820E+01 -1.00000E+00  1.53159E-01
      21    -1     0     0   512   501  0.000000000E+00  0.000000000E+00  1.169868486E+02  1.169868486E+02  0.000000000E+00  0.00000E+00  9.000E+00
      21    -1     0     0   501   502  0.000000000E+00  0.000000000E+00 -3.669892634E+02  3.669892634E+02  0.000000000E+00  0.00000E+00  9.000E+00
      25     1     1     2     0     0 -1.210774222E+02 -1.155506181E+01 -3.513060310E+01  1.779112725E+02  1.250000000E+02  0.00000E+00  9.000E+00
      25     1     1     2     0     0  1.017996350E+02 -1.127692051E+01 -2.227177447E+02  2.751699991E+02  1.250000000E+02  0.00000E+00  9.000E+00
      21     1     1     2   512   502  1.927778717E+01  2.283198233E+01  7.845933071E+00  3.089484036E+01  5.397430145E-07  0.00000E+00  9.000E+00
#rwgt            1           1   4.1538261171807096E-002           3       64379           0
</event>
<event>
      5   9999  3.79277E-02  1.36737E+01 -1.00000E+00  1.81257E-01
      21    -1     0     0   502   501  0.000000000E+00  0.000000000E+00  3.363298228E+01  3.363298228E+01  0.000000000E+00  0.00000E+00  9.000E+00
      21    -1     0     0   511   502  0.000000000E+00  0.000000000E+00 -1.559945414E+03  1.559945414E+03  0.000000000E+00  0.00000E+00  9.000E+00
      25     1     1     2     0     0  1.623935140E+02  4.483864960E+01 -8.203414875E+02  8.467392244E+02  1.250000000E+02  0.00000E+00  9.000E+00
      25     1     1     2     0     0 -1.662325553E+02 -5.796240922E+01 -5.592403215E+02  5.994728021E+02  1.250000000E+02  0.00000E+00  9.000E+00
      21     1     1     2   511   501  3.839041298E+00  1.312375962E+01 -1.467306230E+02  1.473663701E+02  2.697398305E-06  0.00000E+00  9.000E+00
#rwgt            1           1   3.1511638386656722E-002           3       64509           0
</event>
<event>
      5   9999  3.79277E-02  6.31577E+01 -1.00000E+00  1.33524E-01
      21    -1     0     0   502   512  0.000000000E+00  0.000000000E+00  2.927588227E+02  2.927588227E+02  0.000000000E+00  0.00000E+00  9.000E+00
      21    -1     0     0   501   502  0.000000000E+00  0.000000000E+00 -1.548752802E+02  1.548752802E+02  0.000000000E+00  0.00000E+00  9.000E+00
      25     1     1     2     0     0 -1.557763718E+01 -9.087222852E+01  4.261532981E+01  1.610636242E+02  1.250000000E+02  0.00000E+00  9.000E+00
      25     1     1     2     0     0 -1.001861909E+01  1.486106211E+02  3.180020273E+01  1.970323383E+02  1.250000000E+02  0.00000E+00  9.000E+00
      21     1     1     2   501   512  2.559625627E+01 -5.773839260E+01  6.346800990E+01  8.953814045E+01  1.507891493E-06  0.00000E+00  9.000E+00
#rwgt            1           1   3.9018887274229398E-002           3       64729           0
</event>
<event>
      5   9999  3.79277E-02  3.61630E+01 -1.00000E+00  1.47610E-01
      21    -1     0     0   502   501  0.000000000E+00  0.000000000E+00  3.475252037E+02  3.475252037E+02  0.000000000E+00  0.00000E+00  9.000E+00
      21    -1     0     0   501   511  0.000000000E+00  0.000000000E+00 -2.204009608E+02  2.204009608E+02  0.000000000E+00  0.00000E+00  9.000E+00
      25     1     1     2     0     0 -1.559627336E+02 -1.610493152E+02  1.242646465E+01  2.569837995E+02  1.250000000E+02  0.00000E+00  9.000E+00
      25     1     1     2     0     0  1.465407883E+02  1.261352994E+02  1.375190625E+02  2.681805529E+02  1.250000000E+02  0.00000E+00  9.000E+00
      21     1     1     2   502   511  9.421945303E+00  3.491401579E+01 -2.282128426E+01  4.276181202E+01  3.371747881E-07  0.00000E+00  9.000E+00
#rwgt            1           1   3.1152710439882856E-002           3       64791           0
</event>
<event>
      5   9999  3.79277E-02  4.93607E+00 -1.00000E+00  2.43657E-01
      21    -1     0     0   502   501  0.000000000E+00  0.000000000E+00  3.046366135E+01  3.046366135E+01  0.000000000E+00  0.00000E+00  9.000E+00
      21    -1     0     0   501   512  0.000000000E+00  0.000000000E+00 -1.369544847E+03  1.369544847E+03  0.000000000E+00  0.00000E+00  9.000E+00
      25     1     1     2     0     0  5.554941365E+00 -2.447915722E+01 -1.243802086E+02  1.781165989E+02  1.250000000E+02  0.00000E+00  9.000E+00
      25     1     1     2     0     0 -1.009800998E+01  2.254905447E+01 -1.165919484E+03  1.172861319E+03  1.250000000E+02  0.00000E+00  9.000E+00
      21     1     1     2   502   512  4.543068614E+00  1.930102746E+00 -4.878149333E+01  4.903059107E+01  0.000000000E+00  0.00000E+00  9.000E+00
#rwgt            1           1   4.2844098147115858E-002           3       64975           0
</event>
<event>
      5   9999  3.79277E-02  1.77143E+01 -1.00000E+00  1.70838E-01
      21    -1     0     0   502   501  0.000000000E+00  0.000000000E+00  5.206919142E+02  5.206919142E+02  0.000000000E+00  0.00000E+00  9.000E+00
      21    -1     0     0   501   511  0.000000000E+00  0.000000000E+00 -9.901094778E+01  9.901094778E+01  0.000000000E+00  0.00000E+00  9.000E+00
      25     1     1     2     0     0 -6.164175126E+01  2.794325985E+01  1.813663646E+02  2.304328307E+02  1.250000000E+02  0.00000E+00  9.000E+00
      25     1     1     2     0     0  6.605154146E+01 -1.078659992E+01  2.974154174E+02  3.294845784E+02  1.250000000E+02  0.00000E+00  9.000E+00
      21     1     1     2   502   511 -4.409790200E+00 -1.715665994E+01 -5.710081561E+01  5.978545286E+01  1.348699152E-06  0.00000E+00  9.000E+00
#rwgt            1           1   6.5970199209741301E-002           3       65526           0
</event>
<event>
      5   9999  3.79277E-02  3.52946E+01 -1.00000E+00  1.48294E-01
      21    -1     0     0   502   501  0.000000000E+00  0.000000000E+00  6.743499730E+01  6.743499730E+01  0.000000000E+00  0.00000E+00  9.000E+00
      21    -1     0     0   501   512  0.000000000E+00  0.000000000E+00 -1.720675487E+03  1.720675487E+03  0.000000000E+00  0.00000E+00  9.000E+00
      25     1     1     2     0     0  1.974691853E+02  6.442292692E+00 -2.203769078E+02  3.212889102E+02  1.250000000E+02  0.00000E+00  9.000E+00
      25     1     1     2     0     0 -2.311451359E+02 -1.700808773E+01 -1.057127950E+03  1.089431894E+03  1.250000000E+02  0.00000E+00  9.000E+00
      21     1     1     2   502   512  3.367595056E+01  1.056579503E+01 -3.757356325E+02  3.773896808E+02  0.000000000E+00  0.00000E+00  9.000E+00
#rwgt            1           1   3.1220988662088951E-002           3       65667           0
</event>
<event>
      5   9999  3.79277E-02  3.77328E+01 -1.00000E+00  1.46429E-01
      21    -1     0     0   511   501  0.000000000E+00  0.000000000E+00  1.571208660E+02  1.571208660E+02  0.000000000E+00  0.00000E+00  9.000E+00
      21    -1     0     0   501   502  0.000000000E+00  0.000000000E+00 -1.403415740E+03  1.403415740E+03  0.000000000E+00  0.00000E+00  9.000E+00
      25     1     1     2     0     0 -1.297784634E+02 -2.684543579E+02 -4.275303710E+02  5.360199716E+02  1.250000000E+02  0.00000E+00  9.000E+00
      25     1     1     2     0     0  1.673646295E+02  2.651312607E+02 -8.856121153E+02  9.477548857E+02  1.250000000E+02  0.00000E+00  9.000E+00
      21     1     1     2   511   502 -3.758616609E+01  3.323097148E+00  6.684761210E+01  7.676174894E+01  1.348699152E-06  0.00000E+00  9.000E+00
#rwgt            1           1   4.0281533615834753E-002           3       65854           0
</event>
<event>
      5   9999  3.79277E-02  1.56826E+01 -1.00000E+00  1.75582E-01
      21    -1     0     0   502   501  0.000000000E+00  0.000000000E+00  1.497668277E+02  1.497668277E+02  0.000000000E+00  0.00000E+00  9.000E+00
       1    -1     0     0   501     0  0.000000000E+00  0.000000000E+00 -6.187456093E+02  6.187456093E+02  0.000000000E+00  0.00000E+00  9.000E+00
      25     1     1     2     0     0  5.647702008E+00  1.383992754E+02  6.343206987E+00  1.866855438E+02  1.250000000E+02  0.00000E+00  9.000E+00
      25     1     1     2     0     0  3.067110221E-01 -1.529074658E+02 -1.306583539E+02  2.368066566E+02  1.250000000E+02  0.00000E+00  9.000E+00
       1     1     1     2   502     0 -5.954413030E+00  1.450819037E+01 -3.446636347E+02  3.450202367E+02  6.607249480E-06  0.00000E+00  9.000E+00
#rwgt            1           1   4.4860255215595196E-002           3       65932           0
</event>
<event>
      5   9999  3.79277E-02  1.23463E+02 -1.00000E+00  1.19846E-01
      21    -1     0     0   502   501  0.000000000E+00  0.000000000E+00  4.156694291E+02  4.156694291E+02  0.000000000E+00  0.00000E+00  9.000E+00
      -3    -1     0     0     0   502  0.000000000E+00  0.000000000E+00 -3.193326812E+02  3.193326812E+02  0.000000000E+00  0.00000E+00  9.000E+00
      25     1     1     2     0     0  1.437607181E+02  1.520365219E+01  8.989307467E+01  2.111967329E+02  1.250000000E+02  0.00000E+00  9.000E+00
      25     1     1     2     0     0 -2.104293469E+01 -2.875004869E+01  2.324230488E+02  2.662984116E+02  1.250000000E+02  0.00000E+00  9.000E+00
      -3     1     1     2     0   501 -1.227177834E+02  1.354639650E+01 -2.259793757E+02  2.575069658E+02  2.697398305E-06  0.00000E+00  9.000E+00
#rwgt            1           1   5.3099337117666838E-002           3       66175           0
</event>
<event>
      5   9999  3.79277E-02  1.61955E+02 -1.00000E+00  1.15089E-01
      21    -1     0     0   502   511  0.000000000E+00  0.000000000E+00  2.616864936E+02  2.616864936E+02  0.000000000E+00  0.00000E+00  9.000E+00
      21    -1     0     0   501   502  0.000000000E+00  0.000000000E+00 -2.592389790E+02  2.592389790E+02  0.000000000E+00  0.00000E+00  9.000E+00
      25     1     1     2     0     0 -2.597601835E+01 -1.434364373E+01 -8.536479257E+01  1.542486352E+02  1.250000000E+02  0.00000E+00  9.000E+00
      25     1     1     2     0     0 -1.066666553E+02 -7.858372992E+01 -6.220550897E-01  1.821498419E+02  1.250000000E+02  0.00000E+00  9.000E+00
      21     1     1     2   501   511  1.326426736E+02  9.292737365E+01  8.843436223E+01  1.845269955E+02  1.348699152E-06  0.00000E+00  9.000E+00
#rwgt            1           1   4.6453346858679204E-002           3       66216           0
</event>
<event>
      5   9999  3.79277E-02  2.74781E+01 -1.00000E+00  1.55737E-01
      21    -1     0     0   512   501  0.000000000E+00  0.000000000E+00  1.991489036E+02  1.991489036E+02  0.000000000E+00  0.00000E+00  9.000E+00
      21    -1     0     0   501   502  0.000000000E+00  0.000000000E+00 -5.090513222E+02  5.090513222E+02  0.000000000E+00  0.00000E+00  9.000E+00
      25     1     1     2     0     0 -2.995661234E+01  1.977418347E+02 -3.023139347E+02  3.834291941E+02  1.250000000E+02  0.00000E+00  9.000E+00
      25     1     1     2     0     0  5.702987869E+00 -2.106571591E+02 -7.147108005E+01  2.552294615E+02  1.250000000E+02  0.00000E+00  9.000E+00
      21     1     1     2   512   502  2.425362447E+01  1.291532440E+01  6.388259612E+01  6.954157024E+01  1.168007728E-06  0.00000E+00  9.000E+00
#rwgt            1           1   4.5592387319665223E-002           3       66270           0
</event>
<event>
      5   9999  3.79277E-02  7.22826E+01 -1.00000E+00  1.30519E-01
      21    -1     0     0   502   501  0.000000000E+00  0.000000000E+00  9.533297661E+02  9.533297661E+02  0.000000000E+00  0.00000E+00  9.000E+00
      21    -1     0     0   501   511  0.000000000E+00  0.000000000E+00 -8.052221409E+02  8.052221409E+02  0.000000000E+00  0.00000E+00  9.000E+00
      25     1     1     2     0     0  1.627814161E+02 -1.813717244E+01  6.429024723E+02  6.751113504E+02  1.250000000E+02  0.00000E+00  9.000E+00
      25     1     1     2     0     0 -9.272847842E+01  3.595182086E+01  2.708209197E+02  3.144202199E+02  1.250000000E+02  0.00000E+00  9.000E+00
      21     1     1     2   502   511 -7.005293772E+01 -1.781464843E+01 -7.656157669E+02  7.690203367E+02  1.525878906E-05  0.00000E+00  9.000E+00
#rwgt            1           1   3.9917436007695019E-002           3       66425           0
</event>
<event>
      5   9999  3.79277E-02  1.05390E+01 -1.00000E+00  1.93158E-01
      21    -1     0     0   512   501  0.000000000E+00  0.000000000E+00  2.573106427E+01  2.573106427E+01  0.000000000E+00  0.00000E+00  9.000E+00
      21    -1     0     0   501   502  0.000000000E+00  0.000000000E+00 -2.238240012E+03  2.238240012E+03  0.000000000E+00  0.00000E+00  9.000E+00
      25     1     1     2     0     0 -3.256434538E+01 -1.501107465E+02 -5.191542219E+02  5.556435719E+02  1.250000000E+02  0.00000E+00  9.000E+00
      25     1     1     2     0     0  3.020726054E+01  1.603827641E+02 -1.671173594E+03  1.683769964E+03  1.250000000E+02  0.00000E+00  9.000E+00
      21     1     1     2   512   502  2.357084832E+00 -1.027201757E+01 -2.218113175E+01  2.455754059E+01  4.129530925E-07  0.00000E+00  9.000E+00
#rwgt            1           1  0.26300216255530134                3       66474           0
</event>
<event>
      5   9999  3.79277E-02  3.71240E+01 -1.00000E+00  1.46879E-01
      21    -1     0     0   502   511  0.000000000E+00  0.000000000E+00  5.764181467E+02  5.764181467E+02  0.000000000E+00  0.00000E+00  9.000E+00
      21    -1     0     0   501   502  0.000000000E+00  0.000000000E+00 -9.067069649E+01  9.067069649E+01  0.000000000E+00  0.00000E+00  9.000E+00
      25     1     1     2     0     0 -7.473931064E+01 -5.766975308E+00 -3.730513802E+00  1.458017122E+02  1.250000000E+02  0.00000E+00  9.000E+00
      25     1     1     2     0     0  4.294885567E+01  2.493874490E+01  4.353264061E+02  4.556321159E+02  1.250000000E+02  0.00000E+00  9.000E+00
      21     1     1     2   501   511  3.179045497E+01 -1.917176959E+01  5.415155795E+01  6.565501508E+01  0.000000000E+00  0.00000E+00  9.000E+00
#rwgt            1           1   4.2302134345227921E-002           3       66750           0
</event>
<event>
      5   9999  3.79277E-02  2.78338E+02 -1.00000E+00  1.06660E-01
      21    -1     0     0   502   501  0.000000000E+00  0.000000000E+00  6.240079907E+02  6.240079907E+02  0.000000000E+00  0.00000E+00  9.000E+00
      21    -1     0     0   501   512  0.000000000E+00  0.000000000E+00 -4.222287219E+02  4.222287219E+02  0.000000000E+00  0.00000E+00  9.000E+00
      25     1     1     2     0     0 -3.492282332E+01 -7.358568582E+01  6.137687335E+01  1.613275467E+02  1.250000000E+02  0.00000E+00  9.000E+00
      25     1     1     2     0     0 -2.420320389E+02  4.587208140E+01  4.119867332E+02  4.960260316E+02  1.250000000E+02  0.00000E+00  9.000E+00
      21     1     1     2   502   512  2.769548622E+02  2.771360443E+01 -2.715843378E+02  3.888831343E+02  0.000000000E+00  0.00000E+00  9.000E+00
#rwgt            1           1   4.8561764240997611E-002           3       66838           0
</event>
<event>
      5   9999  3.79277E-02  7.95880E+01 -1.00000E+00  1.28458E-01
      21    -1     0     0   511   501  0.000000000E+00  0.000000000E+00  3.641612625E+02  3.641612625E+02  0.000000000E+00  0.00000E+00  9.000E+00
      21    -1     0     0   501   502  0.000000000E+00  0.000000000E+00 -7.073816927E+02  7.073816927E+02  0.000000000E+00  0.00000E+00  9.000E+00
      25     1     1     2     0     0 -8.108932896E+01  2.566576346E+01 -9.902083969E+01  1.807327789E+02  1.250000000E+02  0.00000E+00  9.000E+00
      25     1     1     2     0     0  9.073351447E+01  5.333579119E+01 -5.505508016E+02  5.742895284E+02  1.250000000E+02  0.00000E+00  9.000E+00
      21     1     1     2   511   502 -9.644185510E+00 -7.900155465E+01  3.063512111E+02  3.165206478E+02  6.607249480E-06  0.00000E+00  9.000E+00
#rwgt            1           1   4.5485432942755671E-002           3       66921           0
</event>
<event>
      5   9999  3.79277E-02  3.41989E+01 -1.00000E+00  1.49191E-01
      21    -1     0     0   512   501  0.000000000E+00  0.000000000E+00  5.657613558E+02  5.657613558E+02  0.000000000E+00  0.00000E+00  9.000E+00
      21    -1     0     0   501   502  0.000000000E+00  0.000000000E+00 -1.381387595E+02  1.381387595E+02  0.000000000E+00  0.00000E+00  9.000E+00
      25     1     1     2     0     0 -9.791827357E+01 -5.531341411E+01  7.509624214E+00  1.683120808E+02  1.250000000E+02  0.00000E+00  9.000E+00
      25     1     1     2     0     0  1.209556745E+02  8.058877416E+01  1.049023720E+02  2.185276490E+02  1.250000000E+02  0.00000E+00  9.000E+00
      21     1     1     2   512   502 -2.303740093E+01 -2.527536005E+01  3.152106000E+02  3.170603855E+02  0.000000000E+00  0.00000E+00  9.000E+00
#rwgt            1           1   4.2987565352395798E-002           3       67105           0
</event>
<event>
      5   9999  3.79277E-02  9.52767E+01 -1.00000E+00  1.24780E-01
       1    -1     0     0   502     0  0.000000000E+00  0.000000000E+00  1.649264970E+03  1.649264970E+03  0.000000000E+00  0.00000E+00  9.000E+00
      21    -1     0     0   501   502  0.000000000E+00  0.000000000E+00 -1.246358400E+02  1.246358400E+02  0.000000000E+00  0.00000E+00  9.000E+00
      25     1     1     2     0     0 -6.519617637E+01  1.385347503E+02  1.108022375E+02  2.265933677E+02  1.250000000E+02  0.00000E+00  9.000E+00
      25     1     1     2     0     0  1.587539982E+02 -1.565508821E+02  1.868111751E+02  3.165982087E+02  1.250000000E+02  0.00000E+00  9.000E+00
       1     1     1     2   501     0 -9.355782184E+01  1.801613176E+01  1.227015718E+03  1.230709234E+03  2.157918644E-05  0.00000E+00  9.000E+00
#rwgt            1           1  0.10666373319638713                3       67276           0
</event>
<event>
      5   9999  3.79277E-02  5.63050E+01 -1.00000E+00  1.36195E-01
      21    -1     0     0   502   501  0.000000000E+00  0.000000000E+00  4.394349226E+01  4.394349226E+01  0.000000000E+00  0.00000E+00  9.000E+00
      21    -1     0     0   501   511  0.000000000E+00  0.000000000E+00 -2.302851062E+03  2.302851062E+03  0.000000000E+00  0.00000E+00  9.000E+00
      25     1     1     2     0     0  1.676235626E+02  7.833416165E+01 -3.151877893E+02  3.862670607E+02  1.250000000E+02  0.00000E+00  9.000E+00
      25     1     1     2     0     0 -1.478528797E+02 -2.561440752E+01 -1.335061050E+03  1.349270017E+03  1.250000000E+02  0.00000E+00  9.000E+00
      21     1     1     2   502   511 -1.977068297E+01 -5.271975413E+01 -6.086587308E+02  6.112574768E+02  1.078959322E-05  0.00000E+00  9.000E+00
#rwgt            1           1   4.8233555067554452E-002           3       67499           0
</event>
<event>
      5   9999  3.79277E-02  1.35359E+02 -1.00000E+00  1.18189E-01
      21    -1     0     0   502   501  0.000000000E+00  0.000000000E+00  2.115732394E+02  2.115732394E+02  0.000000000E+00  0.00000E+00  9.000E+00
      21    -1     0     0   512   502  0.000000000E+00  0.000000000E+00 -2.965811746E+02  2.965811746E+02  0.000000000E+00  0.00000E+00  9.000E+00
      25     1     1     2     0     0  1.685372787E+01 -6.707604117E+01 -3.387052440E+01  1.468177641E+02  1.250000000E+02  0.00000E+00  9.000E+00
      25     1     1     2     0     0  1.002342472E+02 -8.395079017E-01  7.446030981E+01  1.766831821E+02  1.250000000E+02  0.00000E+00  9.000E+00
      21     1     1     2   512   501 -1.170879751E+02  6.791554907E+01 -1.255977206E+02  1.846534677E+02  2.336015456E-06  0.00000E+00  9.000E+00
#rwgt            1           1   7.6592844569355070E-002           3       67650           0
</event>
<event>
      5   9999  3.79277E-02  4.86968E+01 -1.00000E+00  1.39733E-01
      21    -1     0     0   502   511  0.000000000E+00  0.000000000E+00  3.751115670E+02  3.751115670E+02  0.000000000E+00  0.00000E+00  9.000E+00
      21    -1     0     0   501   502  0.000000000E+00  0.000000000E+00 -1.911968258E+02  1.911968258E+02  0.000000000E+00  0.00000E+00  9.000E+00
      25     1     1     2     0     0  1.825293362E+02 -9.814748314E+01 -1.533763742E+01  2.425080001E+02  1.250000000E+02  0.00000E+00  9.000E+00
      25     1     1     2     0     0 -1.533784951E+02  5.913975874E+01  1.630412968E+02  2.631158267E+02  1.250000000E+02  0.00000E+00  9.000E+00
      21     1     1     2   501   511 -2.915084105E+01  3.900772440E+01  3.621108190E+01  6.068456599E+01  1.348699152E-06  0.00000E+00  9.000E+00
#rwgt            1           1   4.1293583919068955E-002           3       67825           0
</event>
<event>
      5   9999  3.79277E-02  2.63232E+01 -1.00000E+00  1.57091E-01
      21    -1     0     0   512   501  0.000000000E+00  0.000000000E+00  9.060891028E+01  9.060891028E+01  0.000000000E+00  0.00000E+00  9.000E+00
      21    -1     0     0   501   502  0.000000000E+00  0.000000000E+00 -1.582868326E+03  1.582868326E+03  0.000000000E+00  0.00000E+00  9.000E+00
      25     1     1     2     0     0 -1.476547249E+01  8.026800641E+01 -1.269444214E+03  1.278191920E+03  1.250000000E+02  0.00000E+00  9.000E+00
      25     1     1     2     0     0 -8.524964555E+00 -9.253437961E+01 -2.866512789E+02  3.262349493E+02  1.250000000E+02  0.00000E+00  9.000E+00
      21     1     1     2   512   502  2.329043704E+01  1.226637321E+01  6.383607740E+01  6.905036674E+01  3.371747881E-06  0.00000E+00  9.000E+00
#rwgt            1           1   1.9280005714438997E-002           3       67925           0
</event>
<event>
      5   9999 -3.79277E-02  8.40049E+01 -1.00000E+00  1.27331E-01
      21    -1     0     0   511   501  0.000000000E+00  0.000000000E+00  5.099878364E+01  5.099878364E+01  0.000000000E+00  0.00000E+00  9.000E+00
      21    -1     0     0   501   502  0.000000000E+00  0.000000000E+00 -3.474826332E+03  3.474826332E+03  0.000000000E+00  0.00000E+00  9.000E+00
      25     1     1     2     0     0  6.775370199E+01  1.978318807E+02 -2.968934095E+03  2.978913002E+03  1.250000000E+02  0.00000E+00  9.000E+00
      25     1     1     2     0     0 -5.586174890E+01 -1.146729765E+02 -1.582978632E+02  2.386496177E+02  1.250000000E+02  0.00000E+00  9.000E+00
      21     1     1     2   511   502 -1.189195309E+01 -8.315890425E+01 -2.965955910E+02  3.082624961E+02  0.000000000E+00  0.00000E+00  9.000E+00
#rwgt            1           1 -0.11104893236011730                3       68131           0
</event>
<event>
      5   9999 -3.79277E-02  5.98902E+01 -1.00000E+00  1.34746E-01
      21    -1     0     0   502   501  0.000000000E+00  0.000000000E+00  4.355800806E+02  4.355800806E+02  0.000000000E+00  0.00000E+00  9.000E+00
      21    -1     0     0   501   512  0.000000000E+00  0.000000000E+00 -1.318074506E+02  1.318074506E+02  0.000000000E+00  0.00000E+00  9.000E+00
      25     1     1     2     0     0  1.380286346E+02  1.253821103E+02  1.792497285E+02  2.872769443E+02  1.250000000E+02  0.00000E+00  9.000E+00
      25     1     1     2     0     0 -1.241161139E+02 -6.713030223E+01  1.108235179E+02  2.186735908E+02  1.250000000E+02  0.00000E+00  9.000E+00
      21     1     1     2   502   512 -1.391252075E+01 -5.825180804E+01  1.369938363E+01  6.143699607E+01  8.259061849E-07  0.00000E+00  9.000E+00
#rwgt            1           1  -9.1406036148563644E-002           3       68388           0
</event>
<event>
      5   9999  3.79277E-02  2.04275E+01 -1.00000E+00  1.65615E-01
      21    -1     0     0   511   501  0.000000000E+00  0.000000000E+00  1.956267450E+02  1.956267450E+02  0.000000000E+00  0.00000E+00  9.000E+00
      21    -1     0     0   501   502  0.000000000E+00  0.000000000E+00 -4.067011545E+02  4.067011545E+02  0.000000000E+00  0.00000E+00  9.000E+00
      25     1     1     2     0     0  6.901245748E+01 -1.661010676E+02 -2.656963949E+02  3.443426465E+02  1.250000000E+02  0.00000E+00  9.000E+00
      25     1     1     2     0     0 -8.606557351E+01  1.548549632E+02  1.994488174E+01  2.177386986E+02  1.250000000E+02  0.00000E+00  9.000E+00
      21     1     1     2   511   502  1.705311604E+01  1.124610437E+01  3.467710362E+01  4.024655445E+01  8.259061849E-07  0.00000E+00  9.000E+00
#rwgt            1           1   3.2994719262121386E-002           3       68469           0
</event>
<event>
      5   9999  3.79277E-02  1.83508E+02 -1.00000E+00  1.13026E-01
      21    -1     0     0   502   512  0.000000000E+00  0.000000000E+00  2.826538053E+02  2.826538053E+02  0.000000000E+00  0.00000E+00  9.000E+00
      21    -1     0     0   501   502  0.000000000E+00  0.000000000E+00 -3.695050887E+02  3.695050887E+02  0.000000000E+00  0.00000E+00  9.000E+00
      25     1     1     2     0     0 -1.259428053E+02 -3.325976369E+01  1.248801360E+01  1.809661641E+02  1.250000000E+02  0.00000E+00  9.000E+00
      25     1     1     2     0     0 -5.005920309E+01  8.520748493E+01 -2.048393496E+02  2.595195531E+02  1.250000000E+02  0.00000E+00  9.000E+00
      21     1     1     2   501   512  1.760020084E+02 -5.194772124E+01  1.055000525E+02  2.116731768E+02  1.348699152E-06  0.00000E+00  9.000E+00
#rwgt            1           1   4.4963107373467523E-002           3       68671           0
</event>
<event>
      5   9999  3.79277E-02  6.03312E+01 -1.00000E+00  1.34576E-01
      21    -1     0     0   502   501  0.000000000E+00  0.000000000E+00  2.277404072E+02  2.277404072E+02  0.000000000E+00  0.00000E+00  9.000E+00
      21    -1     0     0   511   502  0.000000000E+00  0.000000000E+00 -3.009297933E+02  3.009297933E+02  0.000000000E+00  0.00000E+00  9.000E+00
      25     1     1     2     0     0  8.359208685E+01  7.387072897E+01  7.013900304E+01  1.816287459E+02  1.250000000E+02  0.00000E+00  9.000E+00
      25     1     1     2     0     0 -1.221777445E+02 -2.749183967E+01  1.503138547E+01  1.775785602E+02  1.250000000E+02  0.00000E+00  9.000E+00
      21     1     1     2   511   501  3.858565761E+01 -4.637888930E+01 -1.583597747E+02  1.694628944E+02  1.907348633E-06  0.00000E+00  9.000E+00
#rwgt            1           1   3.8003790953688721E-002           3       68741           0
</event>
<event>
      5   9999  3.79277E-02  1.19121E+02 -1.00000E+00  1.20504E-01
      21    -1     0     0   502   501  0.000000000E+00  0.000000000E+00  1.793978071E+02  1.793978071E+02  0.000000000E+00  0.00000E+00  9.000E+00
      21    -1     0     0   512   502  0.000000000E+00  0.000000000E+00 -1.885396264E+03  1.885396264E+03  0.000000000E+00  0.00000E+00  9.000E+00
      25     1     1     2     0     0  4.108285544E+02 -1.551476003E+02 -2.702333539E+02  5.305675683E+02  1.250000000E+02  0.00000E+00  9.000E+00
      25     1     1     2     0     0 -3.570854170E+02  4.883898517E+01 -7.865637026E+02  8.741868792E+02  1.250000000E+02  0.00000E+00  9.000E+00
      21     1     1     2   512   501 -5.374313733E+01  1.063086152E+02 -6.492014005E+02  6.600396237E+02  7.629394531E-06  0.00000E+00  9.000E+00
#rwgt            1           1  0.19203989043993092                3       68890           0
</event>
<event>
      5   9999  3.79277E-02  5.98232E+01 -1.00000E+00  1.34772E-01
      21    -1     0     0   502   501  0.000000000E+00  0.000000000E+00  2.978902861E+01  2.978902861E+01  0.000000000E+00  0.00000E+00  9.000E+00
      21    -1     0     0   511   502  0.000000000E+00  0.000000000E+00 -1.524308675E+03  1.524308675E+03  0.000000000E+00  0.00000E+00  9.000E+00
      25     1     1     2     0     0  1.458689142E+02 -4.811629296E+01 -6.003724276E+02  6.321906118E+02  1.250000000E+02  0.00000E+00  9.000E+00
      25     1     1     2     0     0 -9.723717628E+01  1.327711405E+01 -5.460360040E+02  5.686929469E+02  1.250000000E+02  0.00000E+00  9.000E+00
      21     1     1     2   511   501 -4.863173789E+01  3.483917891E+01 -3.481112148E+02  3.532141450E+02  3.814697266E-06  0.00000E+00  9.000E+00
#rwgt            1           1   4.8544267869924967E-002           3       68974           0
</event>
<event>
      5   9999  3.79277E-02  1.14641E+02 -1.00000E+00  1.21217E-01
      21    -1     0     0   502   512  0.000000000E+00  0.000000000E+00  9.765503349E+02  9.765503349E+02  0.000000000E+00  0.00000E+00  9.000E+00
      21    -1     0     0   501   502  0.000000000E+00  0.000000000E+00 -1.171600836E+02  1.171600836E+02  0.000000000E+00  0.00000E+00  9.000E+00
      25     1     1     2     0     0 -1.699812538E+02 -6.277385331E+01  5.357285540E+01  2.265595598E+02  1.250000000E+02  0.00000E+00  9.000E+00
      25     1     1     2     0     0  8.476723659E+01 -1.391411750E+01  2.023048029E+02  2.528464363E+02  1.250000000E+02  0.00000E+00  9.000E+00
      21     1     1     2   501   512  8.521401717E+01  7.668797081E+01  6.035125930E+02  6.143044225E+02  7.629394531E-06  0.00000E+00  9.000E+00
#rwgt            1           1   4.2415591135746986E-002           3       69048           0
</event>
<event>
      5   9999  3.79277E-02  2.42979E+01 -1.00000E+00  1.59683E-01
      21    -1     0     0   502   501  0.000000000E+00  0.000000000E+00  3.678740194E+02  3.678740194E+02  0.000000000E+00  0.00000E+00  9.000E+00
      21    -1     0     0   511   502  0.000000000E+00  0.000000000E+00 -2.325148988E+02  2.325148988E+02  0.000000000E+00  0.00000E+00  9.000E+00
      25     1     1     2     0     0 -7.398600775E+01  5.583933597E+01  4.613473410E+01  1.623125826E+02  1.250000000E+02  0.00000E+00  9.000E+00
      25     1     1     2     0     0  9.804171128E+01 -5.241748977E+01  2.360148928E+02  2.892884374E+02  1.250000000E+02  0.00000E+00  9.000E+00
      21     1     1     2   511   501 -2.405570353E+01 -3.421846196E+00 -1.467905063E+02  1.487878982E+02  1.907348633E-06  0.00000E+00  9.000E+00
#rwgt            1           1   3.6957172423235769E-002           3       69133           0
</event>
<event>
      5   9999  3.79277E-02  4.07188E+01 -1.00000E+00  1.44362E-01
      21    -1     0     0   502   501  0.000000000E+00  0.000000000E+00  1.360834931E+02  1.360834931E+02  0.000000000E+00  0.00000E+00  9.000E+00
      21    -1     0     0   501   512  0.000000000E+00  0.000000000E+00 -1.186344245E+03  1.186344245E+03  0.000000000E+00  0.00000E+00  9.000E+00
      25     1     1     2     0     0 -2.511607964E+01 -2.232813687E+02 -1.388224678E+02  2.922020955E+02  1.250000000E+02  0.00000E+00  9.000E+00
      25     1     1     2     0     0 -1.149909520E+01  2.054670988E+02 -1.875763118E+02  3.052193156E+02  1.250000000E+02  0.00000E+00  9.000E+00
      21     1     1     2   502   512  3.661517484E+01  1.781426988E+01 -7.238619726E+02  7.250063273E+02  0.000000000E+00  0.00000E+00  9.000E+00
#rwgt            1           1   3.3625067599686420E-002           3       69323           0
</event>
<event>
      5   9999  3.79277E-02  2.43284E+01 -1.00000E+00  1.59642E-01
      21    -1     0     0   502   501  0.000000000E+00  0.000000000E+00  1.243355933E+03  1.243355933E+03  0.000000000E+00  0.00000E+00  9.000E+00
      21    -1     0     0   501   511  0.000000000E+00  0.000000000E+00 -5.398110405E+01  5.398110405E+01  0.000000000E+00  0.00000E+00  9.000E+00
      25     1     1     2     0     0 -3.701205320E+01  8.662013297E+01  7.456636907E+02  7.619135641E+02  1.250000000E+02  0.00000E+00  9.000E+00
      25     1     1     2     0     0  5.518114150E+01 -1.027989731E+02  4.696812990E+02  4.998380836E+02  1.250000000E+02  0.00000E+00  9.000E+00
      21     1     1     2   502   511 -1.816908830E+01  1.617884015E+01 -2.597016110E+01  3.558538894E+01  2.132480600E-06  0.00000E+00  9.000E+00
#rwgt            1           1   4.5716443912449077E-002           3       69441           0
</event>
<event>
      5   9999  3.79277E-02  1.05984E+01 -1.00000E+00  1.92884E-01
      21    -1     0     0   502   512  0.000000000E+00  0.000000000E+00  3.184543047E+02  3.184543047E+02  0.000000000E+00  0.00000E+00  9.000E+00
      21    -1     0     0   501   502  0.000000000E+00  0.000000000E+00 -1.067383660E+02  1.067383660E+02  0.000000000E+00  0.00000E+00  9.000E+00
      25     1     1     2     0     0  9.448315905E+01 -4.576049498E+01  1.648536416E+02  2.319974427E+02  1.250000000E+02  0.00000E+00  9.000E+00
      25     1     1     2     0     0 -1.050783801E+02  4.602057138E+01  2.856121549E+01  1.720468017E+02  1.250000000E+02  0.00000E+00  9.000E+00
      21     1     1     2   501   512  1.059522103E+01 -2.600764024E-01  1.830108163E+01  2.114842635E+01  2.384185791E-07  0.00000E+00  9.000E+00
#rwgt            1           1   4.2611992691043793E-002           3       69597           0
</event>
<event>
      5   9999  3.79277E-02  4.20115E+01 -1.00000E+00  1.43531E-01
      21    -1     0     0   511   501  0.000000000E+00  0.000000000E+00  1.293513000E+02  1.293513000E+02  0.000000000E+00  0.00000E+00  9.000E+00
      21    -1     0     0   501   502  0.000000000E+00  0.000000000E+00 -8.729855523E+02  8.729855523E+02  0.000000000E+00  0.00000E+00  9.000E+00
      25     1     1     2     0     0  1.449788728E+02 -1.322696547E+02 -1.238282358E+02  2.635764919E+02  1.250000000E+02  0.00000E+00  9.000E+00
      25     1     1     2     0     0 -1.031853454E+02  1.279953153E+02 -6.532129264E+02  6.850855009E+02  1.250000000E+02  0.00000E+00  9.000E+00
      21     1     1     2   511   502 -4.179352739E+01  4.274339346E+00  3.340690999E+01  5.367485951E+01  1.066240300E-06  0.00000E+00  9.000E+00
#rwgt            1           1   4.5865135267061874E-002           3       69828           0
</event>
<event>
      5   9999  3.79277E-02  7.75629E+01 -1.00000E+00  1.29003E-01
      21    -1     0     0   512   501  0.000000000E+00  0.000000000E+00  1.363876126E+02  1.363876126E+02  0.000000000E+00  0.00000E+00  9.000E+00
      21    -1     0     0   501   502  0.000000000E+00  0.000000000E+00 -3.155192054E+02  3.155192054E+02  0.000000000E+00  0.00000E+00  9.000E+00
      25     1     1     2     0     0  6.306075542E+01  4.628966771E+00 -2.004232610E+02  2.445251925E+02  1.250000000E+02  0.00000E+00  9.000E+00
      25     1     1     2     0     0  1.118450678E+01 -2.707084070E+01  7.522096940E+00  1.286060090E+02  1.250000000E+02  0.00000E+00  9.000E+00
      21     1     1     2   512   502 -7.424526220E+01  2.244187393E+01  1.376957126E+01  7.877561651E+01  1.469710828E-06  0.00000E+00  9.000E+00
#rwgt            1           1   4.9024722053299122E-002           3       69958           0
</event>
<event>
      5   9999  3.79277E-02  5.86368E+01 -1.00000E+00  1.35239E-01
      21    -1     0     0   502   501  0.000000000E+00  0.000000000E+00  4.695514777E+02  4.695514777E+02  0.000000000E+00  0.00000E+00  9.000E+00
      21    -1     0     0   511   502  0.000000000E+00  0.000000000E+00 -1.264542568E+02  1.264542568E+02  0.000000000E+00  0.00000E+00  9.000E+00
      25     1     1     2     0     0 -1.380490605E+02  4.439951000E+01  1.447465644E+02  2.400113070E+02  1.250000000E+02  0.00000E+00  9.000E+00
      25     1     1     2     0     0  1.321229071E+02 -1.027360533E+02  2.100096934E+02  2.962097745E+02  1.250000000E+02  0.00000E+00  9.000E+00
      21     1     1     2   511   501  5.926153396E+00  5.833654331E+01 -1.165903698E+01  5.978465291E+01  1.545128989E-06  0.00000E+00  9.000E+00
#rwgt            1           1   3.6099842955051385E-002           3       70038           0
</event>
<event>
      5   9999  3.79277E-02  1.84350E+02 -1.00000E+00  1.12952E-01
       2    -1     0     0   502     0  0.000000000E+00  0.000000000E+00  1.674157618E+03  1.674157618E+03  0.000000000E+00  0.00000E+00  9.000E+00
      21    -1     0     0   501   502  0.000000000E+00  0.000000000E+00 -1.792975196E+02  1.792975196E+02  0.000000000E+00  0.00000E+00  9.000E+00
      25     1     1     2     0     0 -5.989089145E+01 -2.560996601E+02  1.751579481E+02  3.398223971E+02  1.250000000E+02  0.00000E+00  9.000E+00
      25     1     1     2     0     0  1.940396869E+02  1.296525512E+02  1.046437930E+02  2.846691194E+02  1.250000000E+02  0.00000E+00  9.000E+00
       2     1     1     2   501     0 -1.341487954E+02  1.264471088E+02  1.215058357E+03  1.228963621E+03  2.157918644E-05  0.00000E+00  9.000E+00
#rwgt            1           1   3.3304302734777830E-002           3       70214           0
</event>
<event>
      5   9999  3.79277E-02  6.28764E+01 -1.00000E+00  1.33626E-01
      21    -1     0     0   511   501  0.000000000E+00  0.000000000E+00  5.086506018E+02  5.086506018E+02  0.000000000E+00  0.00000E+00  9.000E+00
      21    -1     0     0   501   502  0.000000000E+00  0.000000000E+00 -2.572193295E+02  2.572193295E+02  0.000000000E+00  0.00000E+00  9.000E+00
      25     1     1     2     0     0 -7.015142775E+01  2.011512498E+02  2.999326024E+02  3.885455110E+02  1.250000000E+02  0.00000E+00  9.000E+00
      25     1     1     2     0     0  1.101454553E+02 -1.526340704E+02 -1.403667884E+02  2.660019098E+02  1.250000000E+02  0.00000E+00  9.000E+00
      21     1     1     2   511   502 -3.999402751E+01 -4.851717943E+01  9.186545823E+01  1.113225105E+02  0.000000000E+00  0.00000E+00  9.000E+00
#rwgt            1           1   4.4197029766810475E-002           3       70306           0
</event>
<event>
      5   9999  3.79277E-02  1.85460E+01 -1.00000E+00  1.69120E-01
      21    -1     0     0   502   501  0.000000000E+00  0.000000000E+00  1.304662297E+02  1.304662297E+02  0.000000000E+00  0.00000E+00  9.000E+00
      21    -1     0     0   501   512  0.000000000E+00  0.000000000E+00 -8.151121321E+02  8.151121321E+02  0.000000000E+00  0.00000E+00  9.000E+00
      25     1     1     2     0     0 -4.336818504E+01  2.577852615E+02 -3.809354781E+02  4.786134964E+02  1.250000000E+02  0.00000E+00  9.000E+00
      25     1     1     2     0     0  3.083742165E+01 -2.714576378E+02 -1.984108007E+02  3.600444994E+02  1.250000000E+02  0.00000E+00  9.000E+00
      21     1     1     2   502   512  1.253076339E+01  1.367237633E+01 -1.052996237E+02  1.069203660E+02  1.907348633E-06  0.00000E+00  9.000E+00
#rwgt            1           1   4.3239497587561113E-002           3       70399           0
</event>
<event>
      5   9999  3.79277E-02  2.73018E+01 -1.00000E+00  1.55938E-01
      21    -1     0     0   502   501  0.000000000E+00  0.000000000E+00  3.778692579E+02  3.778692579E+02  0.000000000E+00  0.00000E+00  9.000E+00
      21    -1     0     0   501   511  0.000000000E+00  0.000000000E+00 -2.745575151E+02  2.745575151E+02  0.000000000E+00  0.00000E+00  9.000E+00
      25     1     1     2     0     0 -1.304723582E+02  1.729337538E+01  2.153899012E+02  2.816734042E+02  1.250000000E+02  0.00000E+00  9.000E+00
      25     1     1     2     0     0  1.095499960E+02  2.464112306E-01  7.453150186E+01  1.821570946E+02  1.250000000E+02  0.00000E+00  9.000E+00
      21     1     1     2   502   511  2.092236226E+01 -1.753978661E+01 -1.866096602E+02  1.885962742E+02  2.697398305E-06  0.00000E+00  9.000E+00
#rwgt            1           1   4.0390481402577193E-002           3       70690           0
</event>
<event>
      5   9999  3.79277E-02  7.43286E+01 -1.00000E+00  1.29914E-01
      21    -1     0     0   502   501  0.000000000E+00  0.000000000E+00  2.262817238E+02  2.262817238E+02  0.000000000E+00  0.00000E+00  9.000E+00
      21    -1     0     0   512   502  0.000000000E+00  0.000000000E+00 -4.100912420E+02  4.100912420E+02  0.000000000E+00  0.00000E+00  9.000E+00
      25     1     1     2     0     0 -1.813725630E+01 -1.588267313E+02 -3.213348607E+01  2.054566903E+02  1.250000000E+02  0.00000E+00  9.000E+00
      25     1     1     2     0     0  3.849939391E+01  2.303118538E+02 -3.205334887E+00  2.648792697E+02  1.250000000E+02  0.00000E+00  9.000E+00
      21     1     1     2   512   501 -2.036213761E+01 -7.148512251E+01 -1.484706972E+02  1.660370059E+02  0.000000000E+00  0.00000E+00  9.000E+00
#rwgt            1           1   3.6450636633781813E-002           3       70888           0
</event>
<event>
      5   9999  3.79277E-02  2.16992E+01 -1.00000E+00  1.63499E-01
      21    -1     0     0   502   501  0.000000000E+00  0.000000000E+00  1.486076825E+03  1.486076825E+03  0.000000000E+00  0.00000E+00  9.000E+00
      21    -1     0     0   511   502  0.000000000E+00  0.000000000E+00 -3.638236681E+02  3.638236681E+02  0.000000000E+00  0.00000E+00  9.000E+00
      25     1     1     2     0     0  1.202583563E+02  1.031973999E+02  3.932145309E+02  4.419891887E+02  1.250000000E+02  0.00000E+00  9.000E+00
      25     1     1     2     0     0 -1.054444254E+02 -1.190530918E+02  1.058541175E+03  1.077695034E+03  1.250000000E+02  0.00000E+00  9.000E+00
      21     1     1     2   511   501 -1.481393084E+01  1.585569195E+01 -3.295025493E+02  3.302162709E+02  5.394796609E-06  0.00000E+00  9.000E+00
#rwgt            1           1   2.5788376163457437E-002           3       70960           0
</event>
<event>
      5   9999  3.79277E-02  1.23935E+02 -1.00000E+00  1.19777E-01
      21    -1     0     0   502   512  0.000000000E+00  0.000000000E+00  7.216111063E+02  7.216111063E+02  0.000000000E+00  0.00000E+00  9.000E+00
      21    -1     0     0   501   502  0.000000000E+00  0.000000000E+00 -2.420971175E+02  2.420971175E+02  0.000000000E+00  0.00000E+00  9.000E+00
      25     1     1     2     0     0  6.902053969E+01  2.118751918E+02  3.563125239E+02  4.384501642E+02  1.250000000E+02  0.00000E+00  9.000E+00
      25     1     1     2     0     0 -8.364896115E+01 -3.349437363E+02  2.660779325E+01  3.681269209E+02  1.250000000E+02  0.00000E+00  9.000E+00
      21     1     1     2   501   512  1.462842146E+01  1.230685446E+02  9.659367164E+01  1.571311388E+02  1.348699152E-06  0.00000E+00  9.000E+00
#rwgt            1           1   3.5927622516437871E-002           3       71342           0
</event>
<event>
      5   9999  3.79277E-02  5.90857E+00 -1.00000E+00  2.26513E-01
      21    -1     0     0   502   511  0.000000000E+00  0.000000000E+00  1.832701882E+03  1.832701882E+03  0.000000000E+00  0.00000E+00  9.000E+00
      21    -1     0     0   501   502  0.000000000E+00  0.000000000E+00 -5.226317016E+01  5.226317016E+01  0.000000000E+00  0.00000E+00  9.000E+00
      25     1     1     2     0     0  2.011622975E+02 -1.399118111E+02  5.213472247E+02  5.894654473E+02  1.250000000E+02  0.00000E+00  9.000E+00
      25     1     1     2     0     0 -1.982732855E+02  1.347577108E+02  9.874577455E+02  1.023801609E+03  1.250000000E+02  0.00000E+00  9.000E+00
      21     1     1     2   501   511 -2.889011990E+00  5.154100324E+00  2.716337413E+02  2.716979951E+02  0.000000000E+00  0.00000E+00  9.000E+00
#rwgt            1           1   2.8801322833357759E-002           3       71414           0
</event>
<event>
      5   9999  3.79277E-02  1.06516E+02 -1.00000E+00  1.22607E-01
       3    -1     0     0   502     0  0.000000000E+00  0.000000000E+00  3.169498961E+02  3.169498961E+02  0.000000000E+00  0.00000E+00  9.000E+00
      21    -1     0     0   501   502  0.000000000E+00  0.000000000E+00 -3.559061263E+02  3.559061263E+02  0.000000000E+00  0.00000E+00  9.000E+00
      25     1     1     2     0     0  7.800521072E+01 -1.824020899E+01  9.946655287E+01  1.787067801E+02  1.250000000E+02  0.00000E+00  9.000E+00
      25     1     1     2     0     0  5.334432730E+00  8.457328014E+01 -2.793141000E+02  3.175255302E+02  1.250000000E+02  0.00000E+00  9.000E+00
       3     1     1     2   501     0 -8.333964345E+01 -6.633307115E+01  1.408913169E+02  1.766237121E+02  2.697398305E-06  0.00000E+00  9.000E+00
#rwgt            1           1   4.6947069500619776E-002           3       71914           0
</event>
<event>
      5   9999  3.79277E-02  2.17469E+01 -1.00000E+00  1.63423E-01
      21    -1     0     0   502   501  0.000000000E+00  0.000000000E+00  1.122893895E+02  1.122893895E+02  0.000000000E+00  0.00000E+00  9.000E+00
      21    -1     0     0   501   511  0.000000000E+00  0.000000000E+00 -5.556516667E+02  5.556516667E+02  0.000000000E+00  0.00000E+00  9.000E+00
      25     1     1     2     0     0  7.570099472E+01 -1.220280790E+02 -2.315751105E+02  2.997891333E+02  1.250000000E+02  0.00000E+00  9.000E+00
      25     1     1     2     0     0 -9.742384936E+01  1.210053807E+02 -5.088430698E+01  2.057861056E+02  1.250000000E+02  0.00000E+00  9.000E+00
      21     1     1     2   502   511  2.172285464E+01  1.022698279E+00 -1.609028597E+02  1.623658172E+02  2.697398305E-06  0.00000E+00  9.000E+00
#rwgt            1           1   6.9061783661550302E-002           3       72028           0
</event>
<event>
      5   9999  3.79277E-02  8.81544E+01 -1.00000E+00  1.26342E-01
      21    -1     0     0   502   501  0.000000000E+00  0.000000000E+00  1.104195643E+03  1.104195643E+03  0.000000000E+00  0.00000E+00  9.000E+00
      21    -1     0     0   501   512  0.000000000E+00  0.000000000E+00 -9.030216990E+01  9.030216990E+01  0.000000000E+00  0.00000E+00  9.000E+00
      25     1     1     2     0     0  9.182027312E+01 -3.491245604E+01  4.038037883E+02  4.339727429E+02  1.250000000E+02  0.00000E+00  9.000E+00
      25     1     1     2     0     0 -1.656681250E+02  8.305496213E+01  6.314248041E+02  6.698256024E+02  1.250000000E+02  0.00000E+00  9.000E+00
      21     1     1     2   502   512  7.384785187E+01 -4.814250609E+01 -2.133511926E+01  9.069946765E+01  4.129530925E-07  0.00000E+00  9.000E+00
#rwgt            2          11   1.9034284062495117E-003           3       72318           0
</event>
<event>
      5   9999  3.79277E-02  7.35645E+01 -1.00000E+00  1.30137E-01
      21    -1     0     0   502   501  0.000000000E+00  0.000000000E+00  9.717593453E+02  9.717593453E+02  0.000000000E+00  0.00000E+00  9.000E+00
      21    -1     0     0   501   511  0.000000000E+00  0.000000000E+00 -9.288797928E+01  9.288797928E+01  0.000000000E+00  0.00000E+00  9.000E+00
      25     1     1     2     0     0  3.619925440E+01  9.831897821E+01  7.632784760E+02  7.805101149E+02  1.250000000E+02  0.00000E+00  9.000E+00
      25     1     1     2     0     0 -6.175795190E+01 -2.933716536E+01  1.464876523E+02  2.043485899E+02  1.250000000E+02  0.00000E+00  9.000E+00
      21     1     1     2   502   511  2.555869750E+01 -6.898181285E+01 -3.089476229E+01  7.978861986E+01  3.371747881E-07  0.00000E+00  9.000E+00
#rwgt            1           1   4.2899068182048306E-002           3       72368           0
</event>
<event>
      5   9999  3.79277E-02  1.82556E+01 -1.00000E+00  1.69707E-01
      21    -1     0     0   512   501  0.000000000E+00  0.000000000E+00  1.315244473E+03  1.315244473E+03  0.000000000E+00  0.00000E+00  9.000E+00
      21    -1     0     0   501   502  0.000000000E+00  0.000000000E+00 -3.009412786E+02  3.009412786E+02  0.000000000E+00  0.00000E+00  9.000E+00
      25     1     1     2     0     0  4.315769362E+02 -9.233141680E+01  2.603581345E+02  5.274420353E+02  1.250000000E+02  0.00000E+00  9.000E+00
      25     1     1     2     0     0 -4.143735537E+02  8.622321322E+01  1.238314294E+02  4.583656918E+02  1.250000000E+02  0.00000E+00  9.000E+00
      21     1     1     2   512   502 -1.720338244E+01  6.108203582E+00  6.301136303E+02  6.303780244E+02  7.629394531E-06  0.00000E+00  9.000E+00
#rwgt            1           1  0.15971098692041041                3       72439           0
</event>
<event>
      5   9999 -3.79277E-02  9.34111E+01 -1.00000E+00  1.25174E-01
      21    -1     0     0   502   501  0.000000000E+00  0.000000000E+00  1.398795338E+02  1.398795338E+02  0.000000000E+00  0.00000E+00  9.000E+00
      21    -1     0     0   501   511  0.000000000E+00  0.000000000E+00 -3.942428881E+02  3.942428881E+02  0.000000000E+00  0.00000E+00  9.000E+00
      25     1     1     2     0     0 -1.236136428E+02  4.417568123E+01 -1.461821849E+02  2.328648850E+02  1.250000000E+02  0.00000E+00  9.000E+00
      25     1     1     2     0     0  1.234054168E+02  4.923517712E+01 -4.320152909E+01  1.874683218E+02  1.250000000E+02  0.00000E+00  9.000E+00
      21     1     1     2   502   511  2.082259433E-01 -9.341085834E+01 -6.497964030E+01  1.137892151E+02  9.536743164E-07  0.00000E+00  9.000E+00
#rwgt            1           1  -5.2455167223777334E-002           3       72658           0
</event>
<event>
      5   9999  3.79277E-02  6.65294E+01 -1.00000E+00  1.32349E-01
      21    -1     0     0   512   501  0.000000000E+00  0.000000000E+00  3.209336642E+02  3.209336642E+02  0.000000000E+00  0.00000E+00  9.000E+00
      21    -1     0     0   501   502  0.000000000E+00  0.000000000E+00 -6.409182225E+02  6.409182225E+02  0.000000000E+00  0.00000E+00  9.000E+00
      25     1     1     2     0     0  1.550720386E+02  3.821185717E+01 -5.378151703E+02  5.747848646E+02  1.250000000E+02  0.00000E+00  9.000E+00
      25     1     1     2     0     0 -2.173548887E+02 -1.482379109E+01  1.526083981E+02  2.939000095E+02  1.250000000E+02  0.00000E+00  9.000E+00
      21     1     1     2   512   502  6.228285005E+01 -2.338806608E+01  6.522221389E+01  9.316701256E+01  0.000000000E+00  0.00000E+00  9.000E+00
#rwgt            1           1   5.8561153626869603E-002           3       72815           0
</event>
<event>
      5   9999  3.79277E-02  1.30043E+02 -1.00000E+00  1.18905E-01
       1    -1     0     0   502     0  0.000000000E+00  0.000000000E+00  1.654006049E+03  1.654006049E+03  0.000000000E+00  0.00000E+00  9.000E+00
      21    -1     0     0   501   502  0.000000000E+00  0.000000000E+00 -6.109190487E+02  6.109190487E+02  0.000000000E+00  0.00000E+00  9.000E+00
      25     1     1     2     0     0  8.550163510E+01  9.962507163E+01 -4.433179640E+02  4.789483289E+02  1.250000000E+02  0.00000E+00  9.000E+00
      25     1     1     2     0     0 -1.536010039E+01 -2.091304184E+02 -4.569846495E+01  2.483642773E+02  1.250000000E+02  0.00000E+00  9.000E+00
       1     1     1     2   501     0 -7.014153470E+01  1.095053467E+02  1.532103429E+03  1.537612491E+03  3.051757812E-05  0.00000E+00  9.000E+00
#rwgt            2          17   3.1399892771246996E-003           3       73030           0
</event>
<event>
      5   9999  3.79277E-02  1.02125E+02 -1.00000E+00  1.23419E-01
      21    -1     0     0   502   511  0.000000000E+00  0.000000000E+00  2.149943756E+03  2.149943756E+03  0.000000000E+00  0.00000E+00  9.000E+00
      21    -1     0     0   501   502  0.000000000E+00  0.000000000E+00 -6.217175468E+01  6.217175468E+01  0.000000000E+00  0.00000E+00  9.000E+00
      25     1     1     2     0     0  2.645307018E+02 -1.261481096E+02  7.882139247E+02  8.501741168E+02  1.250000000E+02  0.00000E+00  9.000E+00
      25     1     1     2     0     0 -2.750984819E+02  2.457165057E+01  9.074085347E+02  9.567121770E+02  1.250000000E+02  0.00000E+00  9.000E+00
      21     1     1     2   501   511  1.056778012E+01  1.015764590E+02  3.921495415E+02  4.052292165E+02  5.394796609E-06  0.00000E+00  9.000E+00
#rwgt            1           1   4.0683366998345578E-002           3       73109           0
</event>
<event>
      5   9999  3.79277E-02  2.72657E+01 -1.00000E+00  1.55980E-01
      -1    -1     0     0     0   501  0.000000000E+00  0.000000000E+00  9.626310926E+02  9.626310926E+02  0.000000000E+00  0.00000E+00  9.000E+00
      21    -1     0     0   501   502  0.000000000E+00  0.000000000E+00 -2.234863518E+02  2.234863518E+02  0.000000000E+00  0.00000E+00  9.000E+00
      25     1     1     2     0     0  1.347740173E+02  9.222412408E+01  1.946396723E+01  2.065748553E+02  1.250000000E+02  0.00000E+00  9.000E+00
      25     1     1     2     0     0 -1.617197529E+02 -9.638901597E+01 -3.123393867E+01  2.281330310E+02  1.250000000E+02  0.00000E+00  9.000E+00
      -1     1     1     2     0   502  2.694573562E+01  4.164891893E+00  7.509147122E+02  7.514095581E+02  1.078959322E-05  0.00000E+00  9.000E+00
#rwgt            1           1   2.8518918671886318E-002           3       73284           0
</event>
<event>
      5   9999  3.79277E-02  6.20500E+01 -1.00000E+00  1.33928E-01
       2    -1     0     0   502     0  0.000000000E+00  0.000000000E+00  1.107873419E+03  1.107873419E+03  0.000000000E+00  0.00000E+00  9.000E+00
      21    -1     0     0   501   502  0.000000000E+00  0.000000000E+00 -6.104567202E+01  6.104567202E+01  0.000000000E+00  0.00000E+00  9.000E+00
      25     1     1     2     0     0  8.622904395E+01 -7.610626979E+01  5.600549543E+02  5.852470966E+02  1.250000000E+02  0.00000E+00  9.000E+00
      25     1     1     2     0     0 -9.739478294E+01  1.371433523E+02  1.980093885E+02  2.883171184E+02  1.250000000E+02  0.00000E+00  9.000E+00
       2     1     1     2   501     0  1.116573899E+01 -6.103708249E+01  2.887634039E+02  2.953548757E+02  3.814697266E-06  0.00000E+00  9.000E+00
#rwgt            1           1   5.0558475705476780E-002           3       73421           0
</event>
<event>
      5   9999  3.79277E-02  1.40923E+02 -1.00000E+00  1.17478E-01
      21    -1     0     0   502   501  0.000000000E+00  0.000000000E+00  1.140897073E+02  1.140897073E+02  0.000000000E+00  0.00000E+00  9.000E+00
      21    -1     0     0   501   511  0.000000000E+00  0.000000000E+00 -1.412357341E+03  1.412357341E+03  0.000000000E+00  0.00000E+00  9.000E+00
      25     1     1     2     0     0 -1.531235779E+02  1.530462176E+02 -1.216564572E+02  2.780202662E+02  1.250000000E+02  0.00000E+00  9.000E+00
      25     1     1     2     0     0  2.255933699E+02 -3.218461329E+01 -5.829118709E+02  6.382315153E+02  1.250000000E+02  0.00000E+00  9.000E+00
      21     1     1     2   502   511 -7.246979200E+01 -1.208616044E+02 -5.936993057E+02  6.101952669E+02  7.629394531E-06  0.00000E+00  9.000E+00
#rwgt            1           1   2.3078492761537395E-002           3       73527           0
</event>
<event>
      5   9999  3.79277E-02  2.53796E+01 -1.00000E+00  1.58262E-01
      21    -1     0     0   502   512  0.000000000E+00  0.000000000E+00  2.851969963E+02  2.851969963E+02  0.000000000E+00  0.00000E+00  9.000E+00
      21    -1     0     0   501   502  0.000000000E+00  0.000000000E+00 -2.250677516E+02  2.250677516E+02  0.000000000E+00  0.00000E+00  9.000E+00
      25     1     1     2     0     0  1.552048121E+02  9.653622540E+01 -7.285913302E+01  2.331120541E+02  1.250000000E+02  0.00000E+00  9.000E+00
      25     1     1     2     0     0 -1.369776090E+02 -1.141967060E+02  1.188805476E+02  2.481155731E+02  1.250000000E+02  0.00000E+00  9.000E+00
      21     1     1     2   501   512 -1.822720303E+01  1.766048060E+01  1.410783010E+01  2.903712065E+01  2.384185791E-07  0.00000E+00  9.000E+00
#rwgt            1           1   3.4184833453862945E-002           3       73581           0
</event>
<event>
      5   9999  3.79277E-02  7.41156E+01 -1.00000E+00  1.29976E-01
      21    -1     0     0   502   501  0.000000000E+00  0.000000000E+00  9.606858328E+01  9.606858328E+01  0.000000000E+00  0.00000E+00  9.000E+00
       2    -1     0     0   501     0  0.000000000E+00  0.000000000E+00 -1.366364443E+03  1.366364443E+03  0.000000000E+00  0.00000E+00  9.000E+00
      25     1     1     2     0     0  6.982718279E+01  4.902011426E+01  9.563062322E+00  1.516418782E+02  1.250000000E+02  0.00000E+00  9.000E+00
      25     1     1     2     0     0 -8.218903841E+00 -9.022129339E+01 -4.153628703E+02  4.431238498E+02  1.250000000E+02  0.00000E+00  9.000E+00
       2     1     1     2   502     0 -6.160827895E+01  4.120117913E+01 -8.644960514E+02  8.676672980E+02  1.078959322E-05  0.00000E+00  9.000E+00
#rwgt            1           1   4.5781974149096120E-002           3       73717           0
</event>
<event>
      5   9999  3.79277E-02  6.13030E+01 -1.00000E+00  1.34207E-01
      21    -1     0     0   502   501  0.000000000E+00  0.000000000E+00  1.118576982E+03  1.118576982E+03  0.000000000E+00  0.00000E+00  9.000E+00
       2    -1     0     0   501     0  0.000000000E+00  0.000000000E+00 -2.873502678E+02  2.873502678E+02  0.000000000E+00  0.00000E+00  9.000E+00
      25     1     1     2     0     0 -1.041852255E+02  1.470384753E+02 -3.048054222E+01  2.214247906E+02  1.250000000E+02  0.00000E+00  9.000E+00
      25     1     1     2     0     0  4.775875816E+01 -1.230779381E+02  1.008849559E+03  1.025100731E+03  1.250000000E+02  0.00000E+00  9.000E+00
       2     1     1     2   502     0  5.642646730E+01 -2.396053723E+01 -1.471423024E+02  1.594017275E+02  3.814697266E-06  0.00000E+00  9.000E+00
#rwgt            1           1   5.0404956378470929E-002           3       73876           0
</event>
<event>
      5   9999  3.79277E-02  1.56691E+02 -1.00000E+00  1.15647E-01
      21    -1     0     0   511   501  0.000000000E+00  0.000000000E+00  4.445927059E+02  4.445927059E+02  0.000000000E+00  0.00000E+00  9.000E+00
      21    -1     0     0   501   502  0.000000000E+00  0.000000000E+00 -3.860587079E+02  3.860587079E+02  0.000000000E+00  0.00000E+00  9.000E+00
      25     1     1     2     0     0  2.434088839E+01  2.126384004E+02 -1.405969446E+02  2.849562580E+02  1.250000000E+02  0.00000E+00  9.000E+00
      25     1     1     2     0     0  1.023179717E+02 -1.203905214E+02 -8.701806795E+01  2.194538428E+02  1.250000000E+02  0.00000E+00  9.000E+00
      21     1     1     2   511   502 -1.266588600E+02 -9.224787895E+01  2.861490105E+02  3.262413129E+02  5.394796609E-06  0.00000E+00  9.000E+00
#rwgt            2          11   2.7458666907606961E-003           3       74051           0
</event>
<event>
      5   9999  3.79277E-02  1.54141E+01 -1.00000E+00  1.76276E-01
      21    -1     0     0   502   512  0.000000000E+00  0.000000000E+00  1.710506639E+02  1.710506639E+02  0.000000000E+00  0.00000E+00  9.000E+00
      21    -1     0     0   501   502  0.000000000E+00  0.000000000E+00 -3.146522766E+02  3.146522766E+02  0.000000000E+00  0.00000E+00  9.000E+00
      25     1     1     2     0     0  3.134527226E+01 -1.533754590E+02 -2.496972819E+01  2.018787875E+02  1.250000000E+02  0.00000E+00  9.000E+00
      25     1     1     2     0     0 -4.616702376E+01  1.491432769E+02 -1.492459716E+02  2.495485347E+02  1.250000000E+02  0.00000E+00  9.000E+00
      21     1     1     2   501   512  1.482175150E+01  4.232182079E+00  3.061408706E+01  3.427561829E+01  4.768371582E-07  0.00000E+00  9.000E+00
#rwgt            1           1   4.8250033044430762E-002           3       74296           0
</event>
<event>
      5   9999  3.79277E-02  4.43958E+01 -1.00000E+00  1.42087E-01
      21    -1     0     0   502   501  0.000000000E+00  0.000000000E+00  1.143784051E+02  1.143784051E+02  0.000000000E+00  0.00000E+00  9.000E+00
       2    -1     0     0   501     0  0.000000000E+00  0.000000000E+00 -2.869122668E+03  2.869122668E+03  0.000000000E+00  0.00000E+00  9.000E+00
      25     1     1     2     0     0 -3.189960794E+01 -1.888515868E+02 -4.484187664E+01  2.330628686E+02  1.250000000E+02  0.00000E+00  9.000E+00
      25     1     1     2     0     0  3.199304663E+01  1.444558613E+02 -4.477285107E+02  4.878287304E+02  1.250000000E+02  0.00000E+00  9.000E+00
       2     1     1     2   502     0 -9.343868237E-02  4.439572545E+01 -2.262173875E+03  2.262609474E+03  0.000000000E+00  0.00000E+00  9.000E+00
#rwgt            1           1   2.0351762915268735E-002           3       74494           0
</event>
<event>
      5   9999  3.79277E-02  1.88017E+01 -1.00000E+00  1.68614E-01
      21    -1     0     0   502   501  0.000000000E+00  0.000000000E+00  5.756796236E+02  5.756796236E+02  0.000000000E+00  0.00000E+00  9.000E+00
      21    -1     0     0   501   511  0.000000000E+00  0.000000000E+00 -2.495584465E+02  2.495584465E+02  0.000000000E+00  0.00000E+00  9.000E+00
      25     1     1     2     0     0 -5.773703874E+01 -1.992314867E+02  3.994811989E+02  4.671584091E+02  1.250000000E+02  0.00000E+00  9.000E+00
      25     1     1     2     0     0  5.061749455E+01  1.818298424E+02  5.120667486E+01  2.321020161E+02  1.250000000E+02  0.00000E+00  9.000E+00
      21     1     1     2   502   511  7.119544188E+00  1.740164430E+01 -1.245666966E+02  1.259776450E+02  1.348699152E-06  0.00000E+00  9.000E+00
#rwgt            1           1   5.3788533778140551E-002           3       74632           0
</event>
<event>
      5   9999  3.79277E-02  3.02380E+01 -1.00000E+00  1.52802E-01
      21    -1     0     0   502   512  0.000000000E+00  0.000000000E+00  5.847408922E+02  5.847408922E+02  0.000000000E+00  0.00000E+00  9.000E+00
      21    -1     0     0   501   502  0.000000000E+00  0.000000000E+00 -9.276482359E+01  9.276482359E+01  0.000000000E+00  0.00000E+00  9.000E+00
      25     1     1     2     0     0 -1.062643896E+02 -7.660629065E+01  2.725578134E+02  3.272207297E+02  1.250000000E+02  0.00000E+00  9.000E+00
      25     1     1     2     0     0  1.284656787E+02  9.713529140E+01  9.995937136E+01  2.270585197E+02  1.250000000E+02  0.00000E+00  9.000E+00
      21     1     1     2   501   512 -2.220128908E+01 -2.052900074E+01  1.194588839E+02  1.232264665E+02  0.000000000E+00  0.00000E+00  9.000E+00
#rwgt            1           1   4.7522097966719794E-002           3       74879           0
</event>
<event>
      5   9999  3.79277E-02  3.82466E+01 -1.00000E+00  1.46058E-01
      21    -1     0     0   502   501  0.000000000E+00  0.000000000E+00  2.333622095E+03  2.333622095E+03  0.000000000E+00  0.00000E+00  9.000E+00
      21    -1     0     0   501   511  0.000000000E+00  0.000000000E+00 -6.885139613E+01  6.885139613E+01  0.000000000E+00  0.00000E+00  9.000E+00
      25     1     1     2     0     0  1.323554121E+02 -1.467277600E+02  9.884432663E+02  1.015722443E+03  1.250000000E+02  0.00000E+00  9.000E+00
      25     1     1     2     0     0 -1.702417627E+02  1.414904702E+02  1.310822700E+03  1.335246405E+03  1.250000000E+02  0.00000E+00  9.000E+00
      21     1     1     2   502   511  3.788635064E+01  5.237289871E+00 -3.449526757E+01  5.150464303E+01  0.000000000E+00  0.00000E+00  9.000E+00
#rwgt            1           1   8.6920731685499061E-002           3       75018           0
</event>
<event>
      5   9999  3.79277E-02  5.51955E+01 -1.00000E+00  1.36669E-01
      21    -1     0     0   502   501  0.000000000E+00  0.000000000E+00  1.939319404E+02  1.939319404E+02  0.000000000E+00  0.00000E+00  9.000E+00
      21    -1     0     0   501   512  0.000000000E+00  0.000000000E+00 -6.113014590E+02  6.113014590E+02  0.000000000E+00  0.00000E+00  9.000E+00
      25     1     1     2     0     0 -9.519203133E+01 -7.050844524E-01 -4.757470018E+02  5.010211869E+02  1.250000000E+02  0.00000E+00  9.000E+00
      25     1     1     2     0     0  4.554381062E+01  2.482132076E+01  1.469975089E+02  1.998089194E+02  1.250000000E+02  0.00000E+00  9.000E+00
      21     1     1     2   502   512  4.964822070E+01 -2.411623630E+01 -8.862002566E+01  1.044032931E+02  1.651812370E-06  0.00000E+00  9.000E+00
#rwgt            1           1   3.0372832625213453E-002           3       75172           0
</event>
<event>
      5   9999  3.79277E-02  9.09917E+00 -1.00000E+00  2.00619E-01
      21    -1     0     0   502   511  0.000000000E+00  0.000000000E+00  1.917060367E+02  1.917060367E+02  0.000000000E+00  0.00000E+00  9.000E+00
      21    -1     0     0   501   502  0.000000000E+00  0.000000000E+00 -4.183024706E+02  4.183024706E+02  0.000000000E+00  0.00000E+00  9.000E+00
      25     1     1     2     0     0  9.628327427E+01  2.085316613E+02 -1.773191568E+02  3.159477900E+02  1.250000000E+02  0.00000E+00  9.000E+00
      25     1     1     2     0     0 -1.023646534E+02 -2.153000953E+02 -6.406447195E+01  2.766982289E+02  1.250000000E+02  0.00000E+00  9.000E+00
      21     1     1     2   501   511  6.081379137E+00  6.768433985E+00  1.478719484E+01  1.736248836E+01  2.384185791E-07  0.00000E+00  9.000E+00
#rwgt            1           1   3.4971007382018242E-002           3       75305           0
</event>
<event>
      5   9999  3.79277E-02  2.92026E+00 -1.00000E+00  3.00465E-01
      21    -1     0     0   502   501  0.000000000E+00  0.000000000E+00  1.040820227E+02  1.040820227E+02  0.000000000E+00  0.00000E+00  9.000E+00
       2    -1     0     0   501     0  0.000000000E+00  0.000000000E+00 -1.838052598E+03  1.838052598E+03  0.000000000E+00  0.00000E+00  9.000E+00
      25     1     1     2     0     0  1.582283876E+02 -1.088246631E+02 -1.668550769E+02  2.834513126E+02  1.250000000E+02  0.00000E+00  9.000E+00
      25     1     1     2     0     0 -1.597376083E+02  1.113246939E+02 -2.465484910E+02  3.381130719E+02  1.250000000E+02  0.00000E+00  9.000E+00
       2     1     1     2   502     0  1.509220668E+00 -2.500030723E+00 -1.320567007E+03  1.320570236E+03  3.051757812E-05  0.00000E+00  9.000E+00
#rwgt            1           1   4.2121882133600991E-002           3       75566           0
</event>
<event>
      5   9999  3.79277E-02  2.52084E+01 -1.00000E+00  1.58481E-01
      21    -1     0     0   502   501  0.000000000E+00  0.000000000E+00  7.591941421E+01  7.591941421E+01  0.000000000E+00  0.00000E+00  9.000E+00
      21    -1     0     0   511   502  0.000000000E+00  0.000000000E+00 -1.429949535E+03  1.429949535E+03  0.000000000E+00  0.00000E+00  9.000E+00
      25     1     1     2     0     0 -1.525638403E+01  1.492676111E+02 -9.662789831E+02  9.858162355E+02  1.250000000E+02  0.00000E+00  9.000E+00
      25     1     1     2     0     0 -1.889683358E+00 -1.677466867E+02 -1.012060350E+02  2.324009108E+02  1.250000000E+02  0.00000E+00  9.000E+00
      21     1     1     2   511   501  1.714606739E+01  1.847907564E+01 -2.865451022E+02  2.876518025E+02  3.814697266E-06  0.00000E+00  9.000E+00
#rwgt            1           1   5.0965999522097148E-002           3       76167           0
</event>
<event>
      5   9999  3.79277E-02  3.78394E+01 -1.00000E+00  1.46352E-01
      21    -1     0     0   512   501  0.000000000E+00  0.000000000E+00  2.080575082E+02  2.080575082E+02  0.000000000E+00  0.00000E+00  9.000E+00
      21    -1     0     0   501   502  0.000000000E+00  0.000000000E+00 -4.971881696E+02  4.971881696E+02  0.000000000E+00  0.00000E+00  9.000E+00
      25     1     1     2     0     0  1.577411620E+02  1.541971737E+01  8.852128591E+01  2.204111157E+02  1.250000000E+02  0.00000E+00  9.000E+00
      25     1     1     2     0     0 -1.618256150E+02  2.219863855E+01 -3.933405433E+02  4.438717069E+02  1.250000000E+02  0.00000E+00  9.000E+00
      21     1     1     2   512   502  4.084453065E+00 -3.761835592E+01  1.568859599E+01  4.096285517E+01  5.591411304E-07  0.00000E+00  9.000E+00
#rwgt            1           1   3.6847173681350549E-002           3       76385           0
</event>
<event>
      5   9999  3.79277E-02  2.31318E+01 -1.00000E+00  1.61320E-01
      21    -1     0     0   502   501  0.000000000E+00  0.000000000E+00  2.474538960E+02  2.474538960E+02  0.000000000E+00  0.00000E+00  9.000E+00
      21    -1     0     0   511   502  0.000000000E+00  0.000000000E+00 -1.625524530E+02  1.625524530E+02  0.000000000E+00  0.00000E+00  9.000E+00
      25     1     1     2     0     0  9.593461854E+01  8.703615610E+01  3.920518077E+01  1.842302627E+02  1.250000000E+02  0.00000E+00  9.000E+00
      25     1     1     2     0     0 -7.512418966E+01 -9.713598097E+01  7.314560030E+01  1.898797554E+02  1.250000000E+02  0.00000E+00  9.000E+00
      21     1     1     2   511   501 -2.081042889E+01  1.009982487E+01 -2.744933809E+01  3.589633093E+01  3.371747881E-07  0.00000E+00  9.000E+00
#rwgt            1           1   3.7878535316134561E-002           3       76541           0
</event>
<event>
      5   9999  3.79277E-02  1.25191E+01 -1.00000E+00  1.85115E-01
      21    -1     0     0   502   501  0.000000000E+00  0.000000000E+00  1.175759737E+02  1.175759737E+02  0.000000000E+00  0.00000E+00  9.000E+00
      -3    -1     0     0     0   502  0.000000000E+00  0.000000000E+00 -7.347667658E+02  7.347667658E+02  0.000000000E+00  0.00000E+00  9.000E+00
      25     1     1     2     0     0  1.685130553E+02 -6.613186063E+01 -7.511135430E+01  2.324581432E+02  1.250000000E+02  0.00000E+00  9.000E+00
      25     1     1     2     0     0 -1.792762096E+02  7.252580093E+01 -3.034596183E+02  3.809365972E+02  1.250000000E+02  0.00000E+00  9.000E+00
      -3     1     1     2     0   501  1.076315426E+01 -6.393940309E+00 -2.386198195E+02  2.389479990E+02  2.697398305E-06  0.00000E+00  9.000E+00
#rwgt            1           1   3.9597551942959247E-002           3       76693           0
</event>
<event>
      5   9999 -3.79277E-02  5.18426E+01 -1.00000E+00  1.38185E-01
      21    -1     0     0   511   501  0.000000000E+00  0.000000000E+00  1.153312914E+02  1.153312914E+02  0.000000000E+00  0.00000E+00  9.000E+00
      21    -1     0     0   501   502  0.000000000E+00  0.000000000E+00 -7.917128224E+02  7.917128224E+02  0.000000000E+00  0.00000E+00  9.000E+00
      25     1     1     2     0     0  6.188377435E+01 -5.848618327E+01  3.669366703E+01  1.556330953E+02  1.250000000E+02  0.00000E+00  9.000E+00
      25     1     1     2     0     0 -2.060194053E+01  8.984636166E+01 -6.567268645E+02  6.748421913E+02  1.250000000E+02  0.00000E+00  9.000E+00
      21     1     1     2   511   502 -4.128183381E+01 -3.136017839E+01 -5.634833356E+01  7.656882712E+01  6.743495762E-07  0.00000E+00  9.000E+00
#rwgt            1           1  -9.6075375091597415E-002           3       76979           0
</event>
<event>
      5   9999  3.79277E-02  1.23637E+02 -1.00000E+00  1.19820E-01
      21    -1     0     0   502   501  0.000000000E+00  0.000000000E+00  1.716353181E+02  1.716353181E+02  0.000000000E+00  0.00000E+00  9.000E+00
       2    -1     0     0   501     0  0.000000000E+00  0.000000000E+00 -1.344242178E+03  1.344242178E+03  0.000000000E+00  0.00000E+00  9.000E+00
      25     1     1     2     0     0 -5.553213952E+01 -2.922643368E+01  8.924676218E+01  1.659156036E+02  1.250000000E+02  0.00000E+00  9.000E+00
      25     1     1     2     0     0  1.157493034E+02 -7.875487554E+01 -1.766598408E+02  2.577478050E+02  1.250000000E+02  0.00000E+00  9.000E+00
       2     1     1     2   502     0 -6.021716388E+01  1.079813092E+02 -1.085193781E+03  1.092214087E+03  1.525878906E-05  0.00000E+00  9.000E+00
#rwgt            1           1   3.5264330298127956E-002           3       77105           0
</event>
<event>
      5   9999  3.79277E-02  5.43710E+01 -1.00000E+00  1.37030E-01
      21    -1     0     0   502   501  0.000000000E+00  0.000000000E+00  3.692044798E+02  3.692044798E+02  0.000000000E+00  0.00000E+00  9.000E+00
      21    -1     0     0   501   511  0.000000000E+00  0.000000000E+00 -5.396531061E+02  5.396531061E+02  0.000000000E+00  0.00000E+00  9.000E+00
      25     1     1     2     0     0  3.059718649E+02 -7.283855360E+00  2.151172467E+02  3.944265033E+02  1.250000000E+02  0.00000E+00  9.000E+00
      25     1     1     2     0     0 -2.535996385E+02  2.189054776E+01 -2.980513122E+02  4.114019414E+02  1.250000000E+02  0.00000E+00  9.000E+00
      21     1     1     2   502   511 -5.237222641E+01 -1.460669240E+01 -8.751456085E+01  1.030291411E+02  0.000000000E+00  0.00000E+00  9.000E+00
#rwgt            1           1   4.5373835964942315E-002           3       77198           0
</event>
<event>
      5   9999  3.79277E-02  6.15108E+01 -1.00000E+00  1.34129E-01
      21    -1     0     0   512   501  0.000000000E+00  0.000000000E+00  1.396053587E+03  1.396053587E+03  0.000000000E+00  0.00000E+00  9.000E+00
      21    -1     0     0   501   502  0.000000000E+00  0.000000000E+00 -1.111580907E+02  1.111580907E+02  0.000000000E+00  0.00000E+00  9.000E+00
      25     1     1     2     0     0  2.281458708E+02  1.618439474E+01  7.611108706E+02  8.045043383E+02  1.250000000E+02  0.00000E+00  9.000E+00
      25     1     1     2     0     0 -2.806505312E+02  1.585995969E+01  1.862746645E+02  3.596380258E+02  1.250000000E+02  0.00000E+00  9.000E+00
      21     1     1     2   512   502  5.250466039E+01 -3.204435444E+01  3.375099615E+02  3.430693139E+02  7.629394531E-06  0.00000E+00  9.000E+00
#rwgt            1           1   3.3756909459905830E-002           3       77334           0
</event>
<event>
      5   9999  3.79277E-02  5.77879E+01 -1.00000E+00  1.35581E-01
      21    -1     0     0   502   501  0.000000000E+00  0.000000000E+00  1.008097395E+03  1.008097395E+03  0.000000000E+00  0.00000E+00  9.000E+00
      21    -1     0     0   501   511  0.000000000E+00  0.000000000E+00 -8.985052021E+01  8.985052021E+01  0.000000000E+00  0.00000E+00  9.000E+00
      25     1     1     2     0     0  1.705125979E+02 -1.702149983E+02  5.236080435E+02  5.897779878E+02  1.250000000E+02  0.00000E+00  9.000E+00
      25     1     1     2     0     0 -1.255443640E+02  1.339203672E+02  3.917362590E+02  4.503091701E+02  1.250000000E+02  0.00000E+00  9.000E+00
      21     1     1     2   502   511 -4.496823385E+01  3.629463102E+01  2.902572225E+00  5.786075719E+01  1.183118417E-06  0.00000E+00  9.000E+00
#rwgt            1           1   2.4101512714971785E-002           3       77483           0
</event>
<event>
      5   9999  3.79277E-02  3.61496E+01 -1.00000E+00  1.47620E-01
      21    -1     0     0   502   512  0.000000000E+00  0.000000000E+00  2.092911086E+02  2.092911086E+02  0.000000000E+00  0.00000E+00  9.000E+00
      21    -1     0     0   501   502  0.000000000E+00  0.000000000E+00 -9.921339553E+02  9.921339553E+02  0.000000000E+00  0.00000E+00  9.000E+00
      25     1     1     2     0     0 -3.657153482E+02  2.095354742E+02 -4.481958960E+02  6.278195537E+02  1.250000000E+02  0.00000E+00  9.000E+00
      25     1     1     2     0     0  3.331469410E+02 -2.252228363E+02 -3.339373384E+02  5.374489337E+02  1.250000000E+02  0.00000E+00  9.000E+00
      21     1     1     2   501   512  3.256840715E+01  1.568736214E+01 -7.096122811E-01  3.615657651E+01  6.275317576E-07  0.00000E+00  9.000E+00
#rwgt            1           1  0.20815632892465116                3       77736           0
</event>
<event>
      5   9999  3.79277E-02  2.13619E+01 -1.00000E+00  1.64043E-01
      21    -1     0     0   511   501  0.000000000E+00  0.000000000E+00  2.988673022E+01  2.988673022E+01  0.000000000E+00  0.00000E+00  9.000E+00
      21    -1     0     0   501   502  0.000000000E+00  0.000000000E+00 -2.680954270E+03  2.680954270E+03  0.000000000E+00  0.00000E+00  9.000E+00
      25     1     1     2     0     0 -6.523546855E+01  1.304398399E+02 -1.483949794E+03  1.496329579E+03  1.250000000E+02  0.00000E+00  9.000E+00
      25     1     1     2     0     0  4.413496661E+01 -1.337714765E+02 -1.176284865E+03  1.191265624E+03  1.250000000E+02  0.00000E+00  9.000E+00
      21     1     1     2   511   502  2.110050194E+01  3.331636586E+00  9.167119626E+00  2.324579676E+01  2.920019320E-07  0.00000E+00  9.000E+00
#rwgt            1           1   3.1229462361784338E-002           3       77945           0
</event>
<event>
      5   9999  3.79277E-02  6.14114E+01 -1.00000E+00  1.34166E-01
      21    -1     0     0   502   501  0.000000000E+00  0.000000000E+00  1.905338225E+03  1.905338225E+03  0.000000000E+00  0.00000E+00  9.000E+00
      21    -1     0     0   501   512  0.000000000E+00  0.000000000E+00 -3.671127572E+01  3.671127572E+01  0.000000000E+00  0.00000E+00  9.000E+00
      25     1     1     2     0     0  7.328017158E+01  5.422811935E+01  3.099620661E+02  3.464277052E+02  1.250000000E+02  0.00000E+00  9.000E+00
      25     1     1     2     0     0 -1.338192674E+02 -6.454223585E+01  1.493543852E+03  1.506111395E+03  1.250000000E+02  0.00000E+00  9.000E+00
      21     1     1     2   502   512  6.053909585E+01  1.031411650E+01  6.512103185E+01  8.951040116E+01  9.536743164E-07  0.00000E+00  9.000E+00
#rwgt            1           1  0.16653968575604880                3       78214           0
</event>
<event>
      5   9999  3.79277E-02  4.14519E+01 -1.00000E+00  1.43886E-01
      21    -1     0     0   502   511  0.000000000E+00  0.000000000E+00  8.507039735E+02  8.507039735E+02  0.000000000E+00  0.00000E+00  9.000E+00
      21    -1     0     0   501   502  0.000000000E+00  0.000000000E+00 -2.272381808E+02  2.272381808E+02  0.000000000E+00  0.00000E+00  9.000E+00
      25     1     1     2     0     0  2.355499488E+01 -1.372984027E+02 -1.315268283E+02  2.287575042E+02  1.250000000E+02  0.00000E+00  9.000E+00
      25     1     1     2     0     0  3.468211014E+00  1.058658986E+02  9.806097782E+01  1.909465170E+02  1.250000000E+02  0.00000E+00  9.000E+00
      21     1     1     2   501   511 -2.702320590E+01  3.143250405E+01  6.569316433E+02  6.582381331E+02  7.629394531E-06  0.00000E+00  9.000E+00
#rwgt            1           1   3.5648787358497351E-002           3       78491           0
</event>
<event>
      5   9999  3.79277E-02  1.85247E+01 -1.00000E+00  1.69163E-01
      21    -1     0     0   512   501  0.000000000E+00  0.000000000E+00  1.210791926E+03  1.210791926E+03  0.000000000E+00  0.00000E+00  9.000E+00
      21    -1     0     0   501   502  0.000000000E+00  0.000000000E+00 -1.562924487E+02  1.562924487E+02  0.000000000E+00  0.00000E+00  9.000E+00
      25     1     1     2     0     0  2.356993889E+02 -1.446461932E+01  1.704505370E+01  2.677292681E+02  1.250000000E+02  0.00000E+00  9.000E+00
      25     1     1     2     0     0 -2.174214972E+02  1.747836758E+01  4.822813290E+02  5.438730376E+02  1.250000000E+02  0.00000E+00  9.000E+00
      21     1     1     2   512   502 -1.827789173E+01 -3.013748255E+00  5.551730944E+02  5.554820688E+02  7.629394531E-06  0.00000E+00  9.000E+00
#rwgt            1           1   5.3201192263911359E-002           3       78601           0
</event>
<event>
      5   9999  3.79277E-02  1.24868E+02 -1.00000E+00  1.19640E-01
      21    -1     0     0   502   501  0.000000000E+00  0.000000000E+00  1.612785851E+02  1.612785851E+02  0.000000000E+00  0.00000E+00  9.000E+00
       1    -1     0     0   501     0  0.000000000E+00  0.000000000E+00 -1.218892236E+03  1.218892236E+03  0.000000000E+00  0.00000E+00  9.000E+00
      25     1     1     2     0     0 -2.068212604E+02 -3.474148142E-01 -7.892595783E+02  8.254276688E+02  1.250000000E+02  0.00000E+00  9.000E+00
      25     1     1     2     0     0  1.569018386E+02 -1.141078096E+02  2.864702498E+01  2.325605969E+02  1.250000000E+02  0.00000E+00  9.000E+00
       1     1     1     2   502     0  4.991942178E+01  1.144552245E+02 -2.970010977E+02  3.221825556E+02  5.394796609E-06  0.00000E+00  9.000E+00
#rwgt            1           1   4.6357023018301864E-002           3       78916           0
</event>
<event>
      5   9999  3.79277E-02  2.31177E+01 -1.00000E+00  1.61340E-01
      21    -1     0     0   502   501  0.000000000E+00  0.000000000E+00  4.232914771E+01  4.232914771E+01  0.000000000E+00  0.00000E+00  9.000E+00
      21    -1     0     0   511   502  0.000000000E+00  0.000000000E+00 -1.701567305E+03  1.701567305E+03  0.000000000E+00  0.00000E+00  9.000E+00
      25     1     1     2     0     0  2.656445649E+01  1.638241464E+02 -3.249283898E+02  3.856779483E+02  1.250000000E+02  0.00000E+00  9.000E+00
      25     1     1     2     0     0 -4.300351156E+01 -1.475703739E+02 -8.276731465E+02  8.510547307E+02  1.250000000E+02  0.00000E+00  9.000E+00
      21     1     1     2   511   501  1.643905508E+01 -1.625377247E+01 -5.066366208E+02  5.071637735E+02  7.629394531E-06  0.00000E+00  9.000E+00
#rwgt            1           1   4.3268757704849739E-002           3       79075           0
</event>
<event>
      5   9999  3.79277E-02  1.14147E+02 -1.00000E+00  1.21297E-01
      21    -1     0     0   512   501  0.000000000E+00  0.000000000E+00  1.167767875E+02  1.167767875E+02  0.000000000E+00  0.00000E+00  9.000E+00
      21    -1     0     0   501   502  0.000000000E+00  0.000000000E+00 -9.607283540E+02  9.607283540E+02  0.000000000E+00  0.00000E+00  9.000E+00
      25     1     1     2     0     0 -1.150161027E+02 -1.030173131E+02 -7.665181463E+02  7.918436330E+02  1.250000000E+02  0.00000E+00  9.000E+00
      25     1     1     2     0     0  6.559399175E+01  1.241319152E-01 -9.502260239E+01  1.701672181E+02  1.250000000E+02  0.00000E+00  9.000E+00
      21     1     1     2   512   502  4.942211094E+01  1.028931811E+02  1.758918219E+01  1.154942904E+02  2.454669509E-06  0.00000E+00  9.000E+00
#rwgt            1           1   3.2928968062244900E-002           3       79215           0
</event>
<event>
      5   9999  3.79277E-02  1.01231E+02 -1.00000E+00  1.23589E-01
      21    -1     0     0   502   501  0.000000000E+00  0.000000000E+00  4.665252382E+01  4.665252382E+01  0.000000000E+00  0.00000E+00  9.000E+00
       2    -1     0     0   501     0  0.000000000E+00  0.000000000E+00 -2.973913549E+03  2.973913549E+03  0.000000000E+00  0.00000E+00  9.000E+00
      25     1     1     2     0     0  8.263059932E+01 -1.477343810E+02 -3.928412096E+02  4.456483807E+02  1.250000000E+02  0.00000E+00  9.000E+00
      25     1     1     2     0     0 -3.051055815E+01  2.345167573E+02 -9.408938671E+02  9.781795708E+02  1.250000000E+02  0.00000E+00  9.000E+00
       2     1     1     2   502     0 -5.212004118E+01 -8.678237632E+01 -1.593525949E+03  1.596738121E+03  0.000000000E+00  0.00000E+00  9.000E+00
#rwgt            1           1   3.7660086064736177E-002           3       79298           0
</event>
<event>
      5   9999  3.79277E-02  4.32923E+01 -1.00000E+00  1.42741E-01
      21    -1     0     0   502   501  0.000000000E+00  0.000000000E+00  3.875367152E+02  3.875367152E+02  0.000000000E+00  0.00000E+00  9.000E+00
      21    -1     0     0   501   511  0.000000000E+00  0.000000000E+00 -3.977180649E+02  3.977180649E+02  0.000000000E+00  0.00000E+00  9.000E+00
      25     1     1     2     0     0  3.186484246E+00 -2.207842766E+02  1.486194457E+02  2.940554201E+02  1.250000000E+02  0.00000E+00  9.000E+00
      25     1     1     2     0     0 -4.646568064E+01  2.218502337E+02  6.202148911E+01  2.661733472E+02  1.250000000E+02  0.00000E+00  9.000E+00
      21     1     1     2   502   511  4.327919640E+01 -1.065957118E+00 -2.208222844E+02  2.250260127E+02  2.697398305E-06  0.00000E+00  9.000E+00
#rwgt            1           1  0.13861239179352464                3       79386           0
</event>
<event>
      5   9999  3.79277E-02  6.63062E+01 -1.00000E+00  1.32424E-01
      -2    -1     0     0     0   501  0.000000000E+00  0.000000000E+00  1.417991168E+03  1.417991168E+03  0.000000000E+00  0.00000E+00  9.000E+00
      21    -1     0     0   501   502  0.000000000E+00  0.000000000E+00 -5.569624494E+01  5.569624494E+01  0.000000000E+00  0.00000E+00  9.000E+00
      25     1     1     2     0     0  6.195233308E+01 -1.351517030E+02  1.012566856E+03  1.031028958E+03  1.250000000E+02  0.00000E+00  9.000E+00
      25     1     1     2     0     0  6.967150228E-01  1.568683406E+02  2.947411253E+02  3.565185727E+02  1.250000000E+02  0.00000E+00  9.000E+00
      -2     1     1     2     0   502 -6.264904811E+01 -2.171663760E+01  5.498694212E+01  8.613988264E+01  1.348699152E-06  0.00000E+00  9.000E+00
#rwgt            1           1   4.6406377741482305E-002           3       79470           0
</event>
<event>
      5   9999  3.79277E-02  7.61531E+01 -1.00000E+00  1.29394E-01
      21    -1     0     0   511   501  0.000000000E+00  0.000000000E+00  1.793309917E+03  1.793309917E+03  0.000000000E+00  0.00000E+00  9.000E+00
      21    -1     0     0   501   502  0.000000000E+00  0.000000000E+00 -2.285559350E+02  2.285559350E+02  0.000000000E+00  0.00000E+00  9.000E+00
      25     1     1     2     0     0  1.333527460E+02  1.493318017E+01 -5.587680401E+01  1.917111681E+02  1.250000000E+02  0.00000E+00  9.000E+00
      25     1     1     2     0     0 -7.492936471E+01 -6.377985138E+01 -4.299224127E+01  1.647895990E+02  1.250000000E+02  0.00000E+00  9.000E+00
      21     1     1     2   511   502 -5.842338132E+01  4.884667121E+01  1.663623027E+03  1.665365084E+03  3.051757812E-05  0.00000E+00  9.000E+00
#rwgt            1           1   4.0180810463071114E-002           3       79818           0
</event>
<event>
      5   9999  3.79277E-02  1.15403E+01 -1.00000E+00  1.88830E-01
      21    -1     0     0   502   512  0.000000000E+00  0.000000000E+00  4.157950028E+02  4.157950028E+02  0.000000000E+00  0.00000E+00  9.000E+00
      21    -1     0     0   501   502  0.000000000E+00  0.000000000E+00 -1.377657650E+02  1.377657650E+02  0.000000000E+00  0.00000E+00  9.000E+00
      25     1     1     2     0     0 -1.441380007E+02 -4.575067058E+01  2.766837815E+02  3.391869721E+02  1.250000000E+02  0.00000E+00  9.000E+00
      25     1     1     2     0     0  1.460878153E+02  5.712501388E+01 -6.053557033E+00  2.006652998E+02  1.250000000E+02  0.00000E+00  9.000E+00
      21     1     1     2   501   512 -1.949814652E+00 -1.137434330E+01  7.399013345E+00  1.370849595E+01  1.685873940E-07  0.00000E+00  9.000E+00
#rwgt            1           1   4.0399924595463960E-002           3       79921           0
</event>
<event>
      5   9999  3.79277E-02  2.50240E+01 -1.00000E+00  1.58720E-01
      21    -1     0     0   502   511  0.000000000E+00  0.000000000E+00  8.690955815E+02  8.690955815E+02  0.000000000E+00  0.00000E+00  9.000E+00
      21    -1     0     0   501   502  0.000000000E+00  0.000000000E+00 -1.362592743E+02  1.362592743E+02  0.000000000E+00  0.00000E+00  9.000E+00
      25     1     1     2     0     0  2.898325772E+02 -2.198223433E+01  5.428799021E+02  6.283547799E+02  1.250000000E+02  0.00000E+00  9.000E+00
      25     1     1     2     0     0 -2.679620550E+02  3.414287557E+01  1.598633114E+02  3.378619203E+02  1.250000000E+02  0.00000E+00  9.000E+00
      21     1     1     2   501   511 -2.187052221E+01 -1.216064124E+01  3.009309372E+01  3.913815563E+01  4.768371582E-07  0.00000E+00  9.000E+00
#rwgt            1           1   4.0903897188003378E-002           3       80117           0
</event>
<event>
      5   9999  3.79277E-02  6.31854E+01 -1.00000E+00  1.33514E-01
      21    -1     0     0   512   501  0.000000000E+00  0.000000000E+00  4.194393469E+01  4.194393469E+01  0.000000000E+00  0.00000E+00  9.000E+00
      21    -1     0     0   501   502  0.000000000E+00  0.000000000E+00 -2.514147447E+03  2.514147447E+03  0.000000000E+00  0.00000E+00  9.000E+00
      25     1     1     2     0     0  3.981053987E+01 -1.862586858E+02 -5.423985092E+02  5.883012153E+02  1.250000000E+02  0.00000E+00  9.000E+00
      25     1     1     2     0     0 -9.103522801E+01  1.492664394E+02 -1.864771446E+03  1.877116254E+03  1.250000000E+02  0.00000E+00  9.000E+00
      21     1     1     2   512   502  5.122468814E+01  3.699224638E+01 -6.503355725E+01  9.067391321E+01  2.336015456E-06  0.00000E+00  9.000E+00
#rwgt            1           1   6.8326907587149488E-002           3       80293           0
</event>
<event>
      5   9999  3.79277E-02  3.10472E+01 -1.00000E+00  1.52012E-01
      21    -1     0     0   502   511  0.000000000E+00  0.000000000E+00  3.065592129E+02  3.065592129E+02  0.000000000E+00  0.00000E+00  9.000E+00
      21    -1     0     0   501   502  0.000000000E+00  0.000000000E+00 -1.875296406E+02  1.875296406E+02  0.000000000E+00  0.00000E+00  9.000E+00
      25     1     1     2     0     0 -1.209273652E+02  1.175152282E+02  8.079051587E+01  2.249119027E+02  1.250000000E+02  0.00000E+00  9.000E+00
      25     1     1     2     0     0  1.112281168E+02 -1.470085337E+02  3.734337583E+00  2.227602932E+02  1.250000000E+02  0.00000E+00  9.000E+00
      21     1     1     2   501   511  9.699248484E+00  2.949330546E+01  3.450471880E+01  4.641665765E+01  0.000000000E+00  0.00000E+00  9.000E+00
#rwgt            1           1   2.1180179529788193E-002           3       80395           0
</event>
<event>
      5   9999  3.79277E-02  2.85013E+01 -1.00000E+00  1.54602E-01
      21    -1     0     0   502   501  0.000000000E+00  0.000000000E+00  4.846325658E+02  4.846325658E+02  0.000000000E+00  0.00000E+00  9.000E+00
      21    -1     0     0   512   502  0.000000000E+00  0.000000000E+00 -7.491574203E+02  7.491574203E+02  0.000000000E+00  0.00000E+00  9.000E+00
      25     1     1     2     0     0 -3.264953579E+01 -3.233300428E+01  4.607865653E+02  4.796464053E+02  1.250000000E+02  0.00000E+00  9.000E+00
      25     1     1     2     0     0  4.893974201E+01  8.946014144E+00 -7.082736048E+02  7.209380201E+02  1.250000000E+02  0.00000E+00  9.000E+00
      21     1     1     2   512   501 -1.629020622E+01  2.338699014E+01 -1.703781491E+01  3.320556073E+01  4.129530925E-07  0.00000E+00  9.000E+00
#rwgt            1           1   6.1199791012473782E-002           3       80559           0
</event>
<event>
      5   9999  3.79277E-02  1.14649E+02 -1.00000E+00  1.21215E-01
      21    -1     0     0   502   511  0.000000000E+00  0.000000000E+00  5.607951561E+02  5.607951561E+02  0.000000000E+00  0.00000E+00  9.000E+00
      21    -1     0     0   501   502  0.000000000E+00  0.000000000E+00 -2.821231721E+02  2.821231721E+02  0.000000000E+00  0.00000E+00  9.000E+00
      25     1     1     2     0     0 -1.304868391E+02 -4.682398257E+01 -2.652371035E+01  1.885412627E+02  1.250000000E+02  0.00000E+00  9.000E+00
      25     1     1     2     0     0  7.525896046E+01  1.472940511E+02 -1.022062546E+02  2.311505291E+02  1.250000000E+02  0.00000E+00  9.000E+00
      21     1     1     2   501   511  5.522787864E+01 -1.004700685E+02  4.074019489E+02  4.232265365E+02  5.394796609E-06  0.00000E+00  9.000E+00
#rwgt            1           1   3.9993484622146629E-002           3       81069           0
</event>
<event>
      5   9999  3.79277E-02  4.41759E+01 -1.00000E+00  1.42215E-01
      21    -1     0     0   502   501  0.000000000E+00  0.000000000E+00  3.355432957E+02  3.355432957E+02  0.000000000E+00  0.00000E+00  9.000E+00
       2    -1     0     0   501     0  0.000000000E+00  0.000000000E+00 -6.366185175E+02  6.366185175E+02  0.000000000E+00  0.00000E+00  9.000E+00
      25     1     1     2     0     0 -2.135351738E+02 -1.273900602E+01 -1.113382323E+02  2.716261303E+02  1.250000000E+02  0.00000E+00  9.000E+00
      25     1     1     2     0     0  2.051858074E+02  5.611866331E+01  1.942474572E+02  3.140184621E+02  1.250000000E+02  0.00000E+00  9.000E+00
       2     1     1     2   502     0  8.349366381E+00 -4.337965730E+01 -3.839844467E+02  3.865172207E+02  7.629394531E-06  0.00000E+00  9.000E+00
#rwgt            1           1   3.1686029717619128E-002           3       81115           0
</event>
<event>
      5   9999  3.79277E-02  3.46423E+01 -1.00000E+00  1.48823E-01
      21    -1     0     0   502   511  0.000000000E+00  0.000000000E+00  4.613362733E+02  4.613362733E+02  0.000000000E+00  0.00000E+00  9.000E+00
      21    -1     0     0   501   502  0.000000000E+00  0.000000000E+00 -2.340953151E+02  2.340953151E+02  0.000000000E+00  0.00000E+00  9.000E+00
      25     1     1     2     0     0 -1.234802854E+02 -1.444793227E+02  1.174086514E+02  2.559911073E+02  1.250000000E+02  0.00000E+00  9.000E+00
      25     1     1     2     0     0  1.382956302E+02  1.131648399E+02 -9.051936858E+01  2.361159004E+02  1.250000000E+02  0.00000E+00  9.000E+00
      21     1     1     2   501   511 -1.481534477E+01  3.131448280E+01  2.003516755E+02  2.033245807E+02  3.814697266E-06  0.00000E+00  9.000E+00
#rwgt            1           1   4.4965915722285067E-002           3       81363           0
</event>
<event>
      5   9999  3.79277E-02  2.34239E+02 -1.00000E+00  1.09205E-01
      21    -1     0     0   502   512  0.000000000E+00  0.000000000E+00  3.848787497E+02  3.848787497E+02  0.000000000E+00  0.00000E+00  9.000E+00
      21    -1     0     0   501   502  0.000000000E+00  0.000000000E+00 -3.331499656E+02  3.331499656E+02  0.000000000E+00  0.00000E+00  9.000E+00
      25     1     1     2     0     0 -1.673389755E+02  1.125435305E+02 -6.310108769E+01  2.455099310E+02  1.250000000E+02  0.00000E+00  9.000E+00
      25     1     1     2     0     0 -3.982055749E+01 -3.214680093E+00 -9.181301318E+01  1.601581729E+02  1.250000000E+02  0.00000E+00  9.000E+00
      21     1     1     2   501   512  2.071595330E+02 -1.093288504E+02  2.066428850E+02  3.123606113E+02  3.814697266E-06  0.00000E+00  9.000E+00
#rwgt            1           1   8.3101002724033715E-002           3       81547           0
</event>
<event>
      5   9999  3.79277E-02  4.64081E+01 -1.00000E+00  1.40948E-01
      21    -1     0     0   511   501  0.000000000E+00  0.000000000E+00  6.587284852E+02  6.587284852E+02  0.000000000E+00  0.00000E+00  9.000E+00
      21    -1     0     0   501   502  0.000000000E+00  0.000000000E+00 -3.061073843E+02  3.061073843E+02  0.000000000E+00  0.00000E+00  9.000E+00
      25     1     1     2     0     0  2.471185124E+02 -1.389116408E+02 -1.301989513E+02  3.360666155E+02  1.250000000E+02  0.00000E+00  9.000E+00
      25     1     1     2     0     0 -2.815017244E+02  1.700806776E+02  4.530682603E+02  5.736431872E+02  1.250000000E+02  0.00000E+00  9.000E+00
      21     1     1     2   511   502  3.438321204E+01 -3.116903677E+01  2.975179196E+01  5.512606686E+01  6.743495762E-07  0.00000E+00  9.000E+00
#rwgt            1           1   9.5772028216021265E-003           3       81591           0
</event>
<event>
      5   9999  3.79277E-02  3.84118E+00 -1.00000E+00  2.67686E-01
      21    -1     0     0   502   501  0.000000000E+00  0.000000000E+00  2.791608235E+02  2.791608235E+02  0.000000000E+00  0.00000E+00  9.000E+00
      21    -1     0     0   512   502  0.000000000E+00  0.000000000E+00 -2.487569972E+02  2.487569972E+02  0.000000000E+00  0.00000E+00  9.000E+00
      25     1     1     2     0     0  7.884750966E+01  1.651436015E+02  9.466478292E+01  2.409891284E+02  1.250000000E+02  0.00000E+00  9.000E+00
      25     1     1     2     0     0 -8.211439833E+01 -1.631231783E+02  1.244356250E+00  2.213108541E+02  1.250000000E+02  0.00000E+00  9.000E+00
      21     1     1     2   512   501  3.266888669E+00 -2.020423135E+00 -6.550531287E+01  6.561783816E+01  1.348699152E-06  0.00000E+00  9.000E+00
#rwgt            1           1   3.4676996045238925E-002           3       81765           0
</event>
<event>
      5   9999  3.79277E-02  2.83819E+01 -1.00000E+00  1.54731E-01
      21    -1     0     0   502   501  0.000000000E+00  0.000000000E+00  1.707586196E+03  1.707586196E+03  0.000000000E+00  0.00000E+00  9.000E+00
      21    -1     0     0   501   511  0.000000000E+00  0.000000000E+00 -5.344532335E+01  5.344532335E+01  0.000000000E+00  0.00000E+00  9.000E+00
      25     1     1     2     0     0 -7.491410488E+01 -1.557588020E+02  2.951289045E+02  3.641414530E+02  1.250000000E+02  0.00000E+00  9.000E+00
      25     1     1     2     0     0  9.844429718E+01  1.716289309E+02  1.345051562E+03  1.365260588E+03  1.250000000E+02  0.00000E+00  9.000E+00
      21     1     1     2   502   511 -2.353019230E+01 -1.587012891E+01  1.396040609E+01  3.162947801E+01  0.000000000E+00  0.00000E+00  9.000E+00
#rwgt            1           1   5.2184883010971378E-002           3       82199           0
</event>
<event>
      5   9999  3.79277E-02  2.44161E+01 -1.00000E+00  1.59523E-01
      21    -1     0     0   512   501  0.000000000E+00  0.000000000E+00  5.269243461E+02  5.269243461E+02  0.000000000E+00  0.00000E+00  9.000E+00
      21    -1     0     0   501   502  0.000000000E+00  0.000000000E+00 -7.524446200E+01  7.524446200E+01  0.000000000E+00  0.00000E+00  9.000E+00
      25     1     1     2     0     0 -1.073951682E+02 -3.021254680E+01  2.928321711E+02  3.373754594E+02  1.250000000E+02  0.00000E+00  9.000E+00
      25     1     1     2     0     0  8.309747958E+01  2.781061374E+01  6.174762095E+01  1.646705500E+02  1.250000000E+02  0.00000E+00  9.000E+00
      21     1     1     2   512   502  2.429768861E+01  2.401933060E+00  9.710009207E+01  1.001227988E+02  0.000000000E+00  0.00000E+00  9.000E+00
#rwgt            1           1  0.17992197446316360                3       82418           0
</event>
<event>
      5   9999  3.79277E-02  9.95422E+01 -1.00000E+00  1.23918E-01
      21    -1     0     0   502   501  0.000000000E+00  0.000000000E+00  7.106867964E+01  7.106867964E+01  0.000000000E+00  0.00000E+00  9.000E+00
      21    -1     0     0   511   502  0.000000000E+00  0.000000000E+00 -8.689683725E+02  8.689683725E+02  0.000000000E+00  0.00000E+00  9.000E+00
      25     1     1     2     0     0 -1.360208924E+02 -6.437603389E+01 -1.452053757E+02  2.436299613E+02  1.250000000E+02  0.00000E+00  9.000E+00
      25     1     1     2     0     0  4.595399460E+01  2.198966876E+01 -4.617318153E+02  4.810577765E+02  1.250000000E+02  0.00000E+00  9.000E+00
      21     1     1     2   511   501  9.006689783E+01  4.238636513E+01 -1.909625019E+02  2.153493143E+02  0.000000000E+00  0.00000E+00  9.000E+00
#rwgt            1           1   3.7033735971922971E-002           3       82641           0
</event>
<event>
      5   9999  3.79277E-02  2.41001E+01 -1.00000E+00  1.59953E-01
      21    -1     0     0   512   501  0.000000000E+00  0.000000000E+00  4.453126987E+02  4.453126987E+02  0.000000000E+00  0.00000E+00  9.000E+00
      21    -1     0     0   501   502  0.000000000E+00  0.000000000E+00 -1.143594947E+02  1.143594947E+02  0.000000000E+00  0.00000E+00  9.000E+00
      25     1     1     2     0     0 -1.558652571E+02  6.689993941E+01  1.419374495E+02  2.540488532E+02  1.250000000E+02  0.00000E+00  9.000E+00
      25     1     1     2     0     0  1.502702755E+02 -9.034163960E+01  1.623189902E+02  2.696576017E+02  1.250000000E+02  0.00000E+00  9.000E+00
      21     1     1     2   512   502  5.594981603E+00  2.344170019E+01  2.669676431E+01  3.596573858E+01  4.768371582E-07  0.00000E+00  9.000E+00
#rwgt            1           1   4.1987032769512433E-002           3       82729           0
</event>
<event>
      5   9999  3.79277E-02  1.22977E+02 -1.00000E+00  1.19918E-01
      -2    -1     0     0     0   501  0.000000000E+00  0.000000000E+00  1.217758927E+03  1.217758927E+03  0.000000000E+00  0.00000E+00  9.000E+00
      21    -1     0     0   501   502  0.000000000E+00  0.000000000E+00 -1.016552319E+02  1.016552319E+02  0.000000000E+00  0.00000E+00  9.000E+00
      25     1     1     2     0     0 -7.351845337E+01 -5.161370754E+01  1.230584450E+02  1.970718617E+02  1.250000000E+02  0.00000E+00  9.000E+00
      25     1     1     2     0     0  1.215729292E+02  1.648130425E+02  1.797376567E+02  2.997898286E+02  1.250000000E+02  0.00000E+00  9.000E+00
      -2     1     1     2     0   502 -4.805447581E+01 -1.131993350E+02  8.133075930E+02  8.225524681E+02  1.078959322E-05  0.00000E+00  9.000E+00
#rwgt            1           1   3.4558377089832892E-002           3       82827           0
</event>
<event>
      5   9999  3.79277E-02  4.07896E+01 -1.00000E+00  1.44316E-01
      21    -1     0     0   511   501  0.000000000E+00  0.000000000E+00  3.035191442E+02  3.035191442E+02  0.000000000E+00  0.00000E+00  9.000E+00
      21    -1     0     0   501   502  0.000000000E+00  0.000000000E+00 -5.836648210E+02  5.836648210E+02  0.000000000E+00  0.00000E+00  9.000E+00
      25     1     1     2     0     0  1.671809225E+02 -4.027426791E+01 -5.181980507E+02  5.601122184E+02  1.250000000E+02  0.00000E+00  9.000E+00
      25     1     1     2     0     0 -1.266035379E+02  4.442950131E+01  1.904419734E+02  2.643777253E+02  1.250000000E+02  0.00000E+00  9.000E+00
      21     1     1     2   511   502 -4.057738455E+01 -4.155233399E+00  4.761040043E+01  6.269402149E+01  1.168007728E-06  0.00000E+00  9.000E+00
#rwgt            1           1   4.6418887138448835E-002           3       82913           0
</event>
<event>
      5   9999  3.79277E-02  7.68944E+01 -1.00000E+00  1.29187E-01
      -3    -1     0     0     0   501  0.000000000E+00  0.000000000E+00  1.907340201E+03  1.907340201E+03  0.000000000E+00  0.00000E+00  9.000E+00
      21    -1     0     0   501   502  0.000000000E+00  0.000000000E+00 -3.098492804E+01  3.098492804E+01  0.000000000E+00  0.00000E+00  9.000E+00
      25     1     1     2     0     0  1.180941904E+02 -1.230010557E+02  5.626882019E+02  6.010977542E+02  1.250000000E+02  0.00000E+00  9.000E+00
      25     1     1     2     0     0 -7.549547074E+01  5.898468220E+01  6.359139173E+02  6.551261474E+02  1.250000000E+02  0.00000E+00  9.000E+00
      -3     1     1     2     0   502 -4.259871971E+01  6.401637354E+01  6.777531534E+02  6.821012270E+02  0.000000000E+00  0.00000E+00  9.000E+00
#rwgt            1           1   3.5169573955775184E-002           3       83027           0
</event>
<event>
      5   9999  3.79277E-02  1.77507E+01 -1.00000E+00  1.70761E-01
      21    -1     0     0   502   501  0.000000000E+00  0.000000000E+00  1.690490933E+02  1.690490933E+02  0.000000000E+00  0.00000E+00  9.000E+00
      21    -1     0     0   501   511  0.000000000E+00  0.000000000E+00 -2.980009673E+02  2.980009673E+02  0.000000000E+00  0.00000E+00  9.000E+00
      25     1     1     2     0     0 -6.122426198E+01 -6.909334840E+01 -1.039997584E+02  1.869846271E+02  1.250000000E+02  0.00000E+00  9.000E+00
      25     1     1     2     0     0  5.210737198E+01  8.432392882E+01  7.660279285E+01  1.769708763E+02  1.250000000E+02  0.00000E+00  9.000E+00
      21     1     1     2   502   511  9.116889998E+00 -1.523058042E+01 -1.015549085E+02  1.030945571E+02  2.336015456E-06  0.00000E+00  9.000E+00
#rwgt            1           1   4.8456822138107911E-002           3       83116           0
</event>
<event>
      5   9999  3.79277E-02  5.31505E+01 -1.00000E+00  1.37578E-01
      21    -1     0     0   502   501  0.000000000E+00  0.000000000E+00  9.947667580E+02  9.947667580E+02  0.000000000E+00  0.00000E+00  9.000E+00
      21    -1     0     0   501   512  0.000000000E+00  0.000000000E+00 -5.600339915E+02  5.600339915E+02  0.000000000E+00  0.00000E+00  9.000E+00
      25     1     1     2     0     0  2.538010530E+02  5.075550162E+00  3.232016854E+02  4.295638080E+02  1.250000000E+02  0.00000E+00  9.000E+00
      25     1     1     2     0     0 -2.193532437E+02 -4.555170806E+01  5.902418099E+02  6.435846469E+02  1.250000000E+02  0.00000E+00  9.000E+00
      21     1     1     2   502   512 -3.444780932E+01  4.047615790E+01 -4.787107288E+02  4.816522945E+02  9.344061824E-06  0.00000E+00  9.000E+00
#rwgt            1           1   3.0048884124863954E-002           3       83240           0
</event>
<event>
      5   9999  3.79277E-02  1.00294E+01 -1.00000E+00  1.95610E-01
      21    -1     0     0   502   501  0.000000000E+00  0.000000000E+00  3.015392327E+02  3.015392327E+02  0.000000000E+00  0.00000E+00  9.000E+00
      21    -1     0     0   501   511  0.000000000E+00  0.000000000E+00 -7.823367716E+02  7.823367716E+02  0.000000000E+00  0.00000E+00  9.000E+00
      25     1     1     2     0     0  5.689316354E+01  2.076799769E+02  2.720931112E+01  2.504658689E+02  1.250000000E+02  0.00000E+00  9.000E+00
      25     1     1     2     0     0 -4.764226549E+01 -2.115540922E+02  6.636691718E+01  2.589488117E+02  1.250000000E+02  0.00000E+00  9.000E+00
      21     1     1     2   502   511 -9.250898052E+00  3.874115249E+00 -5.743737672E+02  5.744613236E+02  0.000000000E+00  0.00000E+00  9.000E+00
#rwgt            1           1   3.6052882629196911E-002           3       83392           0
</event>
<event>
      5   9999  3.79277E-02  4.83574E+01 -1.00000E+00  1.39908E-01
      21    -1     0     0   502   501  0.000000000E+00  0.000000000E+00  1.500583021E+02  1.500583021E+02  0.000000000E+00  0.00000E+00  9.000E+00
       2    -1     0     0   501     0  0.000000000E+00  0.000000000E+00 -9.441126184E+02  9.441126184E+02  0.000000000E+00  0.00000E+00  9.000E+00
      25     1     1     2     0     0  1.260007464E+02  2.738023084E+02 -2.521033169E+02  4.123408476E+02  1.250000000E+02  0.00000E+00  9.000E+00
      25     1     1     2     0     0 -7.945202177E+01 -2.607007926E+02 -2.633657679E+02  3.990790081E+02  1.250000000E+02  0.00000E+00  9.000E+00
       2     1     1     2   502     0 -4.654872459E+01 -1.310151586E+01 -2.785852314E+02  2.827510648E+02  3.814697266E-06  0.00000E+00  9.000E+00
#rwgt            1           1   3.6624401144653589E-002           3       83682           0
</event>
<event>
      5   9999 -3.79277E-02  2.98496E+01 -1.00000E+00  1.53192E-01
      21    -1     0     0   502   511  0.000000000E+00  0.000000000E+00  1.779737545E+02  1.779737545E+02  0.000000000E+00  0.00000E+00  9.000E+00
      21    -1     0     0   501   502  0.000000000E+00  0.000000000E+00 -3.996487822E+02  3.996487822E+02  0.000000000E+00  0.00000E+00  9.000E+00
      25     1     1     2     0     0  1.742986067E+02  1.133592534E+02 -1.654613766E+02  2.936542044E+02  1.250000000E+02  0.00000E+00  9.000E+00
      25     1     1     2     0     0 -1.445274999E+02 -1.111954956E+02 -9.016406208E+01  2.387617946E+02  1.250000000E+02  0.00000E+00  9.000E+00
      21     1     1     2   501   511 -2.977110680E+01 -2.163757838E+00  3.395041103E+01  4.520653777E+01  4.768371582E-07  0.00000E+00  9.000E+00
#rwgt            1           1 -0.21355986147247402                3       83779           0
</event>
<event>
      5   9999  3.79277E-02  1.58031E+01 -1.00000E+00  1.75276E-01
      21    -1     0     0   502   501  0.000000000E+00  0.000000000E+00  9.984368302E+02  9.984368302E+02  0.000000000E+00  0.00000E+00  9.000E+00
      21    -1     0     0   501   512  0.000000000E+00  0.000000000E+00 -1.126677701E+02  1.126677701E+02  0.000000000E+00  0.00000E+00  9.000E+00
      25     1     1     2     0     0 -1.196075191E+02  2.428311704E+02  2.239841774E+02  3.729166766E+02  1.250000000E+02  0.00000E+00  9.000E+00
      25     1     1     2     0     0  1.117830806E+02 -2.565612695E+02  6.494422349E+02  7.181360307E+02  1.250000000E+02  0.00000E+00  9.000E+00
      21     1     1     2   502   512  7.824438476E+00  1.373009909E+01  1.234264782E+01  2.005189302E+01  1.685873940E-07  0.00000E+00  9.000E+00
#rwgt            1           1   3.5154379024253106E-002           3       84061           0
</event>
<event>
      5   9999  3.79277E-02  1.97765E+02 -1.00000E+00  1.11826E-01
      21    -1     0     0   502   501  0.000000000E+00  0.000000000E+00  2.289775378E+02  2.289775378E+02  0.000000000E+00  0.00000E+00  9.000E+00
      21    -1     0     0   511   502  0.000000000E+00  0.000000000E+00 -8.985272115E+02  8.985272115E+02  0.000000000E+00  0.00000E+00  9.000E+00
      25     1     1     2     0     0  1.041248585E+02 -1.141024124E+02 -2.352548839E+02  3.079467601E+02  1.250000000E+02  0.00000E+00  9.000E+00
      25     1     1     2     0     0 -2.695616917E+02  2.224617399E+02 -3.358199635E+01  3.727002573E+02  1.250000000E+02  0.00000E+00  9.000E+00
      21     1     1     2   511   501  1.654368332E+02 -1.083593275E+02 -4.007127934E+02  4.468577318E+02  7.629394531E-06  0.00000E+00  9.000E+00
#rwgt            2          11   1.3378053051551473E-003           3       84255           0
</event>
<event>
      5   9999  3.79277E-02  2.75243E+01 -1.00000E+00  1.55684E-01
      21    -1     0     0   502   512  0.000000000E+00  0.000000000E+00  5.552400878E+02  5.552400878E+02  0.000000000E+00  0.00000E+00  9.000E+00
      21    -1     0     0   501   502  0.000000000E+00  0.000000000E+00 -2.681842145E+02  2.681842145E+02  0.000000000E+00  0.00000E+00  9.000E+00
      25     1     1     2     0     0  6.531343664E+01 -1.622489206E+02 -1.101484229E+01  2.152600381E+02  1.250000000E+02  0.00000E+00  9.000E+00
      25     1     1     2     0     0 -3.811223924E+01  1.580439018E+02 -8.652830772E+01  2.225815934E+02  1.250000000E+02  0.00000E+00  9.000E+00
      21     1     1     2   501   512 -2.720119740E+01  4.205018869E+00  3.845990233E+02  3.855826709E+02  0.000000000E+00  0.00000E+00  9.000E+00
#rwgt            1           1   4.5630787630978158E-002           3       84320           0
</event>
<event>
      5   9999  3.79277E-02  1.57092E+01 -1.00000E+00  1.75514E-01
      21    -1     0     0   502   501  0.000000000E+00  0.000000000E+00  1.329199254E+02  1.329199254E+02  0.000000000E+00  0.00000E+00  9.000E+00
      21    -1     0     0   501   511  0.000000000E+00  0.000000000E+00 -3.966056659E+02  3.966056659E+02  0.000000000E+00  0.00000E+00  9.000E+00
      25     1     1     2     0     0  8.321002788E+01 -4.604116677E+01 -2.300322241E+02  2.785381875E+02  1.250000000E+02  0.00000E+00  9.000E+00
      25     1     1     2     0     0 -9.706707064E+01  5.344116047E+01  4.320588364E+01  1.725390455E+02  1.250000000E+02  0.00000E+00  9.000E+00
      21     1     1     2   502   511  1.385704276E+01 -7.399993702E+00 -7.685940001E+01  7.844835824E+01  1.348699152E-06  0.00000E+00  9.000E+00
#rwgt            1           1   4.8407878995806022E-002           3       84506           0
</event>
<event>
      5   9999 -3.79277E-02  6.33600E+01 -1.00000E+00  1.33451E-01
      21    -1     0     0   512   501  0.000000000E+00  0.000000000E+00  1.064196725E+02  1.064196725E+02  0.000000000E+00  0.00000E+00  9.000E+00
      21    -1     0     0   501   502  0.000000000E+00  0.000000000E+00 -7.835034555E+02  7.835034555E+02  0.000000000E+00  0.00000E+00  9.000E+00
      25     1     1     2     0     0  2.189359104E+02  1.066264743E+02 -2.430457277E+02  3.660578692E+02  1.250000000E+02  0.00000E+00  9.000E+00
      25     1     1     2     0     0 -1.594759011E+02 -8.474060634E+01 -3.869016999E+02  4.448948851E+02  1.250000000E+02  0.00000E+00  9.000E+00
      21     1     1     2   512   502 -5.946000931E+01 -2.188586798E+01 -4.713635536E+01  7.897037369E+01  1.651812370E-06  0.00000E+00  9.000E+00
#rwgt            1           1  -8.6061323742767731E-002           3       84720           0
</event>
<event>
      5   9999  3.79277E-02  2.67832E+01 -1.00000E+00  1.56542E-01
      21    -1     0     0   502   501  0.000000000E+00  0.000000000E+00  3.089155951E+02  3.089155951E+02  0.000000000E+00  0.00000E+00  9.000E+00
      21    -1     0     0   511   502  0.000000000E+00  0.000000000E+00 -1.425353340E+03  1.425353340E+03  0.000000000E+00  0.00000E+00  9.000E+00
      25     1     1     2     0     0 -3.993949307E+00 -1.703945796E+02  1.812862112E+02  2.784599697E+02  1.250000000E+02  0.00000E+00  9.000E+00
      25     1     1     2     0     0 -1.338605718E+01  1.500162826E+02 -4.248577526E+01  2.002850785E+02  1.250000000E+02  0.00000E+00  9.000E+00
      21     1     1     2   511   501  1.738000649E+01  2.037829695E+01 -1.255238181E+03  1.255523887E+03  2.642899792E-05  0.00000E+00  9.000E+00
#rwgt            1           1   3.5957586786363613E-002           3       84806           0
</event>
<event>
      5   9999  3.79277E-02  6.07884E+01 -1.00000E+00  1.34401E-01
      21    -1     0     0   502   512  0.000000000E+00  0.000000000E+00  7.208751687E+01  7.208751687E+01  0.000000000E+00  0.00000E+00  9.000E+00
      21    -1     0     0   501   502  0.000000000E+00  0.000000000E+00 -7.891135389E+02  7.891135389E+02  0.000000000E+00  0.00000E+00  9.000E+00
      25     1     1     2     0     0 -1.126660752E+02 -5.608664867E+01 -4.069077171E+02  4.438899041E+02  1.250000000E+02  0.00000E+00  9.000E+00
      25     1     1     2     0     0  1.706649022E+02  3.788327296E+01 -2.671787532E+02  3.428864789E+02  1.250000000E+02  0.00000E+00  9.000E+00
      21     1     1     2   501   512 -5.799882706E+01  1.820337571E+01 -4.293955161E+01  7.442467279E+01  1.066240300E-06  0.00000E+00  9.000E+00
#rwgt            1           1   1.5140330622322399E-002           3       84977           0
</event>
<event>
      5   9999  3.79277E-02  1.37909E+02 -1.00000E+00  1.17859E-01
      21    -1     0     0   502   501  0.000000000E+00  0.000000000E+00  2.098696086E+03  2.098696086E+03  0.000000000E+00  0.00000E+00  9.000E+00
      -3    -1     0     0     0   502  0.000000000E+00  0.000000000E+00 -5.920246182E+01  5.920246182E+01  0.000000000E+00  0.00000E+00  9.000E+00
      25     1     1     2     0     0  1.828674994E+02 -2.093703773E+02  6.984070286E+02  7.620195896E+02  1.250000000E+02  0.00000E+00  9.000E+00
      25     1     1     2     0     0 -5.137782728E+01  1.677836893E+02  1.072833902E+03  1.094252544E+03  1.250000000E+02  0.00000E+00  9.000E+00
      -3     1     1     2     0   501 -1.314896721E+02  4.158668798E+01  2.682526930E+02  3.016264143E+02  3.814697266E-06  0.00000E+00  9.000E+00
#rwgt            2           8   1.2312447148163297E-005           3       85062           0
</event>
<event>
      5   9999  3.79277E-02  3.29002E+01 -1.00000E+00  1.50307E-01
       5    -1     0     0   502     0  0.000000000E+00  0.000000000E+00  7.200274823E+02  7.200274823E+02  0.000000000E+00  0.00000E+00  9.000E+00
      21    -1     0     0   501   502  0.000000000E+00  0.000000000E+00 -8.237536784E+01  8.237536784E+01  0.000000000E+00  0.00000E+00  9.000E+00
      25     1     1     2     0     0  1.153620111E+02  1.285666435E+02  1.625032129E+02  2.680859370E+02  1.250000000E+02  0.00000E+00  9.000E+00
      25     1     1     2     0     0 -8.247799500E+01 -1.295976478E+02  3.248655266E+02  3.804744149E+02  1.250000000E+02  0.00000E+00  9.000E+00
       5     1     1     2   501     0 -3.288401611E+01  1.031004322E+00  1.502833749E+02  1.538424982E+02  3.303624740E-06  0.00000E+00  9.000E+00
#rwgt            1           1   4.3892139948957007E-002           3       85081           0
</event>
<event>
      5   9999  3.79277E-02  2.98707E+01 -1.00000E+00  1.53170E-01
      21    -1     0     0   502   501  0.000000000E+00  0.000000000E+00  1.176052205E+02  1.176052205E+02  0.000000000E+00  0.00000E+00  9.000E+00
      21    -1     0     0   501   511  0.000000000E+00  0.000000000E+00 -5.150693376E+02  5.150693376E+02  0.000000000E+00  0.00000E+00  9.000E+00
      25     1     1     2     0     0 -1.768632457E+02 -4.546834476E+01 -1.825799013E+02  2.868944029E+02  1.250000000E+02  0.00000E+00  9.000E+00
      25     1     1     2     0     0  1.971695840E+02  2.356142953E+01 -1.622934626E+02  2.852983593E+02  1.250000000E+02  0.00000E+00  9.000E+00
      21     1     1     2   502   511 -2.030633836E+01  2.190691523E+01 -5.259075319E+01  6.048179588E+01  6.743495762E-07  0.00000E+00  9.000E+00
#rwgt            1           1   4.3068067045249063E-002           3       85241           0
</event>
<event>
      5   9999  3.79277E-02  1.05632E+02 -1.00000E+00  1.22767E-01
      21    -1     0     0   502   501  0.000000000E+00  0.000000000E+00  2.568996243E+02  2.568996243E+02  0.000000000E+00  0.00000E+00  9.000E+00
      21    -1     0     0   501   512  0.000000000E+00  0.000000000E+00 -3.232708908E+02  3.232708908E+02  0.000000000E+00  0.00000E+00  9.000E+00
      25     1     1     2     0     0 -1.577475443E+02  5.620309141E+01 -9.908197449E+01  2.312689190E+02  1.250000000E+02  0.00000E+00  9.000E+00
      25     1     1     2     0     0  5.370716479E+01 -3.793383298E+01  1.396262107E+02  1.986049192E+02  1.250000000E+02  0.00000E+00  9.000E+00
      21     1     1     2   502   512  1.040403795E+02 -1.826925842E+01 -1.069155027E+02  1.502966769E+02  2.336015456E-06  0.00000E+00  9.000E+00
#rwgt            1           1   4.8992494511923106E-002           3       85398           0
</event>
<event>
      5   9999  3.79277E-02  1.31760E+02 -1.00000E+00  1.18670E-01
       2    -1     0     0   502     0  0.000000000E+00  0.000000000E+00  1.111260064E+03  1.111260064E+03  0.000000000E+00  0.00000E+00  9.000E+00
      21    -1     0     0   501   502  0.000000000E+00  0.000000000E+00 -2.091177063E+02  2.091177063E+02  0.000000000E+00  0.00000E+00  9.000E+00
      25     1     1     2     0     0 -6.139463748E+01 -1.993779083E+02  3.083465334E+02  3.927129186E+02  1.250000000E+02  0.00000E+00  9.000E+00
      25     1     1     2     0     0  1.172279942E+02  8.003263954E+01 -1.051553359E+02  2.164030284E+02  1.250000000E+02  0.00000E+00  9.000E+00
       2     1     1     2   501     0 -5.583335676E+01  1.193452687E+02  6.989511598E+02  7.112618229E+02  7.629394531E-06  0.00000E+00  9.000E+00
#rwgt            1           1   3.0107518109916770E-002           3       85477           0
</event>
<event>
      5   9999  3.79277E-02  3.00230E+01 -1.00000E+00  1.53017E-01
      21    -1     0     0   502   501  0.000000000E+00  0.000000000E+00  2.101845078E+02  2.101845078E+02  0.000000000E+00  0.00000E+00  9.000E+00
      -1    -1     0     0     0   502  0.000000000E+00  0.000000000E+00 -5.790128793E+02  5.790128793E+02  0.000000000E+00  0.00000E+00  9.000E+00
      25     1     1     2     0     0 -1.386490336E+02  1.010322945E+01 -2.337304815E+01  1.884062874E+02  1.250000000E+02  0.00000E+00  9.000E+00
      25     1     1     2     0     0  1.613320661E+02 -2.977203161E+01  4.340906675E+01  2.107694392E+02  1.250000000E+02  0.00000E+00  9.000E+00
      -1     1     1     2     0   501 -2.268303258E+01  1.966880216E+01 -3.888643901E+02  3.900216605E+02  0.000000000E+00  0.00000E+00  9.000E+00
#rwgt            1           1   2.8824412514701542E-002           3       85621           0
</event>
<event>
      5   9999  3.79277E-02  7.54265E+01 -1.00000E+00  1.29599E-01
      21    -1     0     0   502   501  0.000000000E+00  0.000000000E+00  2.650852417E+02  2.650852417E+02  0.000000000E+00  0.00000E+00  9.000E+00
      21    -1     0     0   501   511  0.000000000E+00  0.000000000E+00 -1.320422866E+03  1.320422866E+03  0.000000000E+00  0.00000E+00  9.000E+00
      25     1     1     2     0     0  8.448606937E+01 -5.814483605E+01 -2.188931162E+02  2.721358378E+02  1.250000000E+02  0.00000E+00  9.000E+00
      25     1     1     2     0     0 -1.320493306E+02 -3.948105524E-01  2.022348122E+02  2.719579027E+02  1.250000000E+02  0.00000E+00  9.000E+00
      21     1     1     2   502   511  4.756326124E+01  5.853964660E+01 -1.038679320E+03  1.041414367E+03  2.157918644E-05  0.00000E+00  9.000E+00
#rwgt            1           1   3.9466307735017456E-002           3       85719           0
</event>
<event>
      5   9999  3.79277E-02  9.47956E+01 -1.00000E+00  1.24881E-01
       2    -1     0     0   502     0  0.000000000E+00  0.000000000E+00  7.831515797E+02  7.831515797E+02  0.000000000E+00  0.00000E+00  9.000E+00
      21    -1     0     0   501   502  0.000000000E+00  0.000000000E+00 -4.885915973E+02  4.885915973E+02  0.000000000E+00  0.00000E+00  9.000E+00
      25     1     1     2     0     0  2.912245300E+02 -7.026102768E+01 -2.394442860E+02  4.033694398E+02  1.250000000E+02  0.00000E+00  9.000E+00
      25     1     1     2     0     0 -2.982627992E+02 -2.427292833E+01 -1.735983541E+00  3.243114029E+02  1.250000000E+02  0.00000E+00  9.000E+00
       2     1     1     2   501     0  7.038269162E+00  9.453395601E+01  5.357402519E+02  5.440623343E+02  0.000000000E+00  0.00000E+00  9.000E+00
#rwgt            1           1   4.9010154904371966E-002           3       85999           0
</event>
<event>
      5   9999  3.79277E-02  6.84698E+01 -1.00000E+00  1.31709E-01
      21    -1     0     0   502   501  0.000000000E+00  0.000000000E+00  6.503213903E+02  6.503213903E+02  0.000000000E+00  0.00000E+00  9.000E+00
      21    -1     0     0   511   502  0.000000000E+00  0.000000000E+00 -4.492721416E+02  4.492721416E+02  0.000000000E+00  0.00000E+00  9.000E+00
      25     1     1     2     0     0  1.345502936E+02 -1.548733190E+02  4.652851027E+02  5.236456371E+02  1.250000000E+02  0.00000E+00  9.000E+00
      25     1     1     2     0     0 -7.470767261E+01  1.216020108E+02  9.364792419E+01  2.115732003E+02  1.250000000E+02  0.00000E+00  9.000E+00
      21     1     1     2   511   501 -5.984262103E+01  3.327130824E+01 -3.578837783E+02  3.643746945E+02  5.394796609E-06  0.00000E+00  9.000E+00
#rwgt            1           1   4.3019724110507578E-002           3       86094           0
</event>
<event>
      5   9999  3.79277E-02  7.60045E+01 -1.00000E+00  1.29436E-01
      21    -1     0     0   512   501  0.000000000E+00  0.000000000E+00  7.000788579E+02  7.000788579E+02  0.000000000E+00  0.00000E+00  9.000E+00
      21    -1     0     0   501   502  0.000000000E+00  0.000000000E+00 -1.990534055E+02  1.990534055E+02  0.000000000E+00  0.00000E+00  9.000E+00
      25     1     1     2     0     0 -1.249949307E+02 -2.378818337E+02  2.242204870E+02  3.716333224E+02  1.250000000E+02  0.00000E+00  9.000E+00
      25     1     1     2     0     0  1.286163338E+02  3.137999653E+02  1.781383921E+02  4.029526849E+02  1.250000000E+02  0.00000E+00  9.000E+00
      21     1     1     2   512   502 -3.621403126E+00 -7.591813155E+01  9.866657315E+01  1.245462561E+02  2.697398305E-06  0.00000E+00  9.000E+00
#rwgt            2          11   3.1437697727767565E-003           3       86178           0
</event>
<event>
      5   9999  3.79277E-02  9.19068E+01 -1.00000E+00  1.25499E-01
      21    -1     0     0   502   511  0.000000000E+00  0.000000000E+00  1.006489176E+03  1.006489176E+03  0.000000000E+00  0.00000E+00  9.000E+00
      21    -1     0     0   501   502  0.000000000E+00  0.000000000E+00 -2.712975335E+02  2.712975335E+02  0.000000000E+00  0.00000E+00  9.000E+00
      25     1     1     2     0     0 -1.888039253E+02  2.107745399E+02 -2.988301907E+01  3.107906429E+02  1.250000000E+02  0.00000E+00  9.000E+00
      25     1     1     2     0     0  1.456924456E+02 -1.296064028E+02  3.870418613E+01  2.348342445E+02  1.250000000E+02  0.00000E+00  9.000E+00
      21     1     1     2   501   511  4.311147966E+01 -8.116813713E+01  7.263704758E+02  7.321618225E+02  1.078959322E-05  0.00000E+00  9.000E+00
#rwgt            1           1   4.9779323279967994E-002           3       86333           0
</event>
<event>
      5   9999  3.79277E-02  8.80822E+01 -1.00000E+00  1.26359E-01
      21    -1     0     0   502   501  0.000000000E+00  0.000000000E+00  4.371546868E+02  4.371546868E+02  0.000000000E+00  0.00000E+00  9.000E+00
      21    -1     0     0   512   502  0.000000000E+00  0.000000000E+00 -5.166331419E+02  5.166331419E+02  0.000000000E+00  0.00000E+00  9.000E+00
      25     1     1     2     0     0 -9.549962924E+01  3.025765881E+02 -2.200503519E+02  4.058570292E+02  1.250000000E+02  0.00000E+00  9.000E+00
      25     1     1     2     0     0  1.253215604E+02 -3.854567488E+02  1.671869452E+02  4.559154234E+02  1.250000000E+02  0.00000E+00  9.000E+00
      21     1     1     2   512   501 -2.982193114E+01  8.288016073E+01 -2.661504849E+01  9.201537603E+01  8.259061849E-07  0.00000E+00  9.000E+00
#rwgt            1           1   3.7927603281632187E-002           3       86426           0
</event>
<event>
      5   9999  3.79277E-02  3.95356E+01 -1.00000E+00  1.45155E-01
      21    -1     0     0   502   501  0.000000000E+00  0.000000000E+00  6.432769702E+01  6.432769702E+01  0.000000000E+00  0.00000E+00  9.000E+00
      21    -1     0     0   511   502  0.000000000E+00  0.000000000E+00 -9.710125139E+02  9.710125139E+02  0.000000000E+00  0.00000E+00  9.000E+00
      25     1     1     2     0     0  1.822912761E+02 -3.398248522E+01 -4.471568493E+02  4.999591648E+02  1.250000000E+02  0.00000E+00  9.000E+00
      25     1     1     2     0     0 -1.924822492E+02 -4.217143053E+00 -3.464942770E+02  4.156326317E+02  1.250000000E+02  0.00000E+00  9.000E+00
      21     1     1     2   511   501  1.019097317E+01  3.819962827E+01 -1.130336906E+02  1.197484144E+02  0.000000000E+00  0.00000E+00  9.000E+00
#rwgt            1           1   3.7303920887098309E-002           3       86512           0
</event>
<event>
      5   9999  3.79277E-02  2.71789E+02 -1.00000E+00  1.07005E-01
      21    -1     0     0   502   501  0.000000000E+00  0.000000000E+00  2.762499392E+03  2.762499392E+03  0.000000000E+00  0.00000E+00  9.000E+00
       2    -1     0     0   501     0  0.000000000E+00  0.000000000E+00 -4.050876089E+02  4.050876089E+02  0.000000000E+00  0.00000E+00  9.000E+00
      25     1     1     2     0     0  2.193307210E+02 -1.206387800E+01  8.169036658E+02  8.551070703E+02  1.250000000E+02  0.00000E+00  9.000E+00
      25     1     1     2     0     0 -9.976229355E+01 -2.320110017E+02  1.866727311E+03  1.887876446E+03  1.250000000E+02  0.00000E+00  9.000E+00
       2     1     1     2   502     0 -1.195684275E+02  2.440748797E+02 -3.262191947E+02  4.246034841E+02  1.078959322E-05  0.00000E+00  9.000E+00
#rwgt            1           1   7.7346319316622503E-002           3       86675           0
</event>
<event>
      5   9999 -3.79277E-02  9.01779E+01 -1.00000E+00  1.25882E-01
       2    -1     0     0   502     0  0.000000000E+00  0.000000000E+00  2.619784501E+02  2.619784501E+02  0.000000000E+00  0.00000E+00  9.000E+00
      21    -1     0     0   501   502  0.000000000E+00  0.000000000E+00 -3.345595794E+02  3.345595794E+02  0.000000000E+00  0.00000E+00  9.000E+00
      25     1     1     2     0     0  8.502642990E+00 -7.624227617E+01  1.481235831E+02  2.084484960E+02  1.250000000E+02  0.00000E+00  9.000E+00
      25     1     1     2     0     0  7.749416735E+01  4.910181376E+01 -2.492148481E+02  2.935121370E+02  1.250000000E+02  0.00000E+00  9.000E+00
       2     1     1     2   501     0 -8.599681034E+01  2.714046241E+01  2.851013570E+01  9.457739648E+01  8.259061849E-07  0.00000E+00  9.000E+00
#rwgt            1           1  -4.2651182201173046E-003           3       86769           0
</event>
<event>
      5   9999  3.79277E-02  6.84086E+00 -1.00000E+00  2.16975E-01
      21    -1     0     0   502   511  0.000000000E+00  0.000000000E+00  8.461338373E+01  8.461338373E+01  0.000000000E+00  0.00000E+00  9.000E+00
      21    -1     0     0   501   502  0.000000000E+00  0.000000000E+00 -3.084292774E+02  3.084292774E+02  0.000000000E+00  0.00000E+00  9.000E+00
      25     1     1     2     0     0  9.551781837E+01  6.380915431E+00 -9.751956581E+01  1.852010676E+02  1.250000000E+02  0.00000E+00  9.000E+00
      25     1     1     2     0     0 -9.512686960E+01  4.487620427E-01 -1.252889496E+02  2.009269608E+02  1.250000000E+02  0.00000E+00  9.000E+00
      21     1     1     2   501   511 -3.909487646E-01 -6.829677474E+00 -1.007378340E+00  6.914632778E+00  9.064022497E-08  0.00000E+00  9.000E+00
#rwgt            1           1   4.2179258273190898E-002           3       87156           0
</event>
<event>
      5   9999 -3.79277E-02  1.11770E+01 -1.00000E+00  1.90332E-01
      21    -1     0     0   502   501  0.000000000E+00  0.000000000E+00  2.949713061E+02  2.949713061E+02  0.000000000E+00  0.00000E+00  9.000E+00
      21    -1     0     0   501   512  0.000000000E+00  0.000000000E+00 -4.714676161E+02  4.714676161E+02  0.000000000E+00  0.00000E+00  9.000E+00
      25     1     1     2     0     0  4.596261866E+01 -2.159493233E+01  2.547685112E+02  2.882896074E+02  1.250000000E+02  0.00000E+00  9.000E+00
      25     1     1     2     0     0 -5.684193382E+01  2.415743497E+01 -1.851258281E+02  2.317566813E+02  1.250000000E+02  0.00000E+00  9.000E+00
      21     1     1     2   502   512  1.087931516E+01 -2.562502638E+00 -2.461389931E+02  2.463926335E+02  0.000000000E+00  0.00000E+00  9.000E+00
#rwgt            1           1  -2.4198614484393317E-002           3       87512           0
</event>
<event>
      5   9999  3.79277E-02  1.63079E+01 -1.00000E+00  1.74030E-01
      21    -1     0     0   511   501  0.000000000E+00  0.000000000E+00  1.615562311E+02  1.615562311E+02  0.000000000E+00  0.00000E+00  9.000E+00
      21    -1     0     0   501   502  0.000000000E+00  0.000000000E+00 -2.440225099E+02  2.440225099E+02  0.000000000E+00  0.00000E+00  9.000E+00
      25     1     1     2     0     0  1.360253281E+02 -1.307380774E+00 -8.139844942E+01  2.018794360E+02  1.250000000E+02  0.00000E+00  9.000E+00
      25     1     1     2     0     0 -1.375975313E+02  1.753928172E+01 -5.483806400E+00  1.868041198E+02  1.250000000E+02  0.00000E+00  9.000E+00
      21     1     1     2   511   502  1.572203230E+00 -1.623190094E+01  4.415977016E+00  1.689518524E+01  1.788139343E-07  0.00000E+00  9.000E+00
#rwgt            1           1   3.9081324261673732E-002           3       87812           0
</event>
<event>
      5   9999  3.79277E-02  5.81306E+01 -1.00000E+00  1.35442E-01
      21    -1     0     0   502   512  0.000000000E+00  0.000000000E+00  5.133899256E+02  5.133899256E+02  0.000000000E+00  0.00000E+00  9.000E+00
      21    -1     0     0   501   502  0.000000000E+00  0.000000000E+00 -1.039883089E+02  1.039883089E+02  0.000000000E+00  0.00000E+00  9.000E+00
      25     1     1     2     0     0 -1.141815814E+02 -1.880242243E+01  3.162683404E+02  3.592236459E+02  1.250000000E+02  0.00000E+00  9.000E+00
      25     1     1     2     0     0  8.246068583E+01 -2.991055914E+01  5.264539690E+00  1.527976493E+02  1.250000000E+02  0.00000E+00  9.000E+00
      21     1     1     2   501   512  3.172089560E+01  4.871298157E+01  8.786873656E+01  1.053569393E+02  1.907348633E-06  0.00000E+00  9.000E+00
#rwgt            1           1   4.1004869721180184E-002           3       88024           0
</event>
<event>
      5   9999  3.79277E-02  8.59590E+01 -1.00000E+00  1.26857E-01
      -1    -1     0     0     0   501  0.000000000E+00  0.000000000E+00  1.947189607E+02  1.947189607E+02  0.000000000E+00  0.00000E+00  9.000E+00
      21    -1     0     0   501   502  0.000000000E+00  0.000000000E+00 -6.529599418E+02  6.529599418E+02  0.000000000E+00  0.00000E+00  9.000E+00
      25     1     1     2     0     0  1.056853954E+02  4.061342088E+01 -5.306611255E+02  5.568169204E+02  1.250000000E+02  0.00000E+00  9.000E+00
      25     1     1     2     0     0 -3.284944420E+01  5.036034272E+00 -5.219390696E+01  1.394763476E+02  1.250000000E+02  0.00000E+00  9.000E+00
      -1     1     1     2     0   502 -7.283595116E+01 -4.564945516E+01  1.246140513E+02  1.513856345E+02  1.348699152E-06  0.00000E+00  9.000E+00
#rwgt            1           1   4.4882564567410042E-002           3       88102           0
</event>
<event>
      5   9999  3.79277E-02  1.81444E+02 -1.00000E+00  1.13209E-01
      21    -1     0     0   502   501  0.000000000E+00  0.000000000E+00  1.102329458E+02  1.102329458E+02  0.000000000E+00  0.00000E+00  9.000E+00
      21    -1     0     0   511   502  0.000000000E+00  0.000000000E+00 -1.261280820E+03  1.261280820E+03  0.000000000E+00  0.00000E+00  9.000E+00
      25     1     1     2     0     0  1.180680926E+02 -9.740514947E+01 -2.999922057E+01  1.998819424E+02  1.250000000E+02  0.00000E+00  9.000E+00
      25     1     1     2     0     0 -6.311387128E+01 -7.551703931E+01 -5.272043096E+02  5.506864516E+02  1.250000000E+02  0.00000E+00  9.000E+00
      21     1     1     2   511   501 -5.495422137E+01  1.729221888E+02 -5.938443445E+02  6.209453722E+02  7.629394531E-06  0.00000E+00  9.000E+00
#rwgt            1           1   3.3203327348152116E-002           3       88141           0
</event>
<event>
      5   9999  3.79277E-02  3.82984E+01 -1.00000E+00  1.46021E-01
      21    -1     0     0   502   501  0.000000000E+00  0.000000000E+00  1.323529757E+02  1.323529757E+02  0.000000000E+00  0.00000E+00  9.000E+00
      21    -1     0     0   501   512  0.000000000E+00  0.000000000E+00 -3.714243777E+02  3.714243777E+02  0.000000000E+00  0.00000E+00  9.000E+00
      25     1     1     2     0     0 -6.923356224E+01  7.128723131E-01 -3.575420068E-01  1.428947940E+02  1.250000000E+02  0.00000E+00  9.000E+00
      25     1     1     2     0     0  1.075244312E+02 -1.470030950E+00 -5.591141816E+01  1.741113177E+02  1.250000000E+02  0.00000E+00  9.000E+00
      21     1     1     2   502   512 -3.829086891E+01  7.571586364E-01 -1.828024419E+02  1.867712416E+02  0.000000000E+00  0.00000E+00  9.000E+00
#rwgt            1           1   3.5900477267964685E-002           3       88177           0
</event>
<event>
      5   9999  3.79277E-02  6.80134E+01 -1.00000E+00  1.31857E-01
      21    -1     0     0   502   501  0.000000000E+00  0.000000000E+00  8.722977368E+02  8.722977368E+02  0.000000000E+00  0.00000E+00  9.000E+00
      -2    -1     0     0     0   502  0.000000000E+00  0.000000000E+00 -7.318907040E+01  7.318907040E+01  0.000000000E+00  0.00000E+00  9.000E+00
      25     1     1     2     0     0 -3.742915355E+01 -3.604012565E+01  5.011199068E+02  5.190818752E+02  1.250000000E+02  0.00000E+00  9.000E+00
      25     1     1     2     0     0  5.548907526E+01  1.016119417E+02  3.133528356E+02  3.566777589E+02  1.250000000E+02  0.00000E+00  9.000E+00
      -2     1     1     2     0   501 -1.805992170E+01 -6.557181607E+01 -1.536407592E+01  6.972717306E+01  1.369610464E-06  0.00000E+00  9.000E+00
#rwgt            1           1   4.2597762280432591E-002           3       88342           0
</event>
<event>
      5   9999  3.79277E-02  2.81120E+01 -1.00000E+00  1.55027E-01
      21    -1     0     0   502   501  0.000000000E+00  0.000000000E+00  1.410408855E+03  1.410408855E+03  0.000000000E+00  0.00000E+00  9.000E+00
      21    -1     0     0   511   502  0.000000000E+00  0.000000000E+00 -2.256829731E+02  2.256829731E+02  0.000000000E+00  0.00000E+00  9.000E+00
      25     1     1     2     0     0 -1.005655056E+02 -3.030142403E+01  9.778104274E+02  9.913474816E+02  1.250000000E+02  0.00000E+00  9.000E+00
      25     1     1     2     0     0  1.151749672E+02  6.283717148E+00  4.078278339E+02  4.418747564E+02  1.250000000E+02  0.00000E+00  9.000E+00
      21     1     1     2   511   501 -1.460946166E+01  2.401770689E+01 -2.009123792E+02  2.028695905E+02  4.672030912E-06  0.00000E+00  9.000E+00
#rwgt            1           1   4.6607264612647067E-002           3       88393           0
</event>
<event>
      5   9999  3.79277E-02  1.87691E+02 -1.00000E+00  1.12662E-01
      21    -1     0     0   502   501  0.000000000E+00  0.000000000E+00  2.483063759E+02  2.483063759E+02  0.000000000E+00  0.00000E+00  9.000E+00
      21    -1     0     0   501   512  0.000000000E+00  0.000000000E+00 -1.791956317E+03  1.791956317E+03  0.000000000E+00  0.00000E+00  9.000E+00
      25     1     1     2     0     0 -1.588360374E+02 -1.258261229E+02  1.029790368E+02  2.594046684E+02  1.250000000E+02  0.00000E+00  9.000E+00
      25     1     1     2     0     0  8.159281011E+01 -4.523319611E+01 -3.697510582E+01  1.602984315E+02  1.250000000E+02  0.00000E+00  9.000E+00
      21     1     1     2   502   512  7.724322731E+01  1.710593190E+02 -1.609653872E+03  1.620559593E+03  3.051757812E-05  0.00000E+00  9.000E+00
#rwgt            1           1   4.3408625533079538E-002           3       88495           0
</event>
<event>
      5   9999  3.79277E-02  1.43028E+02  7.55638E-03  1.17219E-01
      -2    -1     0     0     0   501  0.000000000E+00  0.000000000E+00  2.713069083E+02  2.713069083E+02  0.000000000E+00  0.00000E+00  9.000E+00
       2    -1     0     0   502     0  0.000000000E+00  0.000000000E+00 -3.013170190E+02  3.013170190E+02  0.000000000E+00  0.00000E+00  9.000E+00
      25     1     1     2     0     0 -1.154141695E+02 -1.433744932E+02  8.541720405E+01  2.383228369E+02  1.250000000E+02  0.00000E+00  9.000E+00
      25     1     1     2     0     0 -1.583767244E+01  8.654099274E+01 -1.149775498E+02  1.912720896E+02  1.250000000E+02  0.00000E+00  9.000E+00
      21     1     1     2   502   501  1.312518420E+02  5.683350051E+01 -4.497648649E-01  1.430290009E+02  2.159383408E-06  0.00000E+00  9.000E+00
#rwgt            3           4   2.7657381259879505E-005           3       88593           0
</event>
<event>
      5   9999  3.79277E-02  2.24631E+01 -1.00000E+00  1.62312E-01
      21    -1     0     0   511   501  0.000000000E+00  0.000000000E+00  7.683154083E+02  7.683154083E+02  0.000000000E+00  0.00000E+00  9.000E+00
      21    -1     0     0   501   502  0.000000000E+00  0.000000000E+00 -7.276824167E+01  7.276824167E+01  0.000000000E+00  0.00000E+00  9.000E+00
      25     1     1     2     0     0 -3.630479719E+00 -1.765458100E+02  3.328215033E+02  3.969593889E+02  1.250000000E+02  0.00000E+00  9.000E+00
      25     1     1     2     0     0  1.848820993E+01  1.596982367E+02  2.205606086E+02  3.001954742E+02  1.250000000E+02  0.00000E+00  9.000E+00
      21     1     1     2   511   502 -1.485773021E+01  1.684757327E+01  1.421650548E+02  1.439287868E+02  0.000000000E+00  0.00000E+00  9.000E+00
#rwgt            1           1   4.6982284253464700E-002           3       88687           0
</event>
<event>
      5   9999  3.79277E-02  3.86039E+01 -1.00000E+00  1.45804E-01
      21    -1     0     0   502   501  0.000000000E+00  0.000000000E+00  1.161743038E+03  1.161743038E+03  0.000000000E+00  0.00000E+00  9.000E+00
       5    -1     0     0   501     0  0.000000000E+00  0.000000000E+00 -6.081852740E+01  6.081852740E+01  0.000000000E+00  0.00000E+00  9.000E+00
      25     1     1     2     0     0 -1.310546558E+02  2.631974262E+01  8.273108984E+02  8.473112617E+02  1.250000000E+02  0.00000E+00  9.000E+00
      25     1     1     2     0     0  9.245431689E+01 -2.579369622E+01  2.925133134E+02  3.322681959E+02  1.250000000E+02  0.00000E+00  9.000E+00
       5     1     1     2   502     0  3.860033889E+01 -5.260464003E-01 -1.889970117E+01  4.298210781E+01  1.768159506E-06  0.00000E+00  9.000E+00
#rwgt            1           1  0.10376267062963226                3       88820           0
</event>
<event>
      5   9999  3.79277E-02  8.35701E+01 -1.00000E+00  1.27438E-01
      21    -1     0     0   502   511  0.000000000E+00  0.000000000E+00  5.217004824E+02  5.217004824E+02  0.000000000E+00  0.00000E+00  9.000E+00
      21    -1     0     0   501   502  0.000000000E+00  0.000000000E+00 -3.352882327E+02  3.352882327E+02  0.000000000E+00  0.00000E+00  9.000E+00
      25     1     1     2     0     0  5.574601456E+01  1.759234475E+02  1.375851270E+02  2.619376733E+02  1.250000000E+02  0.00000E+00  9.000E+00
      25     1     1     2     0     0 -7.453628589E+01 -2.573536802E+02 -1.836222675E+02  3.480355036E+02  1.250000000E+02  0.00000E+00  9.000E+00
      21     1     1     2   501   511  1.879027133E+01  8.143023270E+01  2.324493902E+02  2.470155382E+02  3.814697266E-06  0.00000E+00  9.000E+00
#rwgt            1           1   4.1179518522662675E-002           3       88923           0
</event>
<event>
      5   9999  3.79277E-02  3.02850E+01 -1.00000E+00  1.52755E-01
      21    -1     0     0   502   512  0.000000000E+00  0.000000000E+00  4.800876006E+01  4.800876006E+01  0.000000000E+00  0.00000E+00  9.000E+00
      21    -1     0     0   501   502  0.000000000E+00  0.000000000E+00 -1.078071643E+03  1.078071643E+03  0.000000000E+00  0.00000E+00  9.000E+00
      25     1     1     2     0     0 -8.648626310E+01  2.297724201E+01 -8.072801134E+02  8.217870824E+02  1.250000000E+02  0.00000E+00  9.000E+00
      25     1     1     2     0     0  1.052378795E+02 -4.675874067E+01 -1.548837947E+02  2.299464741E+02  1.250000000E+02  0.00000E+00  9.000E+00
      21     1     1     2   501   512 -1.875161637E+01  2.378149865E+01 -6.789897449E+01  7.434684614E+01  0.000000000E+00  0.00000E+00  9.000E+00
#rwgt            1           1   3.7641241166737102E-002           3       89084           0
</event>
<event>
      5   9999  3.79277E-02  6.67591E+01 -1.00000E+00  1.32272E-01
      21    -1     0     0   511   501  0.000000000E+00  0.000000000E+00  8.167105204E+02  8.167105204E+02  0.000000000E+00  0.00000E+00  9.000E+00
      21    -1     0     0   501   502  0.000000000E+00  0.000000000E+00 -8.570819619E+01  8.570819619E+01  0.000000000E+00  0.00000E+00  9.000E+00
      25     1     1     2     0     0 -5.589336375E+01  3.516946010E+01 -9.889145622E-01  1.413751640E+02  1.250000000E+02  0.00000E+00  9.000E+00
      25     1     1     2     0     0  4.924772292E+01  3.125803653E+01  5.548707072E+02  5.717594816E+02  1.250000000E+02  0.00000E+00  9.000E+00
      21     1     1     2   511   502  6.645640831E+00 -6.642749663E+01  1.771205315E+02  1.892840710E+02  1.907348633E-06  0.00000E+00  9.000E+00
#rwgt            1           1   3.3517429956555711E-002           3       89159           0
</event>
<event>
      5   9999  3.79277E-02  7.52077E+01 -1.00000E+00  1.29662E-01
      21    -1     0     0   502   512  0.000000000E+00  0.000000000E+00  9.872645664E+02  9.872645664E+02  0.000000000E+00  0.00000E+00  9.000E+00
      21    -1     0     0   501   502  0.000000000E+00  0.000000000E+00 -2.630552038E+02  2.630552038E+02  0.000000000E+00  0.00000E+00  9.000E+00
      25     1     1     2     0     0 -1.874874955E+02 -7.677823876E+01 -1.510060163E+02  2.819118229E+02  1.250000000E+02  0.00000E+00  9.000E+00
      25     1     1     2     0     0  1.212709167E+02  4.111927913E+01  1.344348530E+02  2.238194810E+02  1.250000000E+02  0.00000E+00  9.000E+00
      21     1     1     2   501   512  6.621657876E+01  3.565895963E+01  7.407805259E+02  7.445884664E+02  1.525878906E-05  0.00000E+00  9.000E+00
#rwgt            1           1   4.6956520796245134E-002           3       89300           0
</event>
<event>
      5   9999  3.79277E-02  5.52813E+01 -1.00000E+00  1.36632E-01
      21    -1     0     0   511   501  0.000000000E+00  0.000000000E+00  5.558471651E+02  5.558471651E+02  0.000000000E+00  0.00000E+00  9.000E+00
      21    -1     0     0   501   502  0.000000000E+00  0.000000000E+00 -7.937241342E+02  7.937241342E+02  0.000000000E+00  0.00000E+00  9.000E+00
      25     1     1     2     0     0  4.378748843E+00  6.117576573E+01 -5.797666821E+01  1.508242083E+02  1.250000000E+02  0.00000E+00  9.000E+00
      25     1     1     2     0     0  4.325753700E+01 -3.312574600E+01 -6.810454906E+02  6.945620849E+02  1.250000000E+02  0.00000E+00  9.000E+00
      21     1     1     2   511   502 -4.763628584E+01 -2.805001973E+01  5.011451897E+02  5.041850062E+02  5.394796609E-06  0.00000E+00  9.000E+00
#rwgt            1           1   3.5172894746854810E-002           3       89389           0
</event>
<event>
      5   9999  3.79277E-02  2.05572E+01 -1.00000E+00  1.65390E-01
      21    -1     0     0   502   501  0.000000000E+00  0.000000000E+00  7.933954406E+02  7.933954406E+02  0.000000000E+00  0.00000E+00  9.000E+00
      21    -1     0     0   512   502  0.000000000E+00  0.000000000E+00 -7.964375911E+01  7.964375911E+01  0.000000000E+00  0.00000E+00  9.000E+00
      25     1     1     2     0     0  3.076246899E+01  1.926859912E+02  4.864594621E+02  5.388339531E+02  1.250000000E+02  0.00000E+00  9.000E+00
      25     1     1     2     0     0 -2.366700026E+01 -1.733921434E+02  2.282769224E+02  3.136244819E+02  1.250000000E+02  0.00000E+00  9.000E+00
      21     1     1     2   512   501 -7.095468734E+00 -1.929384775E+01 -9.847030834E-01  2.058076475E+01  2.885597457E-07  0.00000E+00  9.000E+00
#rwgt            1           1   3.7171756026790646E-002           3       89502           0
</event>
<event>
      5   9999  3.79277E-02  8.87342E+00 -1.00000E+00  2.01956E-01
      21    -1     0     0   502   501  0.000000000E+00  0.000000000E+00  6.840094191E+02  6.840094191E+02  0.000000000E+00  0.00000E+00  9.000E+00
      21    -1     0     0   501   511  0.000000000E+00  0.000000000E+00 -2.511228106E+02  2.511228106E+02  0.000000000E+00  0.00000E+00  9.000E+00
      25     1     1     2     0     0 -1.988589891E+02 -1.784701250E+02 -7.627672160E+01  3.046959490E+02  1.250000000E+02  0.00000E+00  9.000E+00
      25     1     1     2     0     0  1.994744242E+02  1.873221759E+02  5.290814055E+02  6.086310682E+02  1.250000000E+02  0.00000E+00  9.000E+00
      21     1     1     2   502   511 -6.154350637E-01 -8.852050971E+00 -1.991807536E+01  2.180521251E+01  2.384185791E-07  0.00000E+00  9.000E+00
#rwgt            1           1   5.4730551239637576E-002           3       89678           0
</event>
<event>
      5   9999  3.79277E-02  1.55565E+01 -1.00000E+00  1.75906E-01
      21    -1     0     0   502   512  0.000000000E+00  0.000000000E+00  2.289797508E+02  2.289797508E+02  0.000000000E+00  0.00000E+00  9.000E+00
      21    -1     0     0   501   502  0.000000000E+00  0.000000000E+00 -1.753614769E+02  1.753614769E+02  0.000000000E+00  0.00000E+00  9.000E+00
      25     1     1     2     0     0  4.290202283E+01  1.137748064E+02  2.181223912E+01  1.757443140E+02  1.250000000E+02  0.00000E+00  9.000E+00
      25     1     1     2     0     0 -5.552633643E+01 -1.228650229E+02 -9.858666364E+00  1.841227341E+02  1.250000000E+02  0.00000E+00  9.000E+00
      21     1     1     2   501   512  1.262431360E+01  9.090216522E+00  4.166470110E+01  4.447417956E+01  0.000000000E+00  0.00000E+00  9.000E+00
#rwgt            1           1   4.3216554158923046E-002           3       90008           0
</event>
<event>
      5   9999  3.79277E-02  1.94404E+01 -1.00000E+00  1.67392E-01
      21    -1     0     0   511   501  0.000000000E+00  0.000000000E+00  2.455440013E+02  2.455440013E+02  0.000000000E+00  0.00000E+00  9.000E+00
      21    -1     0     0   501   502  0.000000000E+00  0.000000000E+00 -4.593479195E+02  4.593479195E+02  0.000000000E+00  0.00000E+00  9.000E+00
      25     1     1     2     0     0  1.634437911E+02 -1.432603557E+02  9.560663397E+01  2.683338048E+02  1.250000000E+02  0.00000E+00  9.000E+00
      25     1     1     2     0     0 -1.447968767E+02  1.377628949E+02 -3.317310686E+02  4.069585391E+02  1.250000000E+02  0.00000E+00  9.000E+00
      21     1     1     2   511   502 -1.864691448E+01  5.497460761E+00  2.232051637E+01  2.959957678E+01  4.129530925E-07  0.00000E+00  9.000E+00
#rwgt            1           1   3.6352961852763772E-002           3       90433           0
</event>
<event>
      5   9999  3.79277E-02  2.11375E+02 -1.00000E+00  1.10780E-01
      21    -1     0     0   512   501  0.000000000E+00  0.000000000E+00  1.580367342E+03  1.580367342E+03  0.000000000E+00  0.00000E+00  9.000E+00
      21    -1     0     0   501   502  0.000000000E+00  0.000000000E+00 -2.151851921E+02  2.151851921E+02  0.000000000E+00  0.00000E+00  9.000E+00
      25     1     1     2     0     0 -2.579906396E+02 -9.750672371E+01 -5.077496176E+01  3.070339200E+02  1.250000000E+02  0.00000E+00  9.000E+00
      25     1     1     2     0     0  4.693284357E+01  1.090814635E+02  2.508212747E+02  3.043645336E+02  1.250000000E+02  0.00000E+00  9.000E+00
      21     1     1     2   512   502  2.110577960E+02 -1.157473978E+01  1.165135837E+03  1.184154081E+03  2.157918644E-05  0.00000E+00  9.000E+00
#rwgt            1           1   3.8912932032356927E-002           3       90658           0
</event>
<event>
      5   9999  3.79277E-02  6.01775E+01 -1.00000E+00  1.34635E-01
      21    -1     0     0   511   501  0.000000000E+00  0.000000000E+00  5.263767555E+02  5.263767555E+02  0.000000000E+00  0.00000E+00  9.000E+00
      21    -1     0     0   501   502  0.000000000E+00  0.000000000E+00 -2.324238737E+02  2.324238737E+02  0.000000000E+00  0.00000E+00  9.000E+00
      25     1     1     2     0     0  2.365420337E+02 -5.766167314E+01  9.755913978E+01  2.905508355E+02  1.250000000E+02  0.00000E+00  9.000E+00
      25     1     1     2     0     0 -2.099967168E+02  3.655431794E+00 -1.847934295E+01  2.451090969E+02  1.250000000E+02  0.00000E+00  9.000E+00
      21     1     1     2   511   502 -2.654531692E+01  5.400624134E+01  2.148730850E+02  2.231406968E+02  3.814697266E-06  0.00000E+00  9.000E+00
#rwgt            1           1   4.0191868718074036E-002           3       90702           0
</event>
<event>
      5   9999  3.79277E-02  1.47213E+02 -1.00000E+00  1.16717E-01
      21    -1     0     0   512   501  0.000000000E+00  0.000000000E+00  1.450444526E+03  1.450444526E+03  0.000000000E+00  0.00000E+00  9.000E+00
      21    -1     0     0   501   502  0.000000000E+00  0.000000000E+00 -1.263774259E+02  1.263774259E+02  0.000000000E+00  0.00000E+00  9.000E+00
      25     1     1     2     0     0  2.099931910E+02 -9.424771958E+01  3.097287803E+02  4.056312245E+02  1.250000000E+02  0.00000E+00  9.000E+00
      25     1     1     2     0     0 -3.116219597E+02  2.007520577E+02  4.923603603E+02  6.288508240E+02  1.250000000E+02  0.00000E+00  9.000E+00
      21     1     1     2   512   502  1.016287687E+02 -1.065043382E+02  5.219779590E+02  5.423399030E+02  0.000000000E+00  0.00000E+00  9.000E+00
#rwgt            1           1   9.1721866940155258E-002           3       90800           0
</event>
<event>
      5   9999  3.79277E-02  3.53069E+01 -1.00000E+00  1.48284E-01
      21    -1     0     0   502   511  0.000000000E+00  0.000000000E+00  5.066264331E+02  5.066264331E+02  0.000000000E+00  0.00000E+00  9.000E+00
      21    -1     0     0   501   502  0.000000000E+00  0.000000000E+00 -1.519179525E+02  1.519179525E+02  0.000000000E+00  0.00000E+00  9.000E+00
      25     1     1     2     0     0 -2.772772295E+01 -1.275693784E+02  2.987952106E+02  3.492081769E+02  1.250000000E+02  0.00000E+00  9.000E+00
      25     1     1     2     0     0  5.773261214E+01  1.461780554E+02 -4.208120616E+01  2.051753063E+02  1.250000000E+02  0.00000E+00  9.000E+00
      21     1     1     2   501   511 -3.000488920E+01 -1.860867701E+01  9.799447622E+01  1.041609025E+02  1.907348633E-06  0.00000E+00  9.000E+00
#rwgt            1           1   4.4132778343187067E-002           3       90840           0
</event>
<event>
      5   9999  3.79277E-02  3.94612E+01 -1.00000E+00  1.45206E-01
      21    -1     0     0   502   501  0.000000000E+00  0.000000000E+00  8.692666097E+02  8.692666097E+02  0.000000000E+00  0.00000E+00  9.000E+00
       3    -1     0     0   501     0  0.000000000E+00  0.000000000E+00 -1.066660485E+02  1.066660485E+02  0.000000000E+00  0.00000E+00  9.000E+00
      25     1     1     2     0     0  3.489783335E+01 -1.649316744E+02  6.115427144E+02  6.465522466E+02  1.250000000E+02  0.00000E+00  9.000E+00
      25     1     1     2     0     0 -3.353432622E+01  2.043693044E+02  1.585274804E+02  2.892184739E+02  1.250000000E+02  0.00000E+00  9.000E+00
       3     1     1     2   502     0 -1.363507130E+00 -3.943762996E+01 -7.469633606E+00  4.016193763E+01  2.528810911E-07  0.00000E+00  9.000E+00
#rwgt            2          14   7.6381316361839092E-006           3       90918           0
</event>
<event>
      5   9999  3.79277E-02  4.55745E+01 -1.00000E+00  1.41411E-01
      21    -1     0     0   502   501  0.000000000E+00  0.000000000E+00  4.480640951E+02  4.480640951E+02  0.000000000E+00  0.00000E+00  9.000E+00
      21    -1     0     0   511   502  0.000000000E+00  0.000000000E+00 -1.261460458E+02  1.261460458E+02  0.000000000E+00  0.00000E+00  9.000E+00
      25     1     1     2     0     0 -1.175242546E+01  1.638111775E+02  1.344211022E+02  2.463052051E+02  1.250000000E+02  0.00000E+00  9.000E+00
      25     1     1     2     0     0  5.558465841E+01 -1.762919833E+02  1.612924498E+02  2.753339281E+02  1.250000000E+02  0.00000E+00  9.000E+00
      21     1     1     2   511   501 -4.383223295E+01  1.248080577E+01  2.620449743E+01  5.257100764E+01  0.000000000E+00  0.00000E+00  9.000E+00
#rwgt            1           1   3.4770660400239996E-002           3       90937           0
</event>
<event>
      5   9999  3.79277E-02  1.10534E+01 -1.00000E+00  1.90860E-01
      21    -1     0     0   502   512  0.000000000E+00  0.000000000E+00  5.085077545E+02  5.085077545E+02  0.000000000E+00  0.00000E+00  9.000E+00
      21    -1     0     0   501   502  0.000000000E+00  0.000000000E+00 -1.398936888E+02  1.398936888E+02  0.000000000E+00  0.00000E+00  9.000E+00
      25     1     1     2     0     0  1.310076891E+02 -1.293016118E+02  2.936261137E+02  3.684063193E+02  1.250000000E+02  0.00000E+00  9.000E+00
      25     1     1     2     0     0 -1.367276088E+02  1.387599799E+02  2.967633056E+01  2.333547849E+02  1.250000000E+02  0.00000E+00  9.000E+00
      21     1     1     2   501   512  5.719919642E+00 -9.458368133E+00  4.531162137E+01  4.664033919E+01  6.743495762E-07  0.00000E+00  9.000E+00
#rwgt            1           1   3.1143557993943412E-002           3       91278           0
</event>
<event>
      5   9999  3.79277E-02  1.93670E+01 -1.00000E+00  1.67530E-01
      21    -1     0     0   502   501  0.000000000E+00  0.000000000E+00  4.252561528E+01  4.252561528E+01  0.000000000E+00  0.00000E+00  9.000E+00
      21    -1     0     0   501   511  0.000000000E+00  0.000000000E+00 -8.425960702E+02  8.425960702E+02  0.000000000E+00  0.00000E+00  9.000E+00
      25     1     1     2     0     0 -7.818720242E+01 -7.085585236E+01 -2.225410698E+02  2.761943486E+02  1.250000000E+02  0.00000E+00  9.000E+00
      25     1     1     2     0     0  9.754778525E+01  7.035647088E+01 -5.112997071E+02  5.399240631E+02  1.250000000E+02  0.00000E+00  9.000E+00
      21     1     1     2   502   511 -1.936058283E+01  4.993814845E-01 -6.622967792E+01  6.900327374E+01  0.000000000E+00  0.00000E+00  9.000E+00
#rwgt            1           1   3.7748007328549597E-002           3       91538           0
</event>
<event>
      5   9999  3.79277E-02  4.76742E+01 -1.00000E+00  1.40266E-01
      21    -1     0     0   512   501  0.000000000E+00  0.000000000E+00  6.082185980E+01  6.082185980E+01  0.000000000E+00  0.00000E+00  9.000E+00
      21    -1     0     0   501   502  0.000000000E+00  0.000000000E+00 -1.628127343E+03  1.628127343E+03  0.000000000E+00  0.00000E+00  9.000E+00
      25     1     1     2     0     0  4.045195238E+01  3.566015598E+01 -1.648556281E+02  2.137998720E+02  1.250000000E+02  0.00000E+00  9.000E+00
      25     1     1     2     0     0 -8.324234970E+01 -1.464085689E+01 -1.417227233E+03  1.425237409E+03  1.250000000E+02  0.00000E+00  9.000E+00
      21     1     1     2   512   502  4.279039731E+01 -2.101929908E+01  1.477737750E+01  4.991192164E+01  0.000000000E+00  0.00000E+00  9.000E+00
#rwgt            1           1   4.9862308403789746E-002           3       91761           0
</event>
<event>
      5   9999  3.79277E-02  4.40357E+01 -1.00000E+00  1.42298E-01
      21    -1     0     0   502   501  0.000000000E+00  0.000000000E+00  1.295028128E+02  1.295028128E+02  0.000000000E+00  0.00000E+00  9.000E+00
      21    -1     0     0   501   511  0.000000000E+00  0.000000000E+00 -3.955016995E+02  3.955016995E+02  0.000000000E+00  0.00000E+00  9.000E+00
      25     1     1     2     0     0 -2.061202198E+01  7.979481463E+01 -1.951452468E+02  2.459649065E+02  1.250000000E+02  0.00000E+00  9.000E+00
      25     1     1     2     0     0  3.144090266E+01 -3.711130141E+01  5.555553687E+01  1.451798772E+02  1.250000000E+02  0.00000E+00  9.000E+00
      21     1     1     2   502   511 -1.082888068E+01 -4.268351322E+01 -1.264091769E+02  1.338597287E+02  2.336015456E-06  0.00000E+00  9.000E+00
#rwgt            1           1   5.0428616244095413E-002           3       91851           0
</event>
<event>
      5   9999  3.79277E-02  8.83815E+01 -1.00000E+00  1.26289E-01
      21    -1     0     0   502   501  0.000000000E+00  0.000000000E+00  1.442881361E+02  1.442881361E+02  0.000000000E+00  0.00000E+00  9.000E+00
      21    -1     0     0   501   512  0.000000000E+00  0.000000000E+00 -4.360654955E+02  4.360654955E+02  0.000000000E+00  0.00000E+00  9.000E+00
      25     1     1     2     0     0  1.753132089E+02 -5.630227475E-01 -2.297722447E+02  3.148893816E+02  1.250000000E+02  0.00000E+00  9.000E+00
      25     1     1     2     0     0 -8.853573035E+01 -1.619886297E+01  5.688156615E+00  1.541373862E+02  1.250000000E+02  0.00000E+00  9.000E+00
      21     1     1     2   502   512 -8.677747859E+01  1.676188572E+01 -6.769327134E+01  1.113268637E+02  1.651812370E-06  0.00000E+00  9.000E+00
#rwgt            1           1   6.0609712140798855E-002           3       92162           0
</event>
<event>
      5   9999  3.79277E-02  5.38213E+01 -1.00000E+00  1.37275E-01
      21    -1     0     0   502   511  0.000000000E+00  0.000000000E+00  8.062001746E+01  8.062001746E+01  0.000000000E+00  0.00000E+00  9.000E+00
      21    -1     0     0   501   502  0.000000000E+00  0.000000000E+00 -5.292969616E+02  5.292969616E+02  0.000000000E+00  0.00000E+00  9.000E+00
      25     1     1     2     0     0  1.338967382E+02  7.063641754E+01 -2.528187438E+02  3.200939818E+02  1.250000000E+02  0.00000E+00  9.000E+00
      25     1     1     2     0     0 -9.167099052E+01 -3.726403404E+01 -1.387531150E+02  2.113518528E+02  1.250000000E+02  0.00000E+00  9.000E+00
      21     1     1     2   501   511 -4.222574769E+01 -3.337238350E+01 -5.710508534E+01  7.847114451E+01  0.000000000E+00  0.00000E+00  9.000E+00
#rwgt            1           1   4.4839503152073704E-002           3       92218           0
</event>
<event>
      5   9999  3.79277E-02  1.25146E+01 -1.00000E+00  1.85131E-01
      21    -1     0     0   502   501  0.000000000E+00  0.000000000E+00  5.849628420E+01  5.849628420E+01  0.000000000E+00  0.00000E+00  9.000E+00
       1    -1     0     0   501     0  0.000000000E+00  0.000000000E+00 -1.257684374E+03  1.257684374E+03  0.000000000E+00  0.00000E+00  9.000E+00
      25     1     1     2     0     0 -4.592822478E+01  7.903094358E+01 -1.560836297E+02  2.198690322E+02  1.250000000E+02  0.00000E+00  9.000E+00
      25     1     1     2     0     0  4.885773637E+01 -6.686408926E+01 -1.850818978E+02  2.381978038E+02  1.250000000E+02  0.00000E+00  9.000E+00
       1     1     1     2   502     0 -2.929511591E+00 -1.216685432E+01 -8.580225619E+02  8.581138217E+02  1.868812365E-05  0.00000E+00  9.000E+00
#rwgt            1           1   2.7873314222157539E-002           3       92288           0
</event>
<event>
      5   9999  3.79277E-02  3.96957E+01 -1.00000E+00  1.45046E-01
      21    -1     0     0   502   511  0.000000000E+00  0.000000000E+00  4.497483780E+02  4.497483780E+02  0.000000000E+00  0.00000E+00  9.000E+00
      21    -1     0     0   501   502  0.000000000E+00  0.000000000E+00 -3.088622159E+02  3.088622159E+02  0.000000000E+00  0.00000E+00  9.000E+00
      25     1     1     2     0     0  6.911530175E+01 -6.460208805E+01 -2.492088882E+02  2.944153948E+02  1.250000000E+02  0.00000E+00  9.000E+00
      25     1     1     2     0     0 -8.962623953E+01  9.858807546E+01  2.037249635E+02  2.736445362E+02  1.250000000E+02  0.00000E+00  9.000E+00
      21     1     1     2   501   511  2.051093778E+01 -3.398598741E+01  1.863700868E+02  1.905506629E+02  3.814697266E-06  0.00000E+00  9.000E+00
#rwgt            1           1   3.8360096121407380E-002           3       92425           0
</event>
<event>
      5   9999  3.79277E-02  3.01821E+02 -1.00000E+00  1.05507E-01
      21    -1     0     0   512   501  0.000000000E+00  0.000000000E+00  2.557416529E+02  2.557416529E+02  0.000000000E+00  0.00000E+00  9.000E+00
      21    -1     0     0   501   502  0.000000000E+00  0.000000000E+00 -9.829212022E+02  9.829212022E+02  0.000000000E+00  0.00000E+00  9.000E+00
      25     1     1     2     0     0  2.010823933E+01  5.573081972E+01 -2.973202833E+01  1.414894309E+02  1.250000000E+02  0.00000E+00  9.000E+00
      25     1     1     2     0     0  1.097748676E+02  2.167136644E+02 -7.432734927E+02  7.918938179E+02  1.250000000E+02  0.00000E+00  9.000E+00
      21     1     1     2   512   502 -1.298831069E+02 -2.724444841E+02  4.582597169E+01  3.052796064E+02  6.397441800E-06  0.00000E+00  9.000E+00
#rwgt            2          11   1.5112576517363201E-003           3       92591           0
</event>
<event>
      5   9999  3.79277E-02  6.68876E+01 -1.00000E+00  1.32229E-01
      21    -1     0     0   502   511  0.000000000E+00  0.000000000E+00  1.774563594E+03  1.774563594E+03  0.000000000E+00  0.00000E+00  9.000E+00
      21    -1     0     0   501   502  0.000000000E+00  0.000000000E+00 -2.851123119E+02  2.851123119E+02  0.000000000E+00  0.00000E+00  9.000E+00
      25     1     1     2     0     0  1.467972483E+01 -4.257473427E+01  1.025888814E+02  1.678617911E+02  1.250000000E+02  0.00000E+00  9.000E+00
      25     1     1     2     0     0 -5.468541666E+01  9.617970194E+01 -2.241130428E+02  2.794506858E+02  1.250000000E+02  0.00000E+00  9.000E+00
      21     1     1     2   501   511  4.000569183E+01 -5.360496767E+01  1.610975443E+03  1.612363429E+03  2.157918644E-05  0.00000E+00  9.000E+00
#rwgt            1           1   5.1250224051743037E-002           3       92641           0
</event>
<event>
      5   9999  3.79277E-02  4.54808E+01 -1.00000E+00  1.41464E-01
      21    -1     0     0   512   501  0.000000000E+00  0.000000000E+00  6.304004860E+02  6.304004860E+02  0.000000000E+00  0.00000E+00  9.000E+00
      21    -1     0     0   501   502  0.000000000E+00  0.000000000E+00 -6.548478976E+01  6.548478976E+01  0.000000000E+00  0.00000E+00  9.000E+00
      25     1     1     2     0     0  7.484402628E+01  7.165537530E+01  9.683831369E+01  1.890470314E+02  1.250000000E+02  0.00000E+00  9.000E+00
      25     1     1     2     0     0 -2.938147030E+01 -7.294379750E+01  3.805415208E+02  4.081922555E+02  1.250000000E+02  0.00000E+00  9.000E+00
      21     1     1     2   512   502 -4.546255598E+01  1.288422197E+00  8.753586176E+01  9.864598888E+01  1.651812370E-06  0.00000E+00  9.000E+00
#rwgt            1           1   5.3399952875256410E-002           3       92700           0
</event>
<event>
      5   9999  3.79277E-02  8.69659E+01 -1.00000E+00  1.26619E-01
      21    -1     0     0   502   501  0.000000000E+00  0.000000000E+00  2.378342537E+02  2.378342537E+02  0.000000000E+00  0.00000E+00  9.000E+00
      21    -1     0     0   511   502  0.000000000E+00  0.000000000E+00 -3.097854547E+02  3.097854547E+02  0.000000000E+00  0.00000E+00  9.000E+00
      25     1     1     2     0     0  1.317586074E+02 -1.906777658E+01 -1.554284392E+02  2.398059850E+02  1.250000000E+02  0.00000E+00  9.000E+00
      25     1     1     2     0     0 -5.325764952E+01  5.649332719E+01  1.407960051E+02  2.036575270E+02  1.250000000E+02  0.00000E+00  9.000E+00
      21     1     1     2   511   501 -7.850095785E+01 -3.742555061E+01 -5.731876693E+01  1.041561965E+02  9.536743164E-07  0.00000E+00  9.000E+00
#rwgt            1           1   3.6270672184498455E-002           3       92959           0
</event>
<event>
      5   9999  3.79277E-02  2.53519E+01 -1.00000E+00  1.58298E-01
      21    -1     0     0   502   501  0.000000000E+00  0.000000000E+00  8.465232890E+01  8.465232890E+01  0.000000000E+00  0.00000E+00  9.000E+00
      21    -1     0     0   501   512  0.000000000E+00  0.000000000E+00 -1.824524675E+03  1.824524675E+03  0.000000000E+00  0.00000E+00  9.000E+00
      25     1     1     2     0     0  2.081441417E+01 -8.972413945E+01 -5.127007519E+02  5.356964831E+02  1.250000000E+02  0.00000E+00  9.000E+00
      25     1     1     2     0     0  4.515182284E+00  9.078625693E+01 -8.758691724E+00  1.548038953E+02  1.250000000E+02  0.00000E+00  9.000E+00
      21     1     1     2   502   512 -2.532959645E+01 -1.062117483E+00 -1.218412903E+03  1.218676626E+03  2.642899792E-05  0.00000E+00  9.000E+00
#rwgt            1           1   5.0381513914378659E-002           3       93127           0
</event>
<event>
      5   9999  3.79277E-02  1.11407E+02 -1.00000E+00  1.21754E-01
      21    -1     0     0   511   501  0.000000000E+00  0.000000000E+00  1.399312098E+03  1.399312098E+03  0.000000000E+00  0.00000E+00  9.000E+00
      21    -1     0     0   501   502  0.000000000E+00  0.000000000E+00 -6.261243128E+01  6.261243128E+01  0.000000000E+00  0.00000E+00  9.000E+00
      25     1     1     2     0     0 -9.083706537E+01  1.292269478E+02  6.908305132E+02  7.195990373E+02  1.250000000E+02  0.00000E+00  9.000E+00
      25     1     1     2     0     0  1.916304649E+02 -8.176873774E+01  3.490495670E+02  4.252869170E+02  1.250000000E+02  0.00000E+00  9.000E+00
      21     1     1     2   511   502 -1.007933995E+02 -4.745821002E+01  2.968195862E+02  3.170385747E+02  0.000000000E+00  0.00000E+00  9.000E+00
#rwgt            1           1   3.4515669646377707E-002           3       93506           0
</event>
<event>
      5   9999  3.79277E-02  2.72844E+01 -1.00000E+00  1.55958E-01
      21    -1     0     0   512   501  0.000000000E+00  0.000000000E+00  1.493214432E+02  1.493214432E+02  0.000000000E+00  0.00000E+00  9.000E+00
      21    -1     0     0   501   502  0.000000000E+00  0.000000000E+00 -8.016483016E+02  8.016483016E+02  0.000000000E+00  0.00000E+00  9.000E+00
      25     1     1     2     0     0  8.125315875E+01 -2.453479182E+02 -5.604117806E+02  6.296697870E+02  1.250000000E+02  0.00000E+00  9.000E+00
      25     1     1     2     0     0 -6.239236091E+01  2.256322569E+02 -1.113555739E+02  2.877981687E+02  1.250000000E+02  0.00000E+00  9.000E+00
      21     1     1     2   512   502 -1.886079784E+01  1.971566128E+01  1.944049603E+01  3.350178922E+01  0.000000000E+00  0.00000E+00  9.000E+00
#rwgt            1           1   3.6207212802420494E-002           3       93642           0
</event>
<event>
      5   9999  3.79277E-02  6.65846E+01 -1.00000E+00  1.32330E-01
      21    -1     0     0   511   501  0.000000000E+00  0.000000000E+00  6.865240876E+02  6.865240876E+02  0.000000000E+00  0.00000E+00  9.000E+00
      21    -1     0     0   501   502  0.000000000E+00  0.000000000E+00 -1.358194814E+02  1.358194814E+02  0.000000000E+00  0.00000E+00  9.000E+00
      25     1     1     2     0     0 -7.080290780E+01 -1.309810071E+02  1.203214004E+02  2.286292094E+02  1.250000000E+02  0.00000E+00  9.000E+00
      25     1     1     2     0     0  1.253785184E+02  9.283635957E+01  4.801735278E+01  2.055943305E+02  1.250000000E+02  0.00000E+00  9.000E+00
      21     1     1     2   511   502 -5.457561065E+01  3.814464756E+01  3.823658531E+02  3.881200291E+02  0.000000000E+00  0.00000E+00  9.000E+00
#rwgt            1           1   3.7042041305760137E-002           3       93909           0
</event>
<event>
      5   9999  3.79277E-02  8.11081E+01 -1.00000E+00  1.28061E-01
      21    -1     0     0   502   501  0.000000000E+00  0.000000000E+00  9.969238533E+01  9.969238533E+01  0.000000000E+00  0.00000E+00  9.000E+00
      21    -1     0     0   501   512  0.000000000E+00  0.000000000E+00 -1.133355336E+03  1.133355336E+03  0.000000000E+00  0.00000E+00  9.000E+00
      25     1     1     2     0     0 -1.288790400E+01  2.779105318E+02 -4.626085480E+02  5.541047107E+02  1.250000000E+02  0.00000E+00  9.000E+00
      25     1     1     2     0     0 -3.106293774E+01 -2.097427510E+02 -2.622403139E+02  3.596552654E+02  1.250000000E+02  0.00000E+00  9.000E+00
      21     1     1     2   502   512  4.395084174E+01 -6.816778075E+01 -3.088140887E+02  3.192877451E+02  0.000000000E+00  0.00000E+00  9.000E+00
#rwgt            1           1   4.0235869236173762E-002           3       94050           0
</event>
<event>
      5   9999  3.79277E-02  9.08646E+00 -1.00000E+00  2.00693E-01
      21    -1     0     0   511   501  0.000000000E+00  0.000000000E+00  3.528289050E+02  3.528289050E+02  0.000000000E+00  0.00000E+00  9.000E+00
      21    -1     0     0   501   502  0.000000000E+00  0.000000000E+00 -5.897954082E+02  5.897954082E+02  0.000000000E+00  0.00000E+00  9.000E+00
      25     1     1     2     0     0 -8.986761909E+01  7.968917213E+01 -1.545271523E+02  2.322287534E+02  1.250000000E+02  0.00000E+00  9.000E+00
      25     1     1     2     0     0  9.759144968E+01 -7.490312634E+01 -3.769454854E+02  4.157492854E+02  1.250000000E+02  0.00000E+00  9.000E+00
      21     1     1     2   511   502 -7.723830594E+00 -4.786045794E+00  2.945061344E+02  2.946462744E+02  0.000000000E+00  0.00000E+00  9.000E+00
#rwgt            1           1   4.1685551838439590E-002           3       94131           0
</event>
<event>
      5   9999  3.79277E-02  1.67987E+01 -1.00000E+00  1.72872E-01
      21    -1     0     0   502   512  0.000000000E+00  0.000000000E+00  9.551493119E+01  9.551493119E+01  0.000000000E+00  0.00000E+00  9.000E+00
      21    -1     0     0   501   502  0.000000000E+00  0.000000000E+00 -6.735995669E+02  6.735995669E+02  0.000000000E+00  0.00000E+00  9.000E+00
      25     1     1     2     0     0 -1.812974011E+02  2.704987648E+01 -4.219769103E+02  4.767493642E+02  1.250000000E+02  0.00000E+00  9.000E+00
      25     1     1     2     0     0  1.760793164E+02 -4.301754430E+01 -1.632628249E+02  2.741061561E+02  1.250000000E+02  0.00000E+00  9.000E+00
      21     1     1     2   501   512  5.218084686E+00  1.596766782E+01  7.155099444E+00  1.825897783E+01  4.460403188E-07  0.00000E+00  9.000E+00
#rwgt            1           1   3.5309909086565720E-002           3       94422           0
</event>
<event>
      5   9999  3.79277E-02  7.68704E+01 -1.00000E+00  1.29194E-01
      -1    -1     0     0     0   501  0.000000000E+00  0.000000000E+00  1.003791069E+03  1.003791069E+03  0.000000000E+00  0.00000E+00  9.000E+00
      21    -1     0     0   501   502  0.000000000E+00  0.000000000E+00 -3.279447961E+02  3.279447961E+02  0.000000000E+00  0.00000E+00  9.000E+00
      25     1     1     2     0     0 -3.055429397E+02 -2.880651042E+01 -2.028874175E+02  3.885545100E+02  1.250000000E+02  0.00000E+00  9.000E+00
      25     1     1     2     0     0  2.296657071E+02  4.112352041E+01  6.478466830E+02  6.998341272E+02  1.250000000E+02  0.00000E+00  9.000E+00
      -1     1     1     2     0   502  7.587723254E+01 -1.231700999E+01  2.308870073E+02  2.433472278E+02  2.697398305E-06  0.00000E+00  9.000E+00
#rwgt            1           1  0.10292967272452855                3       94556           0
</event>
<event>
      5   9999  3.79277E-02  9.31105E+01 -1.00000E+00  1.25239E-01
       2    -1     0     0   502     0  0.000000000E+00  0.000000000E+00  7.358988153E+01  7.358988153E+01  0.000000000E+00  0.00000E+00  9.000E+00
      21    -1     0     0   501   502  0.000000000E+00  0.000000000E+00 -8.406690835E+02  8.406690835E+02  0.000000000E+00  0.00000E+00  9.000E+00
      25     1     1     2     0     0  2.408913052E+01 -1.032416177E+02 -2.106719413E+02  2.669209334E+02  1.250000000E+02  0.00000E+00  9.000E+00
      25     1     1     2     0     0 -1.106686811E+02  1.374987934E+02 -4.814681430E+02  5.278163013E+02  1.250000000E+02  0.00000E+00  9.000E+00
       2     1     1     2   501     0  8.657955059E+01 -3.425717574E+01 -7.493911762E+01  1.195217303E+02  1.651812370E-06  0.00000E+00  9.000E+00
#rwgt            1           1   4.0764500238383586E-002           3       94783           0
</event>
<event>
      5   9999 -3.79277E-02  1.28114E+02 -1.00000E+00  1.19174E-01
      21    -1     0     0   502   501  0.000000000E+00  0.000000000E+00  3.486333772E+03  3.486333772E+03  0.000000000E+00  0.00000E+00  9.000E+00
      21    -1     0     0   511   502  0.000000000E+00  0.000000000E+00 -2.886809355E+01  2.886809355E+01  0.000000000E+00  0.00000E+00  9.000E+00
      25     1     1     2     0     0  1.490251373E+02  4.900109532E+01  1.971471886E+03  1.981649817E+03  1.250000000E+02  0.00000E+00  9.000E+00
      25     1     1     2     0     0 -1.927650109E+02  7.141448227E+01  1.126697574E+03  1.152098434E+03  1.250000000E+02  0.00000E+00  9.000E+00
      21     1     1     2   511   501  4.373987360E+01 -1.204155776E+02  3.592962177E+02  3.814536144E+02  7.629394531E-06  0.00000E+00  9.000E+00
#rwgt            1           1  -8.3334074893408674E-002           3       94969           0
</event>
<event>
      5   9999  3.79277E-02  2.13100E+01 -1.00000E+00  1.64127E-01
      21    -1     0     0   502   512  0.000000000E+00  0.000000000E+00  6.685739221E+02  6.685739221E+02  0.000000000E+00  0.00000E+00  9.000E+00
      21    -1     0     0   501   502  0.000000000E+00  0.000000000E+00 -1.507196144E+02  1.507196144E+02  0.000000000E+00  0.00000E+00  9.000E+00
      25     1     1     2     0     0 -2.371772662E+02  1.537200123E+02  2.815280089E+02  4.180501376E+02  1.250000000E+02  0.00000E+00  9.000E+00
      25     1     1     2     0     0  2.166083414E+02 -1.592911404E+02  1.954082221E+02  3.551087358E+02  1.250000000E+02  0.00000E+00  9.000E+00
      21     1     1     2   501   512  2.056892484E+01  5.571128190E+00  4.091807670E+01  4.613466310E+01  6.743495762E-07  0.00000E+00  9.000E+00
#rwgt            1           1   3.2829363363363173E-002           3       95030           0
</event>
<event>
      5   9999 -3.79277E-02  1.05638E+02 -1.00000E+00  1.22766E-01
      21    -1     0     0   502   501  0.000000000E+00  0.000000000E+00  1.476518761E+03  1.476518761E+03  0.000000000E+00  0.00000E+00  9.000E+00
      21    -1     0     0   501   511  0.000000000E+00  0.000000000E+00 -9.670109860E+01  9.670109860E+01  0.000000000E+00  0.00000E+00  9.000E+00
      25     1     1     2     0     0 -6.694234400E+01 -2.102787273E+02  4.122806379E+02  4.840441561E+02  1.250000000E+02  0.00000E+00  9.000E+00
      25     1     1     2     0     0  1.698385442E+02  1.863659382E+02  9.382560939E+02  9.795544353E+02  1.250000000E+02  0.00000E+00  9.000E+00
      21     1     1     2   502   511 -1.028962002E+02  2.391278916E+01  2.928093026E+01  1.096212679E+02  1.685873940E-06  0.00000E+00  9.000E+00
#rwgt            1           1  -5.5893835128867095E-003           3       95172           0
</event>
<event>
      5   9999  3.79277E-02  1.96785E+01 -1.00000E+00  1.66952E-01
      21    -1     0     0   502   501  0.000000000E+00  0.000000000E+00  1.586160409E+02  1.586160409E+02  0.000000000E+00  0.00000E+00  9.000E+00
      -2    -1     0     0     0   502  0.000000000E+00  0.000000000E+00 -5.998628026E+02  5.998628026E+02  0.000000000E+00  0.00000E+00  9.000E+00
      25     1     1     2     0     0  3.224357877E+01  1.307675128E+02 -4.075026046E+01  1.882162971E+02  1.250000000E+02  0.00000E+00  9.000E+00
      25     1     1     2     0     0 -1.389280213E+01 -1.236616915E+02 -7.256119413E+00  1.765300971E+02  1.250000000E+02  0.00000E+00  9.000E+00
      -2     1     1     2     0   501 -1.835077664E+01 -7.105821251E+00 -3.932403819E+02  3.937324493E+02  5.394796609E-06  0.00000E+00  9.000E+00
#rwgt            1           1   4.6977918420850098E-002           3       95238           0
</event>
<event>
      5   9999  3.79277E-02  3.66551E+01 -1.00000E+00  1.47232E-01
      21    -1     0     0   502   511  0.000000000E+00  0.000000000E+00  1.221615435E+02  1.221615435E+02  0.000000000E+00  0.00000E+00  9.000E+00
      21    -1     0     0   501   502  0.000000000E+00  0.000000000E+00 -3.617412374E+02  3.617412374E+02  0.000000000E+00  0.00000E+00  9.000E+00
      25     1     1     2     0     0 -1.288365226E+02  6.346991523E+01 -1.093360540E+02  2.195601339E+02  1.250000000E+02  0.00000E+00  9.000E+00
      25     1     1     2     0     0  9.979655955E+01 -8.583685520E+01 -1.365455238E+02  2.271497283E+02  1.250000000E+02  0.00000E+00  9.000E+00
      21     1     1     2   501   511  2.903996303E+01  2.236693997E+01  6.301883897E+00  3.719291864E+01  7.202056631E-07  0.00000E+00  9.000E+00
#rwgt            1           1   4.6477561000000792E-002           3       95445           0
</event>
<event>
      5   9999  3.79277E-02  3.90585E+01 -1.00000E+00  1.45485E-01
      21    -1     0     0   502   501  0.000000000E+00  0.000000000E+00  1.334084393E+03  1.334084393E+03  0.000000000E+00  0.00000E+00  9.000E+00
      21    -1     0     0   512   502  0.000000000E+00  0.000000000E+00 -6.614614830E+01  6.614614830E+01  0.000000000E+00  0.00000E+00  9.000E+00
      25     1     1     2     0     0 -1.446687050E+01  5.223580824E+01  1.140526452E+03  1.148635477E+03  1.250000000E+02  0.00000E+00  9.000E+00
      25     1     1     2     0     0  6.761792471E+00 -1.394486007E+01  1.579443736E+02  2.020188262E+02  1.250000000E+02  0.00000E+00  9.000E+00
      21     1     1     2   512   501  7.705078033E+00 -3.829094817E+01 -3.053258098E+01  4.957623867E+01  2.958696758E-06  0.00000E+00  9.000E+00
#rwgt            1           1   6.2770809411100192E-002           3       95579           0
</event>
<event>
      5   9999  3.79277E-02  4.36548E+01 -1.00000E+00  1.42524E-01
      21    -1     0     0   502   501  0.000000000E+00  0.000000000E+00  4.343982921E+02  4.343982921E+02  0.000000000E+00  0.00000E+00  9.000E+00
      21    -1     0     0   501   511  0.000000000E+00  0.000000000E+00 -2.190559012E+02  2.190559012E+02  0.000000000E+00  0.00000E+00  9.000E+00
      25     1     1     2     0     0 -2.229706735E+01 -1.079425392E+02 -3.236477772E+01  1.697681649E+02  1.250000000E+02  0.00000E+00  9.000E+00
      25     1     1     2     0     0 -1.754642042E+01  1.257817442E+02  3.387263097E+02  3.827393851E+02  1.250000000E+02  0.00000E+00  9.000E+00
      21     1     1     2   502   511  3.984348777E+01 -1.783920507E+01 -9.101914103E+01  1.009466433E+02  1.348699152E-06  0.00000E+00  9.000E+00
#rwgt            1           1   4.2693596590102766E-002           3       95920           0
</event>
<event>
      5   9999  3.79277E-02  1.82304E+02 -1.00000E+00  1.13133E-01
      21    -1     0     0   502   501  0.000000000E+00  0.000000000E+00  4.652502268E+02  4.652502268E+02  0.000000000E+00  0.00000E+00  9.000E+00
      21    -1     0     0   512   502  0.000000000E+00  0.000000000E+00 -3.870348597E+02  3.870348597E+02  0.000000000E+00  0.00000E+00  9.000E+00
      25     1     1     2     0     0  3.678551764E+01 -5.396165310E+01  4.085891487E+01  1.468314859E+02  1.250000000E+02  0.00000E+00  9.000E+00
      25     1     1     2     0     0 -2.063840264E+02 -1.290569131E+01  3.003320359E+02  3.854675797E+02  1.250000000E+02  0.00000E+00  9.000E+00
      21     1     1     2   512   501  1.695985087E+02  6.686734441E+01 -2.629755838E+02  3.199860209E+02  6.607249480E-06  0.00000E+00  9.000E+00
#rwgt            1           1   4.5613281726031366E-002           3       96043           0
</event>
<event>
      5   9999  3.79277E-02  1.88866E+02 -1.00000E+00  1.12561E-01
      21    -1     0     0   502   501  0.000000000E+00  0.000000000E+00  6.016864851E+01  6.016864851E+01  0.000000000E+00  0.00000E+00  9.000E+00
      21    -1     0     0   501   511  0.000000000E+00  0.000000000E+00 -2.269985058E+03  2.269985058E+03  0.000000000E+00  0.00000E+00  9.000E+00
      25     1     1     2     0     0 -2.875369918E+01  2.289923945E+02 -1.030929064E+03  1.063815787E+03  1.250000000E+02  0.00000E+00  9.000E+00
      25     1     1     2     0     0 -1.520544543E+02 -1.744125028E+02 -5.489408019E+02  6.086881650E+02  1.250000000E+02  0.00000E+00  9.000E+00
      21     1     1     2   502   511  1.808081534E+02 -5.457989172E+01 -6.299465434E+02  6.576497551E+02  1.321449896E-05  0.00000E+00  9.000E+00
#rwgt            1           1   2.8744834881166807E-002           3       96200           0
</event>
<event>
      5   9999  3.79277E-02  4.55925E+01 -1.00000E+00  1.41401E-01
      21    -1     0     0   502   501  0.000000000E+00  0.000000000E+00  1.150258518E+02  1.150258518E+02  0.000000000E+00  0.00000E+00  9.000E+00
      21    -1     0     0   512   502  0.000000000E+00  0.000000000E+00 -7.072011556E+02  7.072011556E+02  0.000000000E+00  0.00000E+00  9.000E+00
      25     1     1     2     0     0  2.129173385E+02 -3.670200781E+00 -1.536335693E+02  2.908187357E+02  1.250000000E+02  0.00000E+00  9.000E+00
      25     1     1     2     0     0 -1.705713215E+02 -1.322616701E+01 -2.098420006E+02  2.982082702E+02  1.250000000E+02  0.00000E+00  9.000E+00
      21     1     1     2   512   501 -4.234601704E+01  1.689636779E+01 -2.286997339E+02  2.332000015E+02  3.814697266E-06  0.00000E+00  9.000E+00
#rwgt            1           1   3.3902278232585625E-002           3       96328           0
</event>
<event>
      5   9999  3.79277E-02  1.20782E+02 -1.00000E+00  1.20249E-01
      21    -1     0     0   502   501  0.000000000E+00  0.000000000E+00  4.312903096E+02  4.312903096E+02  0.000000000E+00  0.00000E+00  9.000E+00
      21    -1     0     0   511   502  0.000000000E+00  0.000000000E+00 -6.061731182E+02  6.061731182E+02  0.000000000E+00  0.00000E+00  9.000E+00
      25     1     1     2     0     0  5.619456642E+00  3.474132308E+01  3.628028662E+02  3.853432983E+02  1.250000000E+02  0.00000E+00  9.000E+00
      25     1     1     2     0     0  6.503900309E+01  6.321599717E+01 -5.034127668E+02  5.265697941E+02  1.250000000E+02  0.00000E+00  9.000E+00
      21     1     1     2   511   501 -7.065845974E+01 -9.795732025E+01 -3.427290796E+01  1.255503355E+02  2.023048729E-06  0.00000E+00  9.000E+00
#rwgt            1           1   3.4570619377826857E-002           3       96439           0
</event>
<event>
      5   9999  3.79277E-02  1.89985E+02 -1.00000E+00  1.12466E-01
      21    -1     0     0   502   501  0.000000000E+00  0.000000000E+00  9.255454499E+02  9.255454499E+02  0.000000000E+00  0.00000E+00  9.000E+00
      21    -1     0     0   501   512  0.000000000E+00  0.000000000E+00 -3.850384290E+02  3.850384290E+02  0.000000000E+00  0.00000E+00  9.000E+00
      25     1     1     2     0     0 -2.327252919E+02  5.215732018E+01  2.043846645E+02  3.380525678E+02  1.250000000E+02  0.00000E+00  9.000E+00
      25     1     1     2     0     0  3.493299288E+02  9.783460693E+01  5.600400320E+02  6.788761646E+02  1.250000000E+02  0.00000E+00  9.000E+00
      21     1     1     2   502   512 -1.166046369E+02 -1.499919271E+02 -2.239176757E+02  2.936551464E+02  3.814697266E-06  0.00000E+00  9.000E+00
#rwgt            1           1   6.2875397998337551E-002           3       96615           0
</event>
<event>
      5   9999  3.79277E-02  1.63516E+02 -1.00000E+00  1.14928E-01
      21    -1     0     0   502   501  0.000000000E+00  0.000000000E+00  5.119794770E+02  5.119794770E+02  0.000000000E+00  0.00000E+00  9.000E+00
      21    -1     0     0   511   502  0.000000000E+00  0.000000000E+00 -3.168768723E+02  3.168768723E+02  0.000000000E+00  0.00000E+00  9.000E+00
      25     1     1     2     0     0  2.097584662E+02  3.955117988E+01  4.028771257E+01  2.506212476E+02  1.250000000E+02  0.00000E+00  9.000E+00
      25     1     1     2     0     0 -3.032360804E+02 -1.737126852E+02  1.804994248E+02  4.127145015E+02  1.250000000E+02  0.00000E+00  9.000E+00
      21     1     1     2   511   501  9.347761415E+01  1.341615053E+02 -2.568453258E+01  1.655206001E+02  1.430511475E-06  0.00000E+00  9.000E+00
#rwgt            2          11   2.4274136115940413E-003           3       96686           0
</event>
<event>
      5   9999  3.79277E-02  2.24049E+01 -1.00000E+00  1.62400E-01
      21    -1     0     0   502   501  0.000000000E+00  0.000000000E+00  3.456836906E+02  3.456836906E+02  0.000000000E+00  0.00000E+00  9.000E+00
      21    -1     0     0   501   512  0.000000000E+00  0.000000000E+00 -8.167773536E+01  8.167773536E+01  0.000000000E+00  0.00000E+00  9.000E+00
      25     1     1     2     0     0 -6.468204594E+01 -5.996974429E+01  1.092162584E+02  1.879716159E+02  1.250000000E+02  0.00000E+00  9.000E+00
      25     1     1     2     0     0  5.726340524E+01  8.111079130E+01  1.416301691E+02  2.134060984E+02  1.250000000E+02  0.00000E+00  9.000E+00
      21     1     1     2   502   512  7.418640705E+00 -2.114104701E+01  1.315952776E+01  2.598371162E+01  0.000000000E+00  0.00000E+00  9.000E+00
#rwgt            1           1   2.5829283330203942E-002           3       96721           0
</event>
<event>
      5   9999  3.79277E-02  1.98164E+01 -1.00000E+00  1.66700E-01
      21    -1     0     0   502   501  0.000000000E+00  0.000000000E+00  3.971068880E+03  3.971068880E+03  0.000000000E+00  0.00000E+00  9.000E+00
      21    -1     0     0   501   511  0.000000000E+00  0.000000000E+00 -1.453818860E+01  1.453818860E+01  0.000000000E+00  0.00000E+00  9.000E+00
      25     1     1     2     0     0 -1.175582984E+02 -7.876630415E+01  2.500772681E+03  2.507890167E+03  1.250000000E+02  0.00000E+00  9.000E+00
      25     1     1     2     0     0  1.356186539E+02  8.692193911E+01  1.433450032E+03  1.447878391E+03  1.250000000E+02  0.00000E+00  9.000E+00
      21     1     1     2   502   511 -1.806035551E+01 -8.155634955E+00  2.230797878E+01  2.983851102E+01  1.862108630E-06  0.00000E+00  9.000E+00
#rwgt            1           1   5.3799872465319556E-003           3       96949           0
</event>
<event>
      5   9999  3.79277E-02  1.03243E+02 -1.00000E+00  1.23208E-01
      21    -1     0     0   502   512  0.000000000E+00  0.000000000E+00  4.266926185E+02  4.266926185E+02  0.000000000E+00  0.00000E+00  9.000E+00
      21    -1     0     0   501   502  0.000000000E+00  0.000000000E+00 -1.475126478E+02  1.475126478E+02  0.000000000E+00  0.00000E+00  9.000E+00
      25     1     1     2     0     0  4.260378237E+01 -8.292650190E+01  4.829624642E+01  1.632464836E+02  1.250000000E+02  0.00000E+00  9.000E+00
      25     1     1     2     0     0 -1.418739389E+02  1.112899206E+02  9.202043744E+01  2.379210413E+02  1.250000000E+02  0.00000E+00  9.000E+00
      21     1     1     2   501   512  9.927015658E+01 -2.836341875E+01  1.388632868E+02  1.730377413E+02  1.907348633E-06  0.00000E+00  9.000E+00
#rwgt            1           1   3.4725998876201050E-002           3       97119           0
</event>
<event>
      5   9999  3.79277E-02  2.14214E+01 -1.00000E+00  1.63946E-01
      21    -1     0     0   502   511  0.000000000E+00  0.000000000E+00  2.650520128E+02  2.650520128E+02  0.000000000E+00  0.00000E+00  9.000E+00
      21    -1     0     0   501   502  0.000000000E+00  0.000000000E+00 -2.990513341E+02  2.990513341E+02  0.000000000E+00  0.00000E+00  9.000E+00
      25     1     1     2     0     0  7.809536420E+01 -1.380454488E+02  1.268846545E+02  2.384955920E+02  1.250000000E+02  0.00000E+00  9.000E+00
      25     1     1     2     0     0 -7.139457133E+01  1.583918852E+02 -1.922008770E+02  2.876653459E+02  1.250000000E+02  0.00000E+00  9.000E+00
      21     1     1     2   501   511 -6.700792861E+00 -2.034643640E+01  3.131690122E+01  3.794240900E+01  6.743495762E-07  0.00000E+00  9.000E+00
#rwgt            1           1   4.1963616519978500E-002           3       97178           0
</event>
<event>
      5   9999  3.79277E-02  5.22464E+01 -1.00000E+00  1.37995E-01
      21    -1     0     0   512   501  0.000000000E+00  0.000000000E+00  1.060647628E+03  1.060647628E+03  0.000000000E+00  0.00000E+00  9.000E+00
      21    -1     0     0   501   502  0.000000000E+00  0.000000000E+00 -5.470897113E+01  5.470897113E+01  0.000000000E+00  0.00000E+00  9.000E+00
      25     1     1     2     0     0 -7.163969447E+01 -7.373006674E+01  1.074414060E+02  1.942601974E+02  1.250000000E+02  0.00000E+00  9.000E+00
      25     1     1     2     0     0  1.954028090E+01  7.764607068E+01  7.182668707E+02  7.334459983E+02  1.250000000E+02  0.00000E+00  9.000E+00
      21     1     1     2   512   502  5.209941358E+01 -3.916003943E+00  1.802303805E+02  1.876504038E+02  1.907348633E-06  0.00000E+00  9.000E+00
#rwgt            1           1   5.3566321221464007E-002           3       97360           0
</event>
<event>
      5   9999  3.79277E-02  8.09475E+00 -1.00000E+00  2.07004E-01
      21    -1     0     0   502   511  0.000000000E+00  0.000000000E+00  1.010555884E+03  1.010555884E+03  0.000000000E+00  0.00000E+00  9.000E+00
      21    -1     0     0   501   502  0.000000000E+00  0.000000000E+00 -4.717508833E+01  4.717508833E+01  0.000000000E+00  0.00000E+00  9.000E+00
      25     1     1     2     0     0  1.224621879E+02  6.283672225E+01  2.235076320E+02  2.907337316E+02  1.250000000E+02  0.00000E+00  9.000E+00
      25     1     1     2     0     0 -1.184409056E+02 -6.986197639E+01  6.302627246E+02  6.570883091E+02  1.250000000E+02  0.00000E+00  9.000E+00
      21     1     1     2   501   511 -4.021282312E+00  7.025254143E+00  1.096104392E+02  1.099089318E+02  1.348699152E-06  0.00000E+00  9.000E+00
#rwgt            1           1   4.6500094087558237E-002           3       97471           0
</event>
<event>
      5   9999  3.79277E-02  1.64734E+02 -1.00000E+00  1.14803E-01
      21    -1     0     0   502   512  0.000000000E+00  0.000000000E+00  5.522548754E+02  5.522548754E+02  0.000000000E+00  0.00000E+00  9.000E+00
      21    -1     0     0   501   502  0.000000000E+00  0.000000000E+00 -3.457581473E+02  3.457581473E+02  0.000000000E+00  0.00000E+00  9.000E+00
      25     1     1     2     0     0  1.721875878E+02 -1.598675661E+02 -4.124457256E+01  2.693182483E+02  1.250000000E+02  0.00000E+00  9.000E+00
      25     1     1     2     0     0 -3.342895112E+02  1.305366250E+02  7.010614969E+01  3.864313134E+02  1.250000000E+02  0.00000E+00  9.000E+00
      21     1     1     2   501   512  1.621019233E+02  2.933094115E+01  1.776351510E+02  2.422634610E+02  2.697398305E-06  0.00000E+00  9.000E+00
#rwgt            1           1   3.0131254381023365E-002           3       97711           0
</event>
<event>
      5   9999 -3.79277E-02  6.10538E+01 -1.00000E+00  1.34301E-01
      21    -1     0     0   502   501  0.000000000E+00  0.000000000E+00  4.829430732E+02  4.829430732E+02  0.000000000E+00  0.00000E+00  9.000E+00
      21    -1     0     0   501   511  0.000000000E+00  0.000000000E+00 -1.416006689E+02  1.416006689E+02  0.000000000E+00  0.00000E+00  9.000E+00
      25     1     1     2     0     0 -8.881813108E+01 -1.060356606E+02  2.210788378E+02  2.891938351E+02  1.250000000E+02  0.00000E+00  9.000E+00
      25     1     1     2     0     0  1.192248916E+02  1.589790142E+02  1.372977861E+02  2.719643061E+02  1.250000000E+02  0.00000E+00  9.000E+00
      21     1     1     2   502   511 -3.040676047E+01 -5.294335364E+01 -1.703421950E+01  6.338560098E+01  5.840038640E-07  0.00000E+00  9.000E+00
#rwgt            1           1  -9.1448210445047931E-002           3       97847           0
</event>
<event>
      5   9999  3.79277E-02  1.42363E+01 -1.00000E+00  1.79549E-01
      21    -1     0     0   502   501  0.000000000E+00  0.000000000E+00  7.371303293E+02  7.371303293E+02  0.000000000E+00  0.00000E+00  9.000E+00
      21    -1     0     0   501   512  0.000000000E+00  0.000000000E+00 -1.249586124E+02  1.249586124E+02  0.000000000E+00  0.00000E+00  9.000E+00
      25     1     1     2     0     0  1.387628192E+02 -5.182947814E+01  2.753231074E+02  3.367034723E+02  1.250000000E+02  0.00000E+00  9.000E+00
      25     1     1     2     0     0 -1.356669475E+02  3.793386908E+01  4.098280053E+02  4.510304790E+02  1.250000000E+02  0.00000E+00  9.000E+00
      21     1     1     2   502   512 -3.095871732E+00  1.389560906E+01 -7.297939586E+01  7.435499037E+01  0.000000000E+00  0.00000E+00  9.000E+00
#rwgt            1           1   4.0579312106560871E-002           3       97962           0
</event>
<event>
      5   9999  3.79277E-02  4.11420E+01 -1.00000E+00  1.44086E-01
      21    -1     0     0   502   511  0.000000000E+00  0.000000000E+00  3.642720585E+02  3.642720585E+02  0.000000000E+00  0.00000E+00  9.000E+00
      21    -1     0     0   501   502  0.000000000E+00  0.000000000E+00 -2.873076574E+02  2.873076574E+02  0.000000000E+00  0.00000E+00  9.000E+00
      25     1     1     2     0     0  1.084898369E+02  6.093310051E+01  2.669004903E+02  3.199121116E+02  1.250000000E+02  0.00000E+00  9.000E+00
      25     1     1     2     0     0 -1.161452104E+02 -2.050955186E+01 -2.211131471E+02  2.800470950E+02  1.250000000E+02  0.00000E+00  9.000E+00
      21     1     1     2   501   511  7.655373433E+00 -4.042354865E+01  3.117705796E+01  5.162050921E+01  1.066240300E-06  0.00000E+00  9.000E+00
#rwgt            1           1   4.4174523934212485E-002           3       98129           0
</event>
<event>
      5   9999  3.79277E-02  3.18075E+01 -1.00000E+00  1.51296E-01
      21    -1     0     0   502   512  0.000000000E+00  0.000000000E+00  3.871221292E+02  3.871221292E+02  0.000000000E+00  0.00000E+00  9.000E+00
      21    -1     0     0   501   502  0.000000000E+00  0.000000000E+00 -5.139571931E+02  5.139571931E+02  0.000000000E+00  0.00000E+00  9.000E+00
      25     1     1     2     0     0  2.750866154E+02  6.415283531E+01 -3.606499774E+02  4.748490691E+02  1.250000000E+02  0.00000E+00  9.000E+00
      25     1     1     2     0     0 -2.811452967E+02 -9.537793881E+01  1.970483349E+02  3.776144533E+02  1.250000000E+02  0.00000E+00  9.000E+00
      21     1     1     2   501   512  6.058681264E+00  3.122510350E+01  3.676657854E+01  4.861579995E+01  8.259061849E-07  0.00000E+00  9.000E+00
#rwgt            1           1   4.5171252818283422E-002           3       98507           0
</event>
<event>
      5   9999  3.79277E-02  4.04108E+01 -1.00000E+00  1.44565E-01
      -3    -1     0     0     0   501  0.000000000E+00  0.000000000E+00  7.186777905E+02  7.186777905E+02  0.000000000E+00  0.00000E+00  9.000E+00
      21    -1     0     0   501   502  0.000000000E+00  0.000000000E+00 -1.699501605E+02  1.699501605E+02  0.000000000E+00  0.00000E+00  9.000E+00
      25     1     1     2     0     0 -2.785026829E+01 -6.215170499E+01 -1.077383531E+02  1.785245770E+02  1.250000000E+02  0.00000E+00  9.000E+00
      25     1     1     2     0     0  1.087965773E+01  9.882640166E+01  2.205013474E+02  2.722698456E+02  1.250000000E+02  0.00000E+00  9.000E+00
      -3     1     1     2     0   502  1.697061056E+01 -3.667469668E+01  4.359646357E+02  4.378335284E+02  0.000000000E+00  0.00000E+00  9.000E+00
#rwgt            1           1   2.6905989672887112E-002           3       98685           0
</event>
<event>
      5   9999  3.79277E-02  3.77154E+01 -1.00000E+00  1.46442E-01
      21    -1     0     0   502   511  0.000000000E+00  0.000000000E+00  1.988479952E+02  1.988479952E+02  0.000000000E+00  0.00000E+00  9.000E+00
      21    -1     0     0   501   502  0.000000000E+00  0.000000000E+00 -4.877593379E+02  4.877593379E+02  0.000000000E+00  0.00000E+00  9.000E+00
      25     1     1     2     0     0 -4.466707084E+01  2.375093485E+02 -1.505457945E+02  3.109579941E+02  1.250000000E+02  0.00000E+00  9.000E+00
      25     1     1     2     0     0  7.603903092E+01 -2.165748337E+02 -1.816114092E+02  3.182676496E+02  1.250000000E+02  0.00000E+00  9.000E+00
      21     1     1     2   501   511 -3.137196008E+01 -2.093451474E+01  4.324586096E+01  5.738168939E+01  1.348699152E-06  0.00000E+00  9.000E+00
#rwgt            1           1   2.9952479705801352E-002           3       98826           0
</event>
<event>
      5   9999  3.79277E-02  6.60784E+01 -1.00000E+00  1.32501E-01
      21    -1     0     0   502   501  0.000000000E+00  0.000000000E+00  2.367698146E+02  2.367698146E+02  0.000000000E+00  0.00000E+00  9.000E+00
      21    -1     0     0   512   502  0.000000000E+00  0.000000000E+00 -7.935652529E+02  7.935652529E+02  0.000000000E+00  0.00000E+00  9.000E+00
      25     1     1     2     0     0 -1.483076320E+02  8.756794872E+01  1.286395803E+02  2.486693406E+02  1.250000000E+02  0.00000E+00  9.000E+00
      25     1     1     2     0     0  1.222030489E+02 -1.482713270E+02 -2.419722859E+02  3.333070037E+02  1.250000000E+02  0.00000E+00  9.000E+00
      21     1     1     2   512   501  2.610458313E+01  6.070337824E+01 -4.434627326E+02  4.483587231E+02  5.394796609E-06  0.00000E+00  9.000E+00
#rwgt            1           1   4.0770870886273257E-002           3       99213           0
</event>
<event>
      5   9999  3.79277E-02  1.56664E+02 -1.00000E+00  1.15650E-01
      21    -1     0     0   502   511  0.000000000E+00  0.000000000E+00  1.970752966E+02  1.970752966E+02  0.000000000E+00  0.00000E+00  9.000E+00
      21    -1     0     0   501   502  0.000000000E+00  0.000000000E+00 -1.388781004E+03  1.388781004E+03  0.000000000E+00  0.00000E+00  9.000E+00
      25     1     1     2     0     0  3.617728464E+02  2.493368459E+01 -9.646313311E+02  1.038094353E+03  1.250000000E+02  0.00000E+00  9.000E+00
      25     1     1     2     0     0 -2.370678544E+02 -1.197612784E+02 -2.547493571E+02  3.886723122E+02  1.250000000E+02  0.00000E+00  9.000E+00
      21     1     1     2   501   511 -1.247049920E+02  9.482759377E+01  2.767498059E+01  1.590896355E+02  3.552356821E-06  0.00000E+00  9.000E+00
#rwgt            1           1   1.9106565264849558E-002           3       99359           0
</event>
<event>
      5   9999  3.79277E-02  5.20593E+01 -1.00000E+00  1.38083E-01
      21    -1     0     0   502   512  0.000000000E+00  0.000000000E+00  8.716632675E+01  8.716632675E+01  0.000000000E+00  0.00000E+00  9.000E+00
      21    -1     0     0   501   502  0.000000000E+00  0.000000000E+00 -2.205995748E+03  2.205995748E+03  0.000000000E+00  0.00000E+00  9.000E+00
      25     1     1     2     0     0  5.960788277E+01 -1.221971143E+02 -6.180297094E+02  6.450356239E+02  1.250000000E+02  0.00000E+00  9.000E+00
      25     1     1     2     0     0 -5.251667779E+01  7.062303629E+01 -1.561040279E+03  1.568508007E+03  1.250000000E+02  0.00000E+00  9.000E+00
      21     1     1     2   501   512 -7.091204980E+00  5.157407803E+01  6.024056710E+01  7.961844408E+01  4.768371582E-06  0.00000E+00  9.000E+00
#rwgt            1           1  0.15553413502285135                3       99393           0
</event>
<event>
      5   9999  3.79277E-02  2.48361E+01 -1.00000E+00  1.58965E-01
      -1    -1     0     0     0   501  0.000000000E+00  0.000000000E+00  6.797771653E+02  6.797771653E+02  0.000000000E+00  0.00000E+00  9.000E+00
      21    -1     0     0   501   502  0.000000000E+00  0.000000000E+00 -1.331869862E+02  1.331869862E+02  0.000000000E+00  0.00000E+00  9.000E+00
      25     1     1     2     0     0  1.378883928E+02  1.641366409E+01  3.229296465E+01  1.896060463E+02  1.250000000E+02  0.00000E+00  9.000E+00
      25     1     1     2     0     0 -1.239899570E+02  4.169515893E+00  8.897809190E+01  1.973144575E+02  1.250000000E+02  0.00000E+00  9.000E+00
      -1     1     1     2     0   502 -1.389843581E+01 -2.058317998E+01  4.253191225E+02  4.260436477E+02  0.000000000E+00  0.00000E+00  9.000E+00
#rwgt            1           1   3.5017436049996943E-002           3       99581           0
</event>
<event>
      5   9999  3.79277E-02  3.76561E+01 -1.00000E+00  1.46486E-01
      21    -1     0     0   502   501  0.000000000E+00  0.000000000E+00  5.191686966E+02  5.191686966E+02  0.000000000E+00  0.00000E+00  9.000E+00
      21    -1     0     0   511   502  0.000000000E+00  0.000000000E+00 -4.966245087E+02  4.966245087E+02  0.000000000E+00  0.00000E+00  9.000E+00
      25     1     1     2     0     0 -6.903687607E+01  1.279889508E+02  7.428747876E+00  1.919047891E+02  1.250000000E+02  0.00000E+00  9.000E+00
      25     1     1     2     0     0  1.065640226E+02 -1.311021963E+02  3.921830554E+02  4.449451940E+02  1.250000000E+02  0.00000E+00  9.000E+00
      21     1     1     2   511   501 -3.752714651E+01  3.113245456E+00 -3.770676154E+02  3.789432222E+02  7.629394531E-06  0.00000E+00  9.000E+00
#rwgt            1           1   4.4823727469561335E-002           3       99749           0
</event>
<event>
      5   9999  3.79277E-02  2.44945E+02 -1.00000E+00  1.08534E-01
      -1    -1     0     0     0   501  0.000000000E+00  0.000000000E+00  5.566620495E+02  5.566620495E+02  0.000000000E+00  0.00000E+00  9.000E+00
      21    -1     0     0   501   502  0.000000000E+00  0.000000000E+00 -2.818740334E+02  2.818740334E+02  0.000000000E+00  0.00000E+00  9.000E+00
      25     1     1     2     0     0 -4.346821246E+01 -1.563709997E+02  7.462829867E+01  2.180269662E+02  1.250000000E+02  0.00000E+00  9.000E+00
      25     1     1     2     0     0  1.830034762E+02 -4.494476626E+01 -8.769745568E+01  2.425410234E+02  1.250000000E+02  0.00000E+00  9.000E+00
      -1     1     1     2     0   502 -1.395352637E+02  2.013157660E+02  2.878571731E+02  3.779680933E+02  0.000000000E+00  0.00000E+00  9.000E+00
#rwgt            1           1   3.4770890304026733E-002           3       99836           0
</event>
<event>
      5   9999 -3.79277E-02  1.13466E+02 -1.00000E+00  1.21409E-01
      21    -1     0     0   502   511  0.000000000E+00  0.000000000E+00  1.369592617E+03  1.369592617E+03  0.000000000E+00  0.00000E+00  9.000E+00
      21    -1     0     0   501   502  0.000000000E+00  0.000000000E+00 -1.704233723E+02  1.704233723E+02  0.000000000E+00  0.00000E+00  9.000E+00
      25     1     1     2     0     0  2.536462458E+02  4.188831304E+01  9.938156016E+02  1.034110970E+03  1.250000000E+02  0.00000E+00  9.000E+00
      25     1     1     2     0     0 -2.122717612E+02  6.376563538E+01 -1.829693756E+01  2.551178841E+02  1.250000000E+02  0.00000E+00  9.000E+00
      21     1     1     2   501   511 -4.137448466E+01 -1.056539484E+02  2.236505806E+02  2.507871349E+02  3.814697266E-06  0.00000E+00  9.000E+00
#rwgt            1           1  -3.1448913046344902E-002           3       99910           0
</event>
<event>
      5   9999  3.79277E-02  7.51326E+01 -1.00000E+00  1.29683E-01
      21    -1     0     0   502   501  0.000000000E+00  0.000000000E+00  1.812212002E+02  1.812212002E+02  0.000000000E+00  0.00000E+00  9.000E+00
      21    -1     0     0   512   502  0.000000000E+00  0.000000000E+00 -2.927724835E+02  2.927724835E+02  0.000000000E+00  0.00000E+00  9.000E+00
      25     1     1     2     0     0 -1.351879106E+02  8.497939745E+01  3.200317831E+01  2.052960608E+02  1.250000000E+02  0.00000E+00  9.000E+00
      25     1     1     2     0     0  7.894398120E+01 -3.516450714E+01 -9.377713195E+01  1.785716809E+02  1.250000000E+02  0.00000E+00  9.000E+00
      21     1     1     2   512   501  5.624392939E+01 -4.981489032E+01 -4.977732961E+01  9.012594207E+01  6.743495762E-07  0.00000E+00  9.000E+00
#rwgt            1           1   3.4670402824345574E-002           3      100114           0
</event>
<event>
      5   9999  3.79277E-02  1.75594E+01 -1.00000E+00  1.71172E-01
       2    -1     0     0   502     0  0.000000000E+00  0.000000000E+00  4.056552494E+02  4.056552494E+02  0.000000000E+00  0.00000E+00  9.000E+00
      21    -1     0     0   501   502  0.000000000E+00  0.000000000E+00 -3.062267639E+02  3.062267639E+02  0.000000000E+00  0.00000E+00  9.000E+00
      25     1     1     2     0     0  1.010977681E+02 -1.094397231E+02 -1.613086410E+02  2.526722964E+02  1.250000000E+02  0.00000E+00  9.000E+00
      25     1     1     2     0     0 -1.009102224E+02  9.188127829E+01 -1.242453036E+01  1.854842615E+02  1.250000000E+02  0.00000E+00  9.000E+00
       2     1     1     2   501     0 -1.875456173E-01  1.755844483E+01  2.731616569E+02  2.737254554E+02  3.814697266E-06  0.00000E+00  9.000E+00
#rwgt            1           1   4.7562182939479031E-002           3      100222           0
</event>
<event>
      5   9999  3.79277E-02  1.52283E+01 -1.00000E+00  1.76768E-01
      21    -1     0     0   502   511  0.000000000E+00  0.000000000E+00  1.416569055E+02  1.416569055E+02  0.000000000E+00  0.00000E+00  9.000E+00
      21    -1     0     0   501   502  0.000000000E+00  0.000000000E+00 -6.502589697E+02  6.502589697E+02  0.000000000E+00  0.00000E+00  9.000E+00
      25     1     1     2     0     0  8.415317475E+01 -1.531595667E+02 -3.035675208E+02  3.719110773E+02  1.250000000E+02  0.00000E+00  9.000E+00
      25     1     1     2     0     0 -9.291016365E+01  1.407010235E+02 -2.763842895E+02  3.470480543E+02  1.250000000E+02  0.00000E+00  9.000E+00
      21     1     1     2   501   511  8.756988896E+00  1.245854320E+01  7.134974614E+01  7.295674353E+01  9.536743164E-07  0.00000E+00  9.000E+00
#rwgt            1           1   4.6112062919806858E-002           3      100403           0
</event>
<event>
      5   9999  3.79277E-02  3.83390E+01 -1.00000E+00  1.45992E-01
      21    -1     0     0   512   501  0.000000000E+00  0.000000000E+00  1.079999117E+03  1.079999117E+03  0.000000000E+00  0.00000E+00  9.000E+00
      21    -1     0     0   501   502  0.000000000E+00  0.000000000E+00 -2.731648031E+03  2.731648031E+03  0.000000000E+00  0.00000E+00  9.000E+00
      25     1     1     2     0     0 -1.170347448E+02 -1.107358408E+01 -5.555807211E+02  5.814763051E+02  1.250000000E+02  0.00000E+00  9.000E+00
      25     1     1     2     0     0  1.008531388E+02 -2.368320718E+01 -2.159727459E+03  2.165820848E+03  1.250000000E+02  0.00000E+00  9.000E+00
      21     1     1     2   512   502  1.618160600E+01  3.475679126E+01  1.063659266E+03  1.064349996E+03  1.525878906E-05  0.00000E+00  9.000E+00
#rwgt            1           1   4.8284049927533185E-002           3      100692           0
</event>
<event>
      5   9999  3.79277E-02  5.09321E+01 -1.00000E+00  1.38619E-01
      21    -1     0     0   502   501  0.000000000E+00  0.000000000E+00  1.208998751E+02  1.208998751E+02  0.000000000E+00  0.00000E+00  9.000E+00
      21    -1     0     0   501   511  0.000000000E+00  0.000000000E+00 -6.144081195E+02  6.144081195E+02  0.000000000E+00  0.00000E+00  9.000E+00
      25     1     1     2     0     0  7.574016274E+00  1.417188098E+02 -1.193181626E+02  2.236144242E+02  1.250000000E+02  0.00000E+00  9.000E+00
      25     1     1     2     0     0  4.201388519E+01 -1.533430878E+02 -8.724503300E+01  2.202633989E+02  1.250000000E+02  0.00000E+00  9.000E+00
      21     1     1     2   502   511 -4.958790147E+01  1.162427793E+01 -2.869450488E+02  2.914301715E+02  0.000000000E+00  0.00000E+00  9.000E+00
#rwgt            1           1   3.1696331986140337E-002           3      100803           0
</event>
<event>
      5   9999  3.79277E-02  5.30447E+01 -1.00000E+00  1.37626E-01
      21    -1     0     0   502   512  0.000000000E+00  0.000000000E+00  3.364959537E+02  3.364959537E+02  0.000000000E+00  0.00000E+00  9.000E+00
      21    -1     0     0   501   502  0.000000000E+00  0.000000000E+00 -3.479794183E+02  3.479794183E+02  0.000000000E+00  0.00000E+00  9.000E+00
      25     1     1     2     0     0 -1.940148122E+02  1.341472804E+02  8.940956318E+01  2.815249726E+02  1.250000000E+02  0.00000E+00  9.000E+00
      25     1     1     2     0     0  1.508853515E+02 -1.650274553E+02 -1.761392946E+02  3.108866376E+02  1.250000000E+02  0.00000E+00  9.000E+00
      21     1     1     2   501   512  4.312946068E+01  3.088017491E+01  7.524626678E+01  9.206376185E+01  9.536743164E-07  0.00000E+00  9.000E+00
#rwgt            1           1   3.2915440947256194E-002           3      100950           0
</event>
<event>
      5   9999  3.79277E-02  2.41168E+01 -1.00000E+00  1.59930E-01
      21    -1     0     0   502   501  0.000000000E+00  0.000000000E+00  2.839273839E+01  2.839273839E+01  0.000000000E+00  0.00000E+00  9.000E+00
       1    -1     0     0   501     0  0.000000000E+00  0.000000000E+00 -1.372397793E+03  1.372397793E+03  0.000000000E+00  0.00000E+00  9.000E+00
      25     1     1     2     0     0 -7.700175341E-01 -4.856797529E+01 -1.793858324E+02  2.239725832E+02  1.250000000E+02  0.00000E+00  9.000E+00
      25     1     1     2     0     0  2.488667464E+01  4.865601794E+01 -8.124976991E+02  8.238715104E+02  1.250000000E+02  0.00000E+00  9.000E+00
       1     1     1     2   502     0 -2.411665711E+01 -8.804265047E-02 -3.521215232E+02  3.529464379E+02  5.394796609E-06  0.00000E+00  9.000E+00
#rwgt            1           1   3.8543709136755824E-002           3      101284           0
</event>
<event>
      5   9999  3.79277E-02  1.78760E+02 -1.00000E+00  1.13452E-01
      21    -1     0     0   502   501  0.000000000E+00  0.000000000E+00  4.834154701E+02  4.834154701E+02  0.000000000E+00  0.00000E+00  9.000E+00
      21    -1     0     0   511   502  0.000000000E+00  0.000000000E+00 -2.539169911E+02  2.539169911E+02  0.000000000E+00  0.00000E+00  9.000E+00
      25     1     1     2     0     0 -2.079243877E+02 -1.175641477E+02 -9.263420639E+00  2.697493110E+02  1.250000000E+02  0.00000E+00  9.000E+00
      25     1     1     2     0     0  1.050065085E+02 -2.859633291E+01  2.365202696E+02  2.888095480E+02  1.250000000E+02  0.00000E+00  9.000E+00
      21     1     1     2   511   501  1.029178792E+02  1.461604806E+02  2.241630077E+00  1.787736022E+02  2.477718555E-06  0.00000E+00  9.000E+00
#rwgt            1           1   4.7032275012083881E-002           3      101405           0
</event>
<event>
      5   9999  3.79277E-02  5.17190E+01 -1.00000E+00  1.38243E-01
      21    -1     0     0   502   501  0.000000000E+00  0.000000000E+00  4.525799158E+02  4.525799158E+02  0.000000000E+00  0.00000E+00  9.000E+00
      21    -1     0     0   501   512  0.000000000E+00  0.000000000E+00 -6.014926004E+02  6.014926004E+02  0.000000000E+00  0.00000E+00  9.000E+00
      25     1     1     2     0     0 -2.804367513E+02 -2.297968229E+02 -1.642628207E+02  4.172033384E+02  1.250000000E+02  0.00000E+00  9.000E+00
      25     1     1     2     0     0  2.287628885E+02  2.319564506E+02  2.287849866E+02  4.172575035E+02  1.250000000E+02  0.00000E+00  9.000E+00
      21     1     1     2   502   512  5.167386278E+01 -2.159627723E+00 -2.134348505E+02  2.196116743E+02  0.000000000E+00  0.00000E+00  9.000E+00
#rwgt            1           1   3.0536391229127588E-002           3      101447           0
</event>
<event>
      5   9999  3.79277E-02  1.09424E+02 -1.00000E+00  1.22094E-01
      21    -1     0     0   511   501  0.000000000E+00  0.000000000E+00  2.528087546E+03  2.528087546E+03  0.000000000E+00  0.00000E+00  9.000E+00
      21    -1     0     0   501   502  0.000000000E+00  0.000000000E+00 -2.874370201E+01  2.874370201E+01  0.000000000E+00  0.00000E+00  9.000E+00
      25     1     1     2     0     0  2.540360032E+01  2.815548149E+01  2.086197672E+02  2.461407754E+02  1.250000000E+02  0.00000E+00  9.000E+00
      25     1     1     2     0     0 -7.194488344E+01 -1.271880286E+02  1.563267665E+03  1.575050365E+03  1.250000000E+02  0.00000E+00  9.000E+00
      21     1     1     2   511   502  4.654128312E+01  9.903254706E+01  7.274564118E+02  7.356401073E+02  1.525878906E-05  0.00000E+00  9.000E+00
#rwgt            1           1   3.1112177090490918E-002           3      101537           0
</event>
<event>
      5   9999  3.79277E-02  1.12375E+01 -1.00000E+00  1.90077E-01
      21    -1     0     0   502   501  0.000000000E+00  0.000000000E+00  3.658532062E+02  3.658532062E+02  0.000000000E+00  0.00000E+00  9.000E+00
      21    -1     0     0   501   512  0.000000000E+00  0.000000000E+00 -1.160368777E+02  1.160368777E+02  0.000000000E+00  0.00000E+00  9.000E+00
      25     1     1     2     0     0  8.109422779E+01 -1.168502066E+02  1.554055617E+02  2.449614932E+02  1.250000000E+02  0.00000E+00  9.000E+00
      25     1     1     2     0     0 -9.051499338E+01  1.229763699E+02  1.031730300E+02  2.226787500E+02  1.250000000E+02  0.00000E+00  9.000E+00
      21     1     1     2   502   512  9.420765585E+00 -6.126163268E+00 -8.762263205E+00  1.424984060E+01  1.192092896E-07  0.00000E+00  9.000E+00
#rwgt            1           1   8.5840178202703496E-002           3      101615           0
</event>
<event>
      5   9999  3.79277E-02  3.24540E+01 -1.00000E+00  1.50705E-01
      21    -1     0     0   502   501  0.000000000E+00  0.000000000E+00  3.681714469E+01  3.681714469E+01  0.000000000E+00  0.00000E+00  9.000E+00
      21    -1     0     0   511   502  0.000000000E+00  0.000000000E+00 -1.757088451E+03  1.757088451E+03  0.000000000E+00  0.00000E+00  9.000E+00
      25     1     1     2     0     0  3.584716520E+01  6.703058402E+00 -1.010538463E+02  1.648236333E+02  1.250000000E+02  0.00000E+00  9.000E+00
      25     1     1     2     0     0 -6.627800325E+01 -1.798257047E+01 -1.430712627E+03  1.437803800E+03  1.250000000E+02  0.00000E+00  9.000E+00
      21     1     1     2   511   501  3.043083805E+01  1.127951206E+01 -1.885048329E+02  1.912781621E+02  0.000000000E+00  0.00000E+00  9.000E+00
#rwgt            1           1   4.5998856937956648E-002           3      101841           0
</event>
<event>
      5   9999  3.79277E-02  2.58756E+01 -1.00000E+00  1.57639E-01
      21    -1     0     0   502   501  0.000000000E+00  0.000000000E+00  5.898514847E+01  5.898514847E+01  0.000000000E+00  0.00000E+00  9.000E+00
      21    -1     0     0   512   502  0.000000000E+00  0.000000000E+00 -2.707990130E+03  2.707990130E+03  0.000000000E+00  0.00000E+00  9.000E+00
      25     1     1     2     0     0 -8.246255733E+01 -7.087548517E+00 -4.883335494E+01  1.576705529E+02  1.250000000E+02  0.00000E+00  9.000E+00
      25     1     1     2     0     0  1.015389487E+02 -1.039491223E+01 -1.469086690E+03  1.477923853E+03  1.250000000E+02  0.00000E+00  9.000E+00
      21     1     1     2   512   501 -1.907639142E+01  1.748246075E+01 -1.131084936E+03  1.131380872E+03  0.000000000E+00  0.00000E+00  9.000E+00
#rwgt            1           1   4.6200497206152553E-002           3      102045           0
</event>
<event>
      5   9999  3.79277E-02  1.91434E+01 -1.00000E+00  1.67953E-01
      21    -1     0     0   502   511  0.000000000E+00  0.000000000E+00  7.027313961E+02  7.027313961E+02  0.000000000E+00  0.00000E+00  9.000E+00
      21    -1     0     0   501   502  0.000000000E+00  0.000000000E+00 -1.478370958E+02  1.478370958E+02  0.000000000E+00  0.00000E+00  9.000E+00
      25     1     1     2     0     0  8.730328507E+01 -7.357696432E+01  6.979120192E+01  1.831153875E+02  1.250000000E+02  0.00000E+00  9.000E+00
      25     1     1     2     0     0 -1.026897618E+02  6.218722297E+01 -8.459444237E+00  1.735194516E+02  1.250000000E+02  0.00000E+00  9.000E+00
      21     1     1     2   501   511  1.538647677E+01  1.138974135E+01  4.935625427E+02  4.939336528E+02  9.344061824E-06  0.00000E+00  9.000E+00
#rwgt            1           1   3.7191555365176841E-002           3      102243           0
</event>
<event>
      5   9999 -3.79277E-02  6.36955E+01 -1.00000E+00  1.33331E-01
      21    -1     0     0   502   501  0.000000000E+00  0.000000000E+00  5.414571733E+02  5.414571733E+02  0.000000000E+00  0.00000E+00  9.000E+00
       2    -1     0     0   501     0  0.000000000E+00  0.000000000E+00 -1.200235335E+03  1.200235335E+03  0.000000000E+00  0.00000E+00  9.000E+00
      25     1     1     2     0     0 -2.075807192E+02 -2.014508862E+01  2.156069177E+02  3.249721873E+02  1.250000000E+02  0.00000E+00  9.000E+00
      25     1     1     2     0     0  2.405408111E+02  7.464968943E+01  1.970805688E+02  3.433630856E+02  1.250000000E+02  0.00000E+00  9.000E+00
       2     1     1     2   502     0 -3.296009192E+01 -5.450460081E+01 -1.071465648E+03  1.073357235E+03  0.000000000E+00  0.00000E+00  9.000E+00
#rwgt            1           1 -0.12952749913681369                3      102476           0
</event>
<event>
      5   9999  3.79277E-02  1.52393E+01 -1.00000E+00  1.76738E-01
      21    -1     0     0   502   501  0.000000000E+00  0.000000000E+00  7.515531226E+01  7.515531226E+01  0.000000000E+00  0.00000E+00  9.000E+00
      21    -1     0     0   511   502  0.000000000E+00  0.000000000E+00 -6.082559433E+02  6.082559433E+02  0.000000000E+00  0.00000E+00  9.000E+00
      25     1     1     2     0     0  1.199524440E+02 -1.215837943E+02 -2.414165110E+02  3.210578447E+02  1.250000000E+02  0.00000E+00  9.000E+00
      25     1     1     2     0     0 -1.096318747E+02  1.103711757E+02 -2.669014311E+02  3.332601361E+02  1.250000000E+02  0.00000E+00  9.000E+00
      21     1     1     2   511   501 -1.032056929E+01  1.121261864E+01 -2.478268897E+01  2.909327483E+01  4.768371582E-07  0.00000E+00  9.000E+00
#rwgt            1           1   3.6213300696004300E-002           3      102557           0
</event>
<event>
      5   9999  3.79277E-02  7.62339E+01 -1.00000E+00  1.29371E-01
      21    -1     0     0   502   501  0.000000000E+00  0.000000000E+00  1.489373220E+03  1.489373220E+03  0.000000000E+00  0.00000E+00  9.000E+00
      21    -1     0     0   501   512  0.000000000E+00  0.000000000E+00 -9.721137752E+01  9.721137752E+01  0.000000000E+00  0.00000E+00  9.000E+00
      25     1     1     2     0     0  8.725120205E+01  1.091354644E+02  1.127681029E+03  1.143159143E+03  1.250000000E+02  0.00000E+00  9.000E+00
      25     1     1     2     0     0 -1.150812991E+01 -1.177724610E+02  3.100393828E+02  3.546155785E+02  1.250000000E+02  0.00000E+00  9.000E+00
      21     1     1     2   502   512 -7.574307213E+01  8.636996612E+00 -4.555857024E+01  8.880987563E+01  9.536743164E-07  0.00000E+00  9.000E+00
#rwgt            1           1   4.1990029917475198E-002           3      102826           0
</event>
<event>
      5   9999 -3.79277E-02  1.43629E+01 -1.00000E+00  1.79178E-01
      21    -1     0     0   511   501  0.000000000E+00  0.000000000E+00  1.167707861E+02  1.167707861E+02  0.000000000E+00  0.00000E+00  9.000E+00
      21    -1     0     0   501   502  0.000000000E+00  0.000000000E+00 -7.333066179E+02  7.333066179E+02  0.000000000E+00  0.00000E+00  9.000E+00
      25     1     1     2     0     0  1.248612845E+02 -2.259850050E+02 -2.562004058E+02  3.846078663E+02  1.250000000E+02  0.00000E+00  9.000E+00
      25     1     1     2     0     0 -1.305728854E+02  2.128065826E+02 -3.502271351E+02  4.479062024E+02  1.250000000E+02  0.00000E+00  9.000E+00
      21     1     1     2   511   502  5.711600882E+00  1.317842244E+01 -1.010829093E+01  1.756333533E+01  3.576278687E-07  0.00000E+00  9.000E+00
#rwgt            1           1  -1.2527574114910936E-002           3      103030           0
</event>
<event>
      5   9999  3.79277E-02  4.75674E+01 -1.00000E+00  1.40323E-01
      21    -1     0     0   502   501  0.000000000E+00  0.000000000E+00  2.785028911E+02  2.785028911E+02  0.000000000E+00  0.00000E+00  9.000E+00
      21    -1     0     0   501   512  0.000000000E+00  0.000000000E+00 -3.295884455E+02  3.295884455E+02  0.000000000E+00  0.00000E+00  9.000E+00
      25     1     1     2     0     0 -7.681809238E+01 -1.294215481E+02  5.271626175E+01  2.026202376E+02  1.250000000E+02  0.00000E+00  9.000E+00
      25     1     1     2     0     0  1.085295833E+02  1.648762840E+02  5.472300382E+01  2.399634693E+02  1.250000000E+02  0.00000E+00  9.000E+00
      21     1     1     2   502   512 -3.171149088E+01 -3.545473593E+01 -1.585248199E+02  1.655076297E+02  1.907348633E-06  0.00000E+00  9.000E+00
#rwgt            1           1   3.8890054573487660E-002           3      103467           0
</event>
<event>
      5   9999  3.79277E-02  1.14151E+02 -1.00000E+00  1.21297E-01
      21    -1     0     0   502   511  0.000000000E+00  0.000000000E+00  1.798529488E+02  1.798529488E+02  0.000000000E+00  0.00000E+00  9.000E+00
      21    -1     0     0   501   502  0.000000000E+00  0.000000000E+00 -5.419607126E+02  5.419607126E+02  0.000000000E+00  0.00000E+00  9.000E+00
      25     1     1     2     0     0 -7.471196069E+01 -1.491760923E+02 -1.521542166E+02  2.580916295E+02  1.250000000E+02  0.00000E+00  9.000E+00
      25     1     1     2     0     0 -1.580171198E+01  2.187294044E+02 -2.371801272E+02  3.463692526E+02  1.250000000E+02  0.00000E+00  9.000E+00
      21     1     1     2   501   511  9.051367267E+01 -6.955331210E+01  2.722657995E+01  1.173527793E+02  1.215700987E-06  0.00000E+00  9.000E+00
#rwgt            2          11   2.4253275507057598E-003           3      103559           0
</event>
<event>
      5   9999  3.79277E-02  3.80312E+01 -1.00000E+00  1.46213E-01
      21    -1     0     0   502   512  0.000000000E+00  0.000000000E+00  1.413374187E+02  1.413374187E+02  0.000000000E+00  0.00000E+00  9.000E+00
      21    -1     0     0   501   502  0.000000000E+00  0.000000000E+00 -2.548010604E+02  2.548010604E+02  0.000000000E+00  0.00000E+00  9.000E+00
      25     1     1     2     0     0  5.774273759E+01  7.745493780E+01 -9.543973687E+01  1.845731143E+02  1.250000000E+02  0.00000E+00  9.000E+00
      25     1     1     2     0     0 -8.696596421E+01 -5.311625547E+01 -4.194110717E+01  1.666387470E+02  1.250000000E+02  0.00000E+00  9.000E+00
      21     1     1     2   501   512  2.922322662E+01 -2.433868233E+01  2.391720235E+01  4.492661794E+01  7.539457465E-07  0.00000E+00  9.000E+00
#rwgt            1           1   2.8950130938162656E-002           3      103669           0
</event>
<event>
      5   9999  3.79277E-02  9.32551E+01 -1.00000E+00  1.25207E-01
       1    -1     0     0   502     0  0.000000000E+00  0.000000000E+00  3.562250507E+02  3.562250507E+02  0.000000000E+00  0.00000E+00  9.000E+00
      21    -1     0     0   501   502  0.000000000E+00  0.000000000E+00 -1.558896753E+03  1.558896753E+03  0.000000000E+00  0.00000E+00  9.000E+00
      25     1     1     2     0     0 -9.011690004E+01 -4.758992755E+01 -1.040858921E+03  1.053279712E+03  1.250000000E+02  0.00000E+00  9.000E+00
      25     1     1     2     0     0  8.355728062E+00  9.244108562E+01 -4.934048650E+02  5.173862516E+02  1.250000000E+02  0.00000E+00  9.000E+00
       1     1     1     2   501     0  8.176117197E+01 -4.485115807E+01  3.315920841E+02  3.444558403E+02  5.394796609E-06  0.00000E+00  9.000E+00
#rwgt            1           1   3.6760174309296720E-002           3      103741           0
</event>
<event>
      5   9999  3.79277E-02  1.83708E+02 -1.00000E+00  1.13008E-01
      -1    -1     0     0     0   501  0.000000000E+00  0.000000000E+00  9.364150032E+02  9.364150032E+02  0.000000000E+00  0.00000E+00  9.000E+00
      21    -1     0     0   501   502  0.000000000E+00  0.000000000E+00 -8.234748217E+02  8.234748217E+02  0.000000000E+00  0.00000E+00  9.000E+00
      25     1     1     2     0     0 -8.124932980E+01 -1.224891918E+01 -5.131887684E+02  5.345457901E+02  1.250000000E+02  0.00000E+00  9.000E+00
      25     1     1     2     0     0  1.528807731E+01  1.837063353E+02 -2.472955158E+02  3.328089768E+02  1.250000000E+02  0.00000E+00  9.000E+00
      -1     1     1     2     0   502  6.596125249E+01 -1.714574161E+02  8.734244657E+02  8.925350580E+02  1.525878906E-05  0.00000E+00  9.000E+00
#rwgt            1           1   2.4684414997694991E-002           3      103812           0
</event>
<event>
      5   9999  3.79277E-02  5.81567E+01 -1.00000E+00  1.35432E-01
      21    -1     0     0   502   501  0.000000000E+00  0.000000000E+00  2.619403350E+02  2.619403350E+02  0.000000000E+00  0.00000E+00  9.000E+00
      21    -1     0     0   511   502  0.000000000E+00  0.000000000E+00 -3.569191348E+02  3.569191348E+02  0.000000000E+00  0.00000E+00  9.000E+00
      25     1     1     2     0     0  1.153342372E+02  7.086575943E+01  1.842066803E+02  2.605399071E+02  1.250000000E+02  0.00000E+00  9.000E+00
      25     1     1     2     0     0 -6.273128273E+01 -4.606391395E+01 -1.236930681E+02  1.923072362E+02  1.250000000E+02  0.00000E+00  9.000E+00
      21     1     1     2   511   501 -5.260295447E+01 -2.480184548E+01 -1.554924120E+02  1.660123265E+02  1.907348633E-06  0.00000E+00  9.000E+00
#rwgt            1           1   4.4181137166961815E-002           3      103924           0
</event>
<event>
      5   9999  3.79277E-02  8.26296E+01 -1.00000E+00  1.27673E-01
      21    -1     0     0   502   501  0.000000000E+00  0.000000000E+00  1.389261858E+02  1.389261858E+02  0.000000000E+00  0.00000E+00  9.000E+00
       2    -1     0     0   501     0  0.000000000E+00  0.000000000E+00 -1.291549293E+03  1.291549293E+03  0.000000000E+00  0.00000E+00  9.000E+00
      25     1     1     2     0     0  3.672456389E+01 -3.303419332E+02 -7.655178919E+02  8.438703273E+02  1.250000000E+02  0.00000E+00  9.000E+00
      25     1     1     2     0     0  3.332547075E+01  2.865167240E+02 -1.768553058E+02  3.607010110E+02  1.250000000E+02  0.00000E+00  9.000E+00
       2     1     1     2   502     0 -7.005003465E+01  4.382520924E+01 -2.102499097E+02  2.259041409E+02  2.697398305E-06  0.00000E+00  9.000E+00
#rwgt            1           1   2.8183454506961171E-002           3      104009           0
</event>
<event>
      5   9999  3.79277E-02  1.24842E+01 -1.00000E+00  1.85240E-01
      21    -1     0     0   502   501  0.000000000E+00  0.000000000E+00  1.793214523E+01  1.793214523E+01  0.000000000E+00  0.00000E+00  9.000E+00
      21    -1     0     0   511   502  0.000000000E+00  0.000000000E+00 -2.890885957E+03  2.890885957E+03  0.000000000E+00  0.00000E+00  9.000E+00
      25     1     1     2     0     0 -1.471984542E+02 -5.650817760E+01 -1.388264326E+03  1.402769902E+03  1.250000000E+02  0.00000E+00  9.000E+00
      25     1     1     2     0     0  1.584545523E+02  6.190772807E+01 -1.041323756E+03  1.062506742E+03  1.250000000E+02  0.00000E+00  9.000E+00
      21     1     1     2   511   501 -1.125609806E+01 -5.399550478E+00 -4.433657295E+02  4.435414580E+02  5.394796609E-06  0.00000E+00  9.000E+00
#rwgt            1           1  0.10030973814353800                3      104149           0
</event>
<event>
      5   9999  3.79277E-02  1.22190E+02 -1.00000E+00  1.20036E-01
       2    -1     0     0   502     0  0.000000000E+00  0.000000000E+00  6.601597398E+02  6.601597398E+02  0.000000000E+00  0.00000E+00  9.000E+00
      21    -1     0     0   501   502  0.000000000E+00  0.000000000E+00 -2.496165071E+02  2.496165071E+02  0.000000000E+00  0.00000E+00  9.000E+00
      25     1     1     2     0     0 -1.298120229E+02  4.545146093E+01  6.443818194E+01  1.967086065E+02  1.250000000E+02  0.00000E+00  9.000E+00
      25     1     1     2     0     0  1.219856798E+02  7.648716983E+01 -1.239313415E+02  2.274088183E+02  1.250000000E+02  0.00000E+00  9.000E+00
       2     1     1     2   501     0  7.826343034E+00 -1.219386308E+02  4.700363923E+02  4.856588220E+02  5.394796609E-06  0.00000E+00  9.000E+00
#rwgt            1           1   6.0202399754113345E-002           3      104359           0
</event>
<event>
      5   9999  3.79277E-02  3.79859E+01 -1.00000E+00  1.46246E-01
      21    -1     0     0   511   501  0.000000000E+00  0.000000000E+00  2.151889236E+02  2.151889236E+02  0.000000000E+00  0.00000E+00  9.000E+00
      21    -1     0     0   501   502  0.000000000E+00  0.000000000E+00 -4.226441739E+02  4.226441739E+02  0.000000000E+00  0.00000E+00  9.000E+00
      25     1     1     2     0     0 -1.909035371E+02  1.026774436E+02 -9.878911415E+01  2.690187855E+02  1.250000000E+02  0.00000E+00  9.000E+00
      25     1     1     2     0     0  1.661337871E+02 -7.387829678E+01 -1.821352900E+02  2.861061023E+02  1.250000000E+02  0.00000E+00  9.000E+00
      21     1     1     2   511   502  2.476974999E+01 -2.879914682E+01  7.346915386E+01  8.270820964E+01  9.536743164E-07  0.00000E+00  9.000E+00
#rwgt            1           1   5.7713916701076715E-002           3      104422           0
</event>
<event>
      5   9999 -3.79277E-02  7.25035E+01 -1.00000E+00  1.30452E-01
      21    -1     0     0   502   512  0.000000000E+00  0.000000000E+00  3.637827798E+02  3.637827798E+02  0.000000000E+00  0.00000E+00  9.000E+00
      21    -1     0     0   501   502  0.000000000E+00  0.000000000E+00 -3.050276159E+02  3.050276159E+02  0.000000000E+00  0.00000E+00  9.000E+00
      25     1     1     2     0     0  9.512838740E+01  2.050980787E+02  4.613585984E+01  2.624274177E+02  1.250000000E+02  0.00000E+00  9.000E+00
      25     1     1     2     0     0 -1.241129711E+02 -1.386401576E+02 -1.207214150E+02  2.546051511E+02  1.250000000E+02  0.00000E+00  9.000E+00
      21     1     1     2   501   512  2.898458374E+01 -6.645792110E+01  1.333407191E+02  1.517778269E+02  0.000000000E+00  0.00000E+00  9.000E+00
#rwgt            1           1  -4.6333952125812809E-002           3      104590           0
</event>
<event>
      5   9999  3.79277E-02  9.95460E+00 -1.00000E+00  1.95986E-01
      21    -1     0     0   502   501  0.000000000E+00  0.000000000E+00  2.120854720E+02  2.120854720E+02  0.000000000E+00  0.00000E+00  9.000E+00
      21    -1     0     0   501   511  0.000000000E+00  0.000000000E+00 -2.982034963E+02  2.982034963E+02  0.000000000E+00  0.00000E+00  9.000E+00
      25     1     1     2     0     0  2.120123822E+02 -3.529613831E+01 -6.858436299E+01  2.579222411E+02  1.250000000E+02  0.00000E+00  9.000E+00
      25     1     1     2     0     0 -2.021401828E+02  3.657431088E+01 -1.152840854E+01  2.407410184E+02  1.250000000E+02  0.00000E+00  9.000E+00
      21     1     1     2   502   511 -9.872199416E+00 -1.278172567E+00 -6.005252774E+00  1.162570889E+01  1.460009660E-07  0.00000E+00  9.000E+00
#rwgt            1           1   3.0245100016603174E-002           3      104757           0
</event>
<event>
      5   9999  3.79277E-02  2.50311E+01 -1.00000E+00  1.58710E-01
      21    -1     0     0   512   501  0.000000000E+00  0.000000000E+00  4.278090477E+02  4.278090477E+02  0.000000000E+00  0.00000E+00  9.000E+00
      21    -1     0     0   501   502  0.000000000E+00  0.000000000E+00 -1.352552847E+02  1.352552847E+02  0.000000000E+00  0.00000E+00  9.000E+00
      25     1     1     2     0     0 -1.045644251E+02  3.361388172E+01  1.485524649E+02  2.230615315E+02  1.250000000E+02  0.00000E+00  9.000E+00
      25     1     1     2     0     0  1.062336112E+02 -8.638465525E+00 -2.760977646E+01  1.665758175E+02  1.250000000E+02  0.00000E+00  9.000E+00
      21     1     1     2   512   502 -1.669186115E+00 -2.497541619E+01  1.716110746E+02  1.734269832E+02  2.697398305E-06  0.00000E+00  9.000E+00
#rwgt            1           1   4.1552210303065829E-002           3      104990           0
</event>
<event>
      5   9999  3.79277E-02  3.93953E+01 -1.00000E+00  1.45252E-01
      21    -1     0     0   511   501  0.000000000E+00  0.000000000E+00  7.786406958E+01  7.786406958E+01  0.000000000E+00  0.00000E+00  9.000E+00
      21    -1     0     0   501   502  0.000000000E+00  0.000000000E+00 -9.787572624E+02  9.787572624E+02  0.000000000E+00  0.00000E+00  9.000E+00
      25     1     1     2     0     0 -1.344375002E+02  1.034950492E+02 -4.476445258E+02  4.947679134E+02  1.250000000E+02  0.00000E+00  9.000E+00
      25     1     1     2     0     0  1.183465215E+02 -1.394542950E+02 -4.695742754E+02  5.192093986E+02  1.250000000E+02  0.00000E+00  9.000E+00
      21     1     1     2   511   502  1.609097862E+01  3.595924577E+01  1.632560833E+01  4.264401994E+01  4.768371582E-07  0.00000E+00  9.000E+00
#rwgt            1           1   4.4691740667305649E-002           3      105246           0
</event>
<event>
      5   9999  3.79277E-02  1.79602E+01 -1.00000E+00  1.70318E-01
      21    -1     0     0   502   501  0.000000000E+00  0.000000000E+00  2.839433711E+02  2.839433711E+02  0.000000000E+00  0.00000E+00  9.000E+00
      21    -1     0     0   512   502  0.000000000E+00  0.000000000E+00 -2.133418534E+02  2.133418534E+02  0.000000000E+00  0.00000E+00  9.000E+00
      25     1     1     2     0     0  1.700850889E+02  9.342136357E+01  7.078989681E+01  2.414388083E+02  1.250000000E+02  0.00000E+00  9.000E+00
      25     1     1     2     0     0 -1.845130746E+02 -8.272542316E+01 -2.493178832E+00  2.377389036E+02  1.250000000E+02  0.00000E+00  9.000E+00
      21     1     1     2   512   501  1.442798569E+01 -1.069594041E+01  2.304799626E+00  1.810751263E+01  3.264680848E-07  0.00000E+00  9.000E+00
#rwgt            1           1   3.7763926371682924E-002           3      105385           0
</event>
<event>
      5   9999  3.79277E-02  9.68139E+00 -1.00000E+00  1.97397E-01
      21    -1     0     0   502   511  0.000000000E+00  0.000000000E+00  2.137323982E+01  2.137323982E+01  0.000000000E+00  0.00000E+00  9.000E+00
      21    -1     0     0   501   502  0.000000000E+00  0.000000000E+00 -2.104372088E+03  2.104372088E+03  0.000000000E+00  0.00000E+00  9.000E+00
      25     1     1     2     0     0 -2.609766562E+01  1.036446522E+01 -1.790969888E+03  1.795546338E+03  1.250000000E+02  0.00000E+00  9.000E+00
      25     1     1     2     0     0  3.309724103E+01 -1.705290105E+01 -2.927508782E+02  3.204907261E+02  1.250000000E+02  0.00000E+00  9.000E+00
      21     1     1     2   501   511 -6.999575410E+00  6.688435828E+00  7.219180386E-01  9.708264284E+00  1.264405455E-07  0.00000E+00  9.000E+00
#rwgt            1           1   3.2381132239050536E-002           3      105679           0
</event>
<event>
      5   9999  3.79277E-02  7.46639E+01 -1.00000E+00  1.29818E-01
      21    -1     0     0   512   501  0.000000000E+00  0.000000000E+00  8.521324842E+01  8.521324842E+01  0.000000000E+00  0.00000E+00  9.000E+00
      21    -1     0     0   501   502  0.000000000E+00  0.000000000E+00 -5.042483869E+02  5.042483869E+02  0.000000000E+00  0.00000E+00  9.000E+00
      25     1     1     2     0     0  6.362036557E+01 -8.293664947E+01 -2.139130483E+02  2.689048735E+02  1.250000000E+02  0.00000E+00  9.000E+00
      25     1     1     2     0     0  2.777888276E+00  1.170828752E+02 -1.509151143E+02  2.282903591E+02  1.250000000E+02  0.00000E+00  9.000E+00
      21     1     1     2   512   502 -6.639825384E+01 -3.414622571E+01 -5.420697584E+01  9.226640273E+01  6.743495762E-07  0.00000E+00  9.000E+00
#rwgt            1           1   3.8507739550868801E-002           3      105857           0
</event>
<event>
      5   9999  3.79277E-02  1.54390E+02 -1.00000E+00  1.15899E-01
      21    -1     0     0   502   501  0.000000000E+00  0.000000000E+00  6.965381891E+02  6.965381891E+02  0.000000000E+00  0.00000E+00  9.000E+00
      21    -1     0     0   501   511  0.000000000E+00  0.000000000E+00 -1.229943453E+02  1.229943453E+02  0.000000000E+00  0.00000E+00  9.000E+00
      25     1     1     2     0     0  1.080833004E+02 -5.656643246E+01  2.431359007E+01  1.763460001E+02  1.250000000E+02  0.00000E+00  9.000E+00
      25     1     1     2     0     0  3.836750568E+01  7.696317924E+00  4.258953691E+02  4.455818267E+02  1.250000000E+02  0.00000E+00  9.000E+00
      21     1     1     2   502   511 -1.464508060E+02  4.887011454E+01  1.233348846E+02  1.976047076E+02  3.015782986E-06  0.00000E+00  9.000E+00
#rwgt            2          11   2.3208943462238577E-003           3      106110           0
</event>
<event>
      5   9999  3.79277E-02  6.32087E+01 -1.00000E+00  1.33505E-01
      21    -1     0     0   512   501  0.000000000E+00  0.000000000E+00  1.703182678E+02  1.703182678E+02  0.000000000E+00  0.00000E+00  9.000E+00
      21    -1     0     0   501   502  0.000000000E+00  0.000000000E+00 -6.674044857E+02  6.674044857E+02  0.000000000E+00  0.00000E+00  9.000E+00
      25     1     1     2     0     0 -1.611583773E+02 -1.303033033E+01 -4.691138026E+02  5.116977348E+02  1.250000000E+02  0.00000E+00  9.000E+00
      25     1     1     2     0     0  2.228978584E+02 -5.185967245E-01  3.138200363E+00  2.555749841E+02  1.250000000E+02  0.00000E+00  9.000E+00
      21     1     1     2   512   502 -6.173948106E+01  1.354892706E+01 -3.111061570E+01  7.045003446E+01  9.536743164E-07  0.00000E+00  9.000E+00
#rwgt            1           1   4.1844254716832667E-002           3      106220           0
</event>
<event>
      5   9999  3.79277E-02  1.72415E+02 -1.00000E+00  1.14046E-01
      21    -1     0     0   502   501  0.000000000E+00  0.000000000E+00  8.111224383E+02  8.111224383E+02  0.000000000E+00  0.00000E+00  9.000E+00
      21    -1     0     0   511   502  0.000000000E+00  0.000000000E+00 -4.115580941E+02  4.115580941E+02  0.000000000E+00  0.00000E+00  9.000E+00
      25     1     1     2     0     0 -9.693970481E+01 -2.089807203E+02  2.956776421E+02  3.951208876E+02  1.250000000E+02  0.00000E+00  9.000E+00
      25     1     1     2     0     0 -7.223191276E+00  7.158706539E+01  4.327983024E+02  4.561976030E+02  1.250000000E+02  0.00000E+00  9.000E+00
      21     1     1     2   511   501  1.041628961E+02  1.373936549E+02 -3.289116002E+02  3.713620418E+02  7.629394531E-06  0.00000E+00  9.000E+00
#rwgt            1           1   5.4660717243924899E-002           3      106284           0
</event>
<event>
      5   9999  3.79277E-02  2.60944E+01 -1.00000E+00  1.57370E-01
       2    -1     0     0   502     0  0.000000000E+00  0.000000000E+00  3.458718878E+03  3.458718878E+03  0.000000000E+00  0.00000E+00  9.000E+00
      21    -1     0     0   501   502  0.000000000E+00  0.000000000E+00 -1.310969298E+01  1.310969298E+01  0.000000000E+00  0.00000E+00  9.000E+00
      25     1     1     2     0     0  8.294929954E+01 -1.025393623E+02  2.460241945E+03  2.466943520E+03  1.250000000E+02  0.00000E+00  9.000E+00
      25     1     1     2     0     0 -8.776103525E+01  7.689239199E+01  8.565780421E+02  8.734788959E+02  1.250000000E+02  0.00000E+00  9.000E+00
       2     1     1     2   501     0  4.811735711E+00  2.564697034E+01  1.287891983E+02  1.314061547E+02  1.907348633E-06  0.00000E+00  9.000E+00
#rwgt            1           1   1.5113362347224513E-002           3      106328           0
</event>
<event>
      5   9999 -3.79277E-02  2.97667E+01 -1.00000E+00  1.53276E-01
      21    -1     0     0   511   501  0.000000000E+00  0.000000000E+00  7.099726548E+02  7.099726548E+02  0.000000000E+00  0.00000E+00  9.000E+00
      21    -1     0     0   501   502  0.000000000E+00  0.000000000E+00 -1.545118296E+02  1.545118296E+02  0.000000000E+00  0.00000E+00  9.000E+00
      25     1     1     2     0     0  2.462159333E+01  1.877560052E+02  4.583363884E+02  5.114252490E+02  1.250000000E+02  0.00000E+00  9.000E+00
      25     1     1     2     0     0 -1.037353542E+01 -2.138912501E+02 -3.647759185E+00  2.479826269E+02  1.250000000E+02  0.00000E+00  9.000E+00
      21     1     1     2   511   502 -1.424805790E+01  2.613524493E+01  1.007721959E+02  1.050766085E+02  0.000000000E+00  0.00000E+00  9.000E+00
#rwgt            1           1 -0.21743015619978984                3      106522           0
</event>
<event>
      5   9999  3.79277E-02  7.81684E+01 -1.00000E+00  1.28838E-01
      21    -1     0     0   502   501  0.000000000E+00  0.000000000E+00  1.810781314E+02  1.810781314E+02  0.000000000E+00  0.00000E+00  9.000E+00
      21    -1     0     0   501   512  0.000000000E+00  0.000000000E+00 -3.093793432E+02  3.093793432E+02  0.000000000E+00  0.00000E+00  9.000E+00
      25     1     1     2     0     0  1.638684243E+02 -3.081857844E+01 -6.862972957E+00  2.085059847E+02  1.250000000E+02  0.00000E+00  9.000E+00
      25     1     1     2     0     0 -8.688608202E+01  1.725327910E+01 -2.093616537E+01  1.546292013E+02  1.250000000E+02  0.00000E+00  9.000E+00
      21     1     1     2   502   512 -7.698234231E+01  1.356529934E+01 -1.005020735E+02  1.273222885E+02  1.907348633E-06  0.00000E+00  9.000E+00
#rwgt            1           1   6.2868653240904751E-002           3      106728           0
</event>
<event>
      5   9999  3.79277E-02  6.23408E+01 -1.00000E+00  1.33821E-01
      21    -1     0     0   511   501  0.000000000E+00  0.000000000E+00  2.042424963E+02  2.042424963E+02  0.000000000E+00  0.00000E+00  9.000E+00
      21    -1     0     0   501   502  0.000000000E+00  0.000000000E+00 -3.450649583E+02  3.450649583E+02  0.000000000E+00  0.00000E+00  9.000E+00
      25     1     1     2     0     0 -3.438492671E+01  4.007865041E+01  1.803949121E+01  1.368906302E+02  1.250000000E+02  0.00000E+00  9.000E+00
      25     1     1     2     0     0 -2.491418451E+01 -5.931386430E+01 -2.588637833E+02  2.945747942E+02  1.250000000E+02  0.00000E+00  9.000E+00
      21     1     1     2   511   502  5.929911122E+01  1.923521390E+01  1.000018301E+02  1.178420302E+02  1.348699152E-06  0.00000E+00  9.000E+00
#rwgt            1           1   3.9877425697018111E-002           3      107119           0
</event>
<event>
      5   9999  3.79277E-02  1.17931E+02 -1.00000E+00  1.20690E-01
      21    -1     0     0   502   501  0.000000000E+00  0.000000000E+00  7.839328868E+01  7.839328868E+01  0.000000000E+00  0.00000E+00  9.000E+00
      21    -1     0     0   501   512  0.000000000E+00  0.000000000E+00 -1.232942696E+03  1.232942696E+03  0.000000000E+00  0.00000E+00  9.000E+00
      25     1     1     2     0     0 -1.728495797E+02  1.282521871E+02 -6.219372795E+02  6.698929618E+02  1.250000000E+02  0.00000E+00  9.000E+00
      25     1     1     2     0     0  1.668222997E+02 -1.047579153E+01 -2.021423367E+02  2.905614327E+02  1.250000000E+02  0.00000E+00  9.000E+00
      21     1     1     2   502   512  6.027280082E+00 -1.177763955E+02 -3.304697908E+02  3.508815899E+02  6.607249480E-06  0.00000E+00  9.000E+00
#rwgt            1           1   4.2252540753260570E-002           3      107302           0
</event>
<event>
      5   9999  3.79277E-02  5.89602E+01 -1.00000E+00  1.35110E-01
      21    -1     0     0   502   511  0.000000000E+00  0.000000000E+00  1.199602445E+02  1.199602445E+02  0.000000000E+00  0.00000E+00  9.000E+00
      21    -1     0     0   501   502  0.000000000E+00  0.000000000E+00 -3.208850942E+02  3.208850942E+02  0.000000000E+00  0.00000E+00  9.000E+00
      25     1     1     2     0     0 -4.565419160E+01  5.670734969E+01 -1.331832647E+02  1.966286111E+02  1.250000000E+02  0.00000E+00  9.000E+00
      25     1     1     2     0     0  3.739901418E+01 -1.150867588E+02 -3.758673930E+01  1.779927282E+02  1.250000000E+02  0.00000E+00  9.000E+00
      21     1     1     2   501   511  8.255177413E+00  5.837940914E+01 -3.015484576E+01  6.622399934E+01  1.305872339E-06  0.00000E+00  9.000E+00
#rwgt            1           1   3.0367824749484441E-002           3      107424           0
</event>
<event>
      5   9999  3.79277E-02  2.73506E+01 -1.00000E+00  1.55882E-01
       3    -1     0     0   502     0  0.000000000E+00  0.000000000E+00  1.072605888E+02  1.072605888E+02  0.000000000E+00  0.00000E+00  9.000E+00
      21    -1     0     0   501   502  0.000000000E+00  0.000000000E+00 -1.529596723E+03  1.529596723E+03  0.000000000E+00  0.00000E+00  9.000E+00
      25     1     1     2     0     0 -4.496244078E+01  2.957277928E+01 -1.770485162E+02  2.233099806E+02  1.250000000E+02  0.00000E+00  9.000E+00
      25     1     1     2     0     0  4.043419304E+01 -5.654592248E+01 -1.323234032E+03  1.330941648E+03  1.250000000E+02  0.00000E+00  9.000E+00
       3     1     1     2   501     0  4.528247741E+00  2.697314320E+01  7.794641422E+01  8.260568365E+01  4.264961200E-06  0.00000E+00  9.000E+00
#rwgt            1           1   2.8890773653851481E-002           3      107514           0
</event>
<event>
      5   9999  3.79277E-02  3.29829E+01 -1.00000E+00  1.50234E-01
      21    -1     0     0   502   501  0.000000000E+00  0.000000000E+00  7.105711215E+02  7.105711215E+02  0.000000000E+00  0.00000E+00  9.000E+00
      21    -1     0     0   501   511  0.000000000E+00  0.000000000E+00 -9.513907053E+01  9.513907053E+01  0.000000000E+00  0.00000E+00  9.000E+00
      25     1     1     2     0     0  1.307819521E+02  1.328651427E+02  1.558362903E+02  2.732526569E+02  1.250000000E+02  0.00000E+00  9.000E+00
      25     1     1     2     0     0 -1.028707476E+02 -1.152914032E+02  4.581984965E+02  4.994450526E+02  1.250000000E+02  0.00000E+00  9.000E+00
      21     1     1     2   502   511 -2.791120453E+01 -1.757373946E+01  1.397264204E+00  3.301248255E+01  2.657257691E-07  0.00000E+00  9.000E+00
#rwgt            1           1   1.3004694089029897E-002           3      107654           0
</event>
<event>
      5   9999  3.79277E-02  5.88925E+01 -1.00000E+00  1.35137E-01
      21    -1     0     0   512   501  0.000000000E+00  0.000000000E+00  1.806534112E+03  1.806534112E+03  0.000000000E+00  0.00000E+00  9.000E+00
      21    -1     0     0   501   502  0.000000000E+00  0.000000000E+00 -5.498587711E+02  5.498587711E+02  0.000000000E+00  0.00000E+00  9.000E+00
      25     1     1     2     0     0 -1.622131386E+01  1.048749829E+02 -3.995044603E+02  4.318456980E+02  1.250000000E+02  0.00000E+00  9.000E+00
      25     1     1     2     0     0  3.873626809E+01 -1.592937929E+02 -5.419416617E+01  2.131596082E+02  1.250000000E+02  0.00000E+00  9.000E+00
      21     1     1     2   512   502 -2.251495423E+01  5.441880999E+01  1.710373967E+03  1.711387577E+03  3.051757812E-05  0.00000E+00  9.000E+00
#rwgt            1           1   3.4066785249345338E-002           3      107854           0
</event>
<event>
      5   9999  3.79277E-02  2.22533E+01 -1.00000E+00  1.62632E-01
      21    -1     0     0   502   511  0.000000000E+00  0.000000000E+00  3.460977306E+02  3.460977306E+02  0.000000000E+00  0.00000E+00  9.000E+00
      21    -1     0     0   501   502  0.000000000E+00  0.000000000E+00 -1.625218396E+03  1.625218396E+03  0.000000000E+00  0.00000E+00  9.000E+00
      25     1     1     2     0     0  3.383288184E+01 -4.086503664E+02 -1.249559582E+03  1.321046531E+03  1.250000000E+02  0.00000E+00  9.000E+00
      25     1     1     2     0     0 -4.831538973E+01  3.917545897E+02 -2.129089068E+02  4.655762430E+02  1.250000000E+02  0.00000E+00  9.000E+00
      21     1     1     2   501   511  1.448250789E+01  1.689577670E+01  1.833478236E+02  1.846933532E+02  6.031565972E-06  0.00000E+00  9.000E+00
#rwgt            1           1   8.5714751519208779E-002           3      108019           0
</event>
<event>
      5   9999  3.79277E-02  4.10956E+01 -1.00000E+00  1.44116E-01
       2    -1     0     0   502     0  0.000000000E+00  0.000000000E+00  2.867595117E+03  2.867595117E+03  0.000000000E+00  0.00000E+00  9.000E+00
      21    -1     0     0   501   502  0.000000000E+00  0.000000000E+00 -3.022422754E+01  3.022422754E+01  0.000000000E+00  0.00000E+00  9.000E+00
      25     1     1     2     0     0 -1.575216011E+02  2.488898541E+01  4.465441431E+02  4.903663816E+02  1.250000000E+02  0.00000E+00  9.000E+00
      25     1     1     2     0     0  1.931614121E+02 -4.535004632E+01  1.802156292E+03  1.817349790E+03  1.250000000E+02  0.00000E+00  9.000E+00
       2     1     1     2   501     0 -3.563981091E+01  2.046106091E+01  5.886704549E+02  5.901031737E+02  7.629394531E-06  0.00000E+00  9.000E+00
#rwgt            1           1   5.6491568431595210E-002           3      108272           0
</event>
<event>
      5   9999  3.79277E-02  1.70447E+02 -1.00000E+00  1.14236E-01
      21    -1     0     0   502   501  0.000000000E+00  0.000000000E+00  8.759023307E+02  8.759023307E+02  0.000000000E+00  0.00000E+00  9.000E+00
      21    -1     0     0   501   511  0.000000000E+00  0.000000000E+00 -9.618921031E+01  9.618921031E+01  0.000000000E+00  0.00000E+00  9.000E+00
      25     1     1     2     0     0  6.091306146E+01 -1.461070097E+01  4.316785956E+02  4.537568551E+02  1.250000000E+02  0.00000E+00  9.000E+00
      25     1     1     2     0     0  1.723174116E+01  1.660888779E+02  2.328749318E+02  3.126310639E+02  1.250000000E+02  0.00000E+00  9.000E+00
      21     1     1     2   502   511 -7.814480262E+01 -1.514781769E+02  1.151595930E+02  2.057036220E+02  3.303624740E-06  0.00000E+00  9.000E+00
#rwgt            1           1   5.3216435993641002E-002           3      108411           0
</event>
<event>
      5   9999  3.79277E-02  1.11063E+01 -1.00000E+00  1.90633E-01
      21    -1     0     0   502   512  0.000000000E+00  0.000000000E+00  1.586625047E+02  1.586625047E+02  0.000000000E+00  0.00000E+00  9.000E+00
      21    -1     0     0   501   502  0.000000000E+00  0.000000000E+00 -4.608216505E+02  4.608216505E+02  0.000000000E+00  0.00000E+00  9.000E+00
      25     1     1     2     0     0  8.460785869E+01 -1.587972958E+02 -3.005711608E+02  3.719450143E+02  1.250000000E+02  0.00000E+00  9.000E+00
      25     1     1     2     0     0 -7.359617220E+01  1.602436032E+02 -2.888593938E+01  2.180683526E+02  1.250000000E+02  0.00000E+00  9.000E+00
      21     1     1     2   501   512 -1.101168649E+01 -1.446307404E+00  2.729795441E+01  2.947078824E+01  3.371747881E-07  0.00000E+00  9.000E+00
#rwgt            1           1   2.9265505657411275E-002           3      108498           0
</event>
<event>
      5   9999  3.79277E-02  4.14450E+01 -1.00000E+00  1.43891E-01
      21    -1     0     0   502   511  0.000000000E+00  0.000000000E+00  1.011894340E+03  1.011894340E+03  0.000000000E+00  0.00000E+00  9.000E+00
      21    -1     0     0   501   502  0.000000000E+00  0.000000000E+00 -4.324377770E+01  4.324377770E+01  0.000000000E+00  0.00000E+00  9.000E+00
      25     1     1     2     0     0  3.521902076E+01 -4.458010364E+01  6.641155833E+02  6.781609492E+02  1.250000000E+02  0.00000E+00  9.000E+00
      25     1     1     2     0     0 -1.956561377E+01  8.295536459E+01  1.360429469E+02  2.034627464E+02  1.250000000E+02  0.00000E+00  9.000E+00
      21     1     1     2   501   511 -1.565340699E+01 -3.837526095E+01  1.684920320E+02  1.735144221E+02  2.697398305E-06  0.00000E+00  9.000E+00
#rwgt            1           1   4.7558942933791301E-002           3      108712           0
</event>
<event>
      5   9999  3.79277E-02  1.71464E+01 -1.00000E+00  1.72081E-01
      21    -1     0     0   502   501  0.000000000E+00  0.000000000E+00  2.118026162E+02  2.118026162E+02  0.000000000E+00  0.00000E+00  9.000E+00
      21    -1     0     0   501   512  0.000000000E+00  0.000000000E+00 -2.446181715E+02  2.446181715E+02  0.000000000E+00  0.00000E+00  9.000E+00
      25     1     1     2     0     0 -6.457109776E+01 -1.253664896E+02  1.972874738E+01  1.894740269E+02  1.250000000E+02  0.00000E+00  9.000E+00
      25     1     1     2     0     0  5.351890511E+01  1.384755138E+02  1.747443065E+01  1.948591719E+02  1.250000000E+02  0.00000E+00  9.000E+00
      21     1     1     2   502   512  1.105219266E+01 -1.310902426E+01 -7.001873331E+01  7.208758905E+01  0.000000000E+00  0.00000E+00  9.000E+00
#rwgt            1           1   2.6294781581642078E-002           3      108827           0
</event>
<event>
      5   9999  3.79277E-02  1.12207E+02 -1.00000E+00  1.21619E-01
      21    -1     0     0   502   511  0.000000000E+00  0.000000000E+00  1.083339817E+03  1.083339817E+03  0.000000000E+00  0.00000E+00  9.000E+00
      21    -1     0     0   501   502  0.000000000E+00  0.000000000E+00 -9.428354448E+01  9.428354448E+01  0.000000000E+00  0.00000E+00  9.000E+00
      25     1     1     2     0     0 -4.939154413E+00 -9.074864879E+01  6.992154951E+02  7.160914894E+02  1.250000000E+02  0.00000E+00  9.000E+00
      25     1     1     2     0     0 -9.042249340E+01  1.498811968E+02  9.170092134E+01  2.338261308E+02  1.250000000E+02  0.00000E+00  9.000E+00
      21     1     1     2   501   511  9.536164782E+01 -5.913254796E+01  1.981398562E+02  2.277057415E+02  3.814697266E-06  0.00000E+00  9.000E+00
#rwgt            1           1  0.14322430543907760                3      109021           0
</event>
<event>
      5   9999  3.79277E-02  3.19730E+01 -1.00000E+00  1.51143E-01
       1    -1     0     0   502     0  0.000000000E+00  0.000000000E+00  2.367872831E+03  2.367872831E+03  0.000000000E+00  0.00000E+00  9.000E+00
      21    -1     0     0   501   502  0.000000000E+00  0.000000000E+00 -1.975964936E+01  1.975964936E+01  0.000000000E+00  0.00000E+00  9.000E+00
      25     1     1     2     0     0 -5.656292706E+00  4.603170379E+00  1.169467372E+03  1.176151401E+03  1.250000000E+02  0.00000E+00  9.000E+00
      25     1     1     2     0     0  2.090306094E+01  2.350038880E+01  2.411185420E+02  2.734087737E+02  1.250000000E+02  0.00000E+00  9.000E+00
       1     1     1     2   501     0 -1.524676823E+01 -2.810355918E+01  9.375272677E+02  9.380723062E+02  0.000000000E+00  0.00000E+00  9.000E+00
#rwgt            1           1   5.6366637026037607E-002           3      109138           0
</event>
<event>
      5   9999  3.79277E-02  1.29977E+02 -1.00000E+00  1.18914E-01
      21    -1     0     0   502   511  0.000000000E+00  0.000000000E+00  2.545514878E+02  2.545514878E+02  0.000000000E+00  0.00000E+00  9.000E+00
      21    -1     0     0   501   502  0.000000000E+00  0.000000000E+00 -6.911524139E+02  6.911524139E+02  0.000000000E+00  0.00000E+00  9.000E+00
      25     1     1     2     0     0  2.083090792E+02 -1.509775085E+02 -2.623335358E+02  3.881117939E+02  1.250000000E+02  0.00000E+00  9.000E+00
      25     1     1     2     0     0 -9.492561764E+01  2.145243388E+02 -2.829067059E+02  3.881916654E+02  1.250000000E+02  0.00000E+00  9.000E+00
      21     1     1     2   501   511 -1.133834616E+02 -6.354683026E+01  1.086393156E+02  1.694004425E+02  4.046097457E-06  0.00000E+00  9.000E+00
#rwgt            1           1   3.9164087289613424E-002           3      109293           0
</event>
<event>
      5   9999  3.79277E-02  6.38470E+01 -1.00000E+00  1.33277E-01
      21    -1     0     0   502   501  0.000000000E+00  0.000000000E+00  1.983837158E+02  1.983837158E+02  0.000000000E+00  0.00000E+00  9.000E+00
      21    -1     0     0   512   502  0.000000000E+00  0.000000000E+00 -4.165806055E+02  4.165806055E+02  0.000000000E+00  0.00000E+00  9.000E+00
      25     1     1     2     0     0 -4.626014539E+01  3.419185462E+00  1.364726637E+02  1.907917185E+02  1.250000000E+02  0.00000E+00  9.000E+00
      25     1     1     2     0     0 -1.008890468E+01  2.660131248E+01 -1.027621089E+02  1.642999295E+02  1.250000000E+02  0.00000E+00  9.000E+00
      21     1     1     2   512   501  5.634905007E+01 -3.002049794E+01 -2.519074446E+02  2.598726734E+02  3.814697266E-06  0.00000E+00  9.000E+00
#rwgt            1           1   5.2558567183059311E-002           3      109445           0
</event>
<event>
      5   9999  3.79277E-02  5.06453E+01 -1.00000E+00  1.38759E-01
      21    -1     0     0   502   511  0.000000000E+00  0.000000000E+00  9.826551542E+01  9.826551542E+01  0.000000000E+00  0.00000E+00  9.000E+00
      21    -1     0     0   501   502  0.000000000E+00  0.000000000E+00 -6.483434717E+02  6.483434717E+02  0.000000000E+00  0.00000E+00  9.000E+00
      25     1     1     2     0     0 -1.803716683E+02 -5.037037113E+01 -2.779786012E+02  3.577264538E+02  1.250000000E+02  0.00000E+00  9.000E+00
      25     1     1     2     0     0  1.765286520E+02 -1.288911215E-01 -2.572553994E+02  3.361067124E+02  1.250000000E+02  0.00000E+00  9.000E+00
      21     1     1     2   501   511  3.843016359E+00  5.049926225E+01 -1.484395574E+01  5.277582102E+01  8.920806376E-07  0.00000E+00  9.000E+00
#rwgt            1           1   3.0025893207839275E-002           3      109622           0
</event>
<event>
      5   9999  3.79277E-02  4.20010E+01 -1.00000E+00  1.43538E-01
      21    -1     0     0   502   501  0.000000000E+00  0.000000000E+00  5.652322306E+01  5.652322306E+01  0.000000000E+00  0.00000E+00  9.000E+00
      21    -1     0     0   501   512  0.000000000E+00  0.000000000E+00 -1.040317057E+03  1.040317057E+03  0.000000000E+00  0.00000E+00  9.000E+00
      25     1     1     2     0     0 -1.093704373E+02  7.109175950E+01 -2.855658206E+02  3.379182870E+02  1.250000000E+02  0.00000E+00  9.000E+00
      25     1     1     2     0     0  1.169606265E+02 -1.124012413E+02 -3.305108150E+02  3.888138707E+02  1.250000000E+02  0.00000E+00  9.000E+00
      21     1     1     2   502   512 -7.590189204E+00  4.130948180E+01 -3.677171985E+02  3.701081225E+02  5.394796609E-06  0.00000E+00  9.000E+00
#rwgt            1           1   3.7314851926188462E-002           3      109829           0
</event>
<event>
      5   9999  3.79277E-02  7.22246E+00 -1.00000E+00  2.13651E-01
      21    -1     0     0   502   511  0.000000000E+00  0.000000000E+00  3.150139489E+02  3.150139489E+02  0.000000000E+00  0.00000E+00  9.000E+00
      21    -1     0     0   501   502  0.000000000E+00  0.000000000E+00 -1.111964265E+02  1.111964265E+02  0.000000000E+00  0.00000E+00  9.000E+00
      25     1     1     2     0     0  7.197835545E+01 -1.303083439E+01  1.942217104E+02  2.422762041E+02  1.250000000E+02  0.00000E+00  9.000E+00
      25     1     1     2     0     0 -7.918869960E+01  1.261259734E+01 -2.323735537E+01  1.503160086E+02  1.250000000E+02  0.00000E+00  9.000E+00
      21     1     1     2   501   511  7.210344150E+00  4.182370482E-01  3.283316737E+01  3.361816271E+01  0.000000000E+00  0.00000E+00  9.000E+00
#rwgt            1           1   3.0152174825235890E-002           3      109962           0
</event>
<event>
      5   9999  3.79277E-02  1.21969E+01 -1.00000E+00  1.86288E-01
      21    -1     0     0   502   501  0.000000000E+00  0.000000000E+00  1.619170846E+03  1.619170846E+03  0.000000000E+00  0.00000E+00  9.000E+00
      21    -1     0     0   501   512  0.000000000E+00  0.000000000E+00 -1.261129614E+02  1.261129614E+02  0.000000000E+00  0.00000E+00  9.000E+00
      25     1     1     2     0     0  4.108656674E+01 -6.497137185E+01  1.320102721E+03  1.328234007E+03  1.250000000E+02  0.00000E+00  9.000E+00
      25     1     1     2     0     0 -3.005921238E+01  5.975961706E+01  2.775942211E+02  3.117022933E+02  1.250000000E+02  0.00000E+00  9.000E+00
      21     1     1     2   502   512 -1.102735436E+01  5.211754796E+00 -1.046390571E+02  1.053475069E+02  3.015782986E-06  0.00000E+00  9.000E+00
#rwgt            1           1   4.6894544183864184E-002           3      110359           0
</event>
<event>
      5   9999  3.79277E-02  8.61430E+01 -1.00000E+00  1.26813E-01
       2    -1     0     0   502     0  0.000000000E+00  0.000000000E+00  1.395658814E+03  1.395658814E+03  0.000000000E+00  0.00000E+00  9.000E+00
      21    -1     0     0   501   502  0.000000000E+00  0.000000000E+00 -8.149368085E+01  8.149368085E+01  0.000000000E+00  0.00000E+00  9.000E+00
      25     1     1     2     0     0 -1.267969574E+02 -7.833005326E+01  9.355253107E+01  2.158474964E+02  1.250000000E+02  0.00000E+00  9.000E+00
      25     1     1     2     0     0  1.369141178E+02 -7.216754803E+00  4.626840317E+02  4.984968108E+02  1.250000000E+02  0.00000E+00  9.000E+00
       2     1     1     2   501     0 -1.011716043E+01  8.554680806E+01  7.579285709E+02  7.628081881E+02  1.078959322E-05  0.00000E+00  9.000E+00
#rwgt            1           1   4.1768765779905105E-002           3      110521           0
</event>
<event>
      5   9999  3.79277E-02  4.38141E+01 -1.00000E+00  1.42429E-01
      -2    -1     0     0     0   501  0.000000000E+00  0.000000000E+00  1.575511279E+03  1.575511279E+03  0.000000000E+00  0.00000E+00  9.000E+00
      21    -1     0     0   501   502  0.000000000E+00  0.000000000E+00 -5.455654276E+01  5.455654276E+01  0.000000000E+00  0.00000E+00  9.000E+00
      25     1     1     2     0     0  1.349243815E+02  6.854606894E+00  1.214792147E+03  1.228656394E+03  1.250000000E+02  0.00000E+00  9.000E+00
      25     1     1     2     0     0 -9.301069991E+01  5.909339299E+00  3.195814097E+02  3.555885094E+02  1.250000000E+02  0.00000E+00  9.000E+00
      -2     1     1     2     0   502 -4.191368160E+01 -1.276394619E+01 -1.341882103E+01  4.582291769E+01  6.307962682E-07  0.00000E+00  9.000E+00
#rwgt            1           1   4.8996916853777939E-002           3      110632           0
</event>
<event>
      5   9999  3.79277E-02  9.35833E+01 -1.00000E+00  1.25137E-01
      21    -1     0     0   502   501  0.000000000E+00  0.000000000E+00  9.004269362E+01  9.004269362E+01  0.000000000E+00  0.00000E+00  9.000E+00
      21    -1     0     0   501   511  0.000000000E+00  0.000000000E+00 -6.204151088E+02  6.204151088E+02  0.000000000E+00  0.00000E+00  9.000E+00
      25     1     1     2     0     0  1.232431162E+02 -1.412179235E+00 -1.699155389E+02  2.443095379E+02  1.250000000E+02  0.00000E+00  9.000E+00
      25     1     1     2     0     0 -9.587188669E+01 -8.807889195E+01 -1.459336130E+02  2.321011186E+02  1.250000000E+02  0.00000E+00  9.000E+00
      21     1     1     2   502   511 -2.737122952E+01  8.949107118E+01 -2.145232632E+02  2.340471459E+02  0.000000000E+00  0.00000E+00  9.000E+00
#rwgt            1           1   6.5786599631410009E-002           3      110808           0
</event>
<event>
      5   9999  3.79277E-02  5.88069E+01 -1.00000E+00  1.35171E-01
      21    -1     0     0   502   512  0.000000000E+00  0.000000000E+00  1.581771395E+03  1.581771395E+03  0.000000000E+00  0.00000E+00  9.000E+00
      21    -1     0     0   501   502  0.000000000E+00  0.000000000E+00 -3.360446448E+02  3.360446448E+02  0.000000000E+00  0.00000E+00  9.000E+00
      25     1     1     2     0     0 -1.762506314E+02 -8.541461805E+01 -2.169519953E+02  3.178885187E+02  1.250000000E+02  0.00000E+00  9.000E+00
      25     1     1     2     0     0  1.441689111E+02  3.612958097E+01  7.064727357E+01  2.066544430E+02  1.250000000E+02  0.00000E+00  9.000E+00
      21     1     1     2   501   512  3.208172030E+01  4.928503708E+01  1.392031471E+03  1.393273078E+03  2.157918644E-05  0.00000E+00  9.000E+00
#rwgt            1           1   2.5367140757117750E-002           3      110968           0
</event>
<event>
      5   9999  3.79277E-02  1.15084E+02 -1.00000E+00  1.21144E-01
      21    -1     0     0   502   501  0.000000000E+00  0.000000000E+00  5.493769811E+02  5.493769811E+02  0.000000000E+00  0.00000E+00  9.000E+00
       2    -1     0     0   501     0  0.000000000E+00  0.000000000E+00 -1.091872453E+03  1.091872453E+03  0.000000000E+00  0.00000E+00  9.000E+00
      25     1     1     2     0     0  2.929893214E+01  1.135981813E+02 -3.663650745E+01  1.753003363E+02  1.250000000E+02  0.00000E+00  9.000E+00
      25     1     1     2     0     0  6.360274359E+01 -1.815214809E+02  4.489873845E+02  5.041924518E+02  1.250000000E+02  0.00000E+00  9.000E+00
       2     1     1     2   502     0 -9.290167573E+01  6.792329963E+01 -9.548463490E+02  9.617566461E+02  1.525878906E-05  0.00000E+00  9.000E+00
#rwgt            1           1   3.7853641172144750E-002           3      111158           0
</event>
<event>
      5   9999  3.79277E-02  8.24749E+01 -1.00000E+00  1.27712E-01
      21    -1     0     0   502   501  0.000000000E+00  0.000000000E+00  5.530401940E+01  5.530401940E+01  0.000000000E+00  0.00000E+00  9.000E+00
      -5    -1     0     0     0   502  0.000000000E+00  0.000000000E+00 -1.031765259E+03  1.031765259E+03  0.000000000E+00  0.00000E+00  9.000E+00
      25     1     1     2     0     0  2.146549309E+01 -1.413913598E+02 -5.812642671E+02  6.115107785E+02  1.250000000E+02  0.00000E+00  9.000E+00
      25     1     1     2     0     0  3.276763430E+01  7.925534723E+01 -1.363533799E+02  2.038930409E+02  1.250000000E+02  0.00000E+00  9.000E+00
      -5     1     1     2     0   501 -5.423312740E+01  6.213601260E+01 -2.588435922E+02  2.716654586E+02  3.814697266E-06  0.00000E+00  9.000E+00
#rwgt            1           1   4.3492580666528113E-002           3      111211           0
</event>
<event>
      5   9999  3.79277E-02  3.76030E+01 -1.00000E+00  1.46524E-01
      21    -1     0     0   502   501  0.000000000E+00  0.000000000E+00  4.347540913E+01  4.347540913E+01  0.000000000E+00  0.00000E+00  9.000E+00
      21    -1     0     0   501   511  0.000000000E+00  0.000000000E+00 -2.893391759E+03  2.893391759E+03  0.000000000E+00  0.00000E+00  9.000E+00
      25     1     1     2     0     0 -1.161736708E+02  2.367915415E+01 -2.406168937E+03  2.412328953E+03  1.250000000E+02  0.00000E+00  9.000E+00
      25     1     1     2     0     0  8.129181591E+01 -3.772350539E+01 -1.110105908E+02  1.896833505E+02  1.250000000E+02  0.00000E+00  9.000E+00
      21     1     1     2   502   511  3.488185491E+01  1.404435124E+01 -3.327368219E+02  3.348548645E+02  0.000000000E+00  0.00000E+00  9.000E+00
#rwgt            2          11   2.3128275460865709E-003           3      111454           0
</event>
<event>
      5   9999  3.79277E-02  1.33561E+01 -1.00000E+00  1.82268E-01
      21    -1     0     0   502   501  0.000000000E+00  0.000000000E+00  5.242237311E+02  5.242237311E+02  0.000000000E+00  0.00000E+00  9.000E+00
      21    -1     0     0   501   512  0.000000000E+00  0.000000000E+00 -1.279647338E+02  1.279647338E+02  0.000000000E+00  0.00000E+00  9.000E+00
      25     1     1     2     0     0 -9.407402974E+01 -1.290883038E+02  1.084483060E+02  2.299994529E+02  1.250000000E+02  0.00000E+00  9.000E+00
      25     1     1     2     0     0  1.070305468E+02  1.323307581E+02  3.222360200E+02  3.852635722E+02  1.250000000E+02  0.00000E+00  9.000E+00
      21     1     1     2   502   512 -1.295651710E+01 -3.242454284E+00 -3.442532869E+01  3.692543975E+01  1.168007728E-06  0.00000E+00  9.000E+00
#rwgt            1           1   3.1240646795452898E-002           3      111489           0
</event>
<event>
      5   9999  3.79277E-02  4.23853E+01 -1.00000E+00  1.43297E-01
      21    -1     0     0   502   501  0.000000000E+00  0.000000000E+00  6.884910946E+01  6.884910946E+01  0.000000000E+00  0.00000E+00  9.000E+00
      21    -1     0     0   511   502  0.000000000E+00  0.000000000E+00 -1.197126473E+03  1.197126473E+03  0.000000000E+00  0.00000E+00  9.000E+00
      25     1     1     2     0     0 -1.481790460E+02 -5.266095205E+01 -2.186468609E+02  2.969202844E+02  1.250000000E+02  0.00000E+00  9.000E+00
      25     1     1     2     0     0  1.078117967E+02  6.558365666E+01 -2.425669040E+02  3.006464742E+02  1.250000000E+02  0.00000E+00  9.000E+00
      21     1     1     2   511   501  4.036724932E+01 -1.292270460E+01 -6.670635990E+02  6.684088242E+02  1.078959322E-05  0.00000E+00  9.000E+00
#rwgt            1           1   4.0343194212028394E-002           3      111658           0
</event>
<event>
      5   9999  3.79277E-02  4.50351E+01 -1.00000E+00  1.41717E-01
      21    -1     0     0   502   512  0.000000000E+00  0.000000000E+00  3.009303021E+01  3.009303021E+01  0.000000000E+00  0.00000E+00  9.000E+00
      21    -1     0     0   501   502  0.000000000E+00  0.000000000E+00 -1.034413738E+03  1.034413738E+03  0.000000000E+00  0.00000E+00  9.000E+00
      25     1     1     2     0     0  4.625804481E+01  4.898194609E+01 -3.682638888E+02  3.946927027E+02  1.250000000E+02  0.00000E+00  9.000E+00
      25     1     1     2     0     0 -3.852197520E+01 -9.334762675E+01 -5.455083184E+02  5.686844885E+02  1.250000000E+02  0.00000E+00  9.000E+00
      21     1     1     2   501   512 -7.736069614E+00  4.436568067E+01 -9.054850056E+01  1.011295770E+02  1.348699152E-06  0.00000E+00  9.000E+00
#rwgt            1           1  0.11035014745070011                3      111718           0
</event>
<event>
      5   9999  3.79277E-02  2.14730E+01 -1.00000E+00  1.63862E-01
      21    -1     0     0   502   501  0.000000000E+00  0.000000000E+00  6.026517589E+02  6.026517589E+02  0.000000000E+00  0.00000E+00  9.000E+00
      21    -1     0     0   511   502  0.000000000E+00  0.000000000E+00 -5.695832701E+01  5.695832701E+01  0.000000000E+00  0.00000E+00  9.000E+00
      25     1     1     2     0     0  7.022676166E+01 -2.107312441E+01  9.384861168E+01  1.726511991E+02  1.250000000E+02  0.00000E+00  9.000E+00
      25     1     1     2     0     0 -9.070717193E+01  1.462018047E+01  4.259392299E+02  4.533108958E+02  1.250000000E+02  0.00000E+00  9.000E+00
      21     1     1     2   511   501  2.048041026E+01  6.452943949E+00  2.590559038E+01  3.364799107E+01  6.743495762E-07  0.00000E+00  9.000E+00
#rwgt            1           1   4.6130287338558638E-002           3      112007           0
</event>
<event>
      5   9999  3.79277E-02  4.26930E+01 -1.00000E+00  1.43107E-01
      21    -1     0     0   502   501  0.000000000E+00  0.000000000E+00  2.641160715E+02  2.641160715E+02  0.000000000E+00  0.00000E+00  9.000E+00
      21    -1     0     0   501   512  0.000000000E+00  0.000000000E+00 -2.807746843E+02  2.807746843E+02  0.000000000E+00  0.00000E+00  9.000E+00
      25     1     1     2     0     0 -8.278718916E+01 -8.999922774E+01 -8.070908903E+01  1.925942282E+02  1.250000000E+02  0.00000E+00  9.000E+00
      25     1     1     2     0     0  4.695409415E+01  6.678968456E+01  1.769933571E+02  2.315538758E+02  1.250000000E+02  0.00000E+00  9.000E+00
      21     1     1     2   502   512  3.583309501E+01  2.320954318E+01 -1.129428809E+02  1.207426517E+02  1.907348633E-06  0.00000E+00  9.000E+00
#rwgt            1           1   4.0529357254148163E-002           3      112127           0
</event>
<event>
      5   9999  3.79277E-02  9.02172E+01 -1.00000E+00  1.25873E-01
      21    -1     0     0   502   511  0.000000000E+00  0.000000000E+00  4.180187598E+02  4.180187598E+02  0.000000000E+00  0.00000E+00  9.000E+00
      21    -1     0     0   501   502  0.000000000E+00  0.000000000E+00 -4.104104085E+02  4.104104085E+02  0.000000000E+00  0.00000E+00  9.000E+00
      25     1     1     2     0     0  4.200852016E+01  8.739280936E+01 -3.640553259E+02  3.969426901E+02  1.250000000E+02  0.00000E+00  9.000E+00
      25     1     1     2     0     0  2.150027864E+01 -2.331642906E+01  2.160000272E+02  2.515689360E+02  1.250000000E+02  0.00000E+00  9.000E+00
      21     1     1     2   501   511 -6.350879880E+01 -6.407638031E+01  1.556636501E+02  1.799175422E+02  0.000000000E+00  0.00000E+00  9.000E+00
#rwgt            1           1   5.7656290337625551E-002           3      112270           0
</event>
<event>
      5   9999  3.79277E-02  4.30817E+01 -1.00000E+00  1.42869E-01
      21    -1     0     0   502   501  0.000000000E+00  0.000000000E+00  3.609315240E+02  3.609315240E+02  0.000000000E+00  0.00000E+00  9.000E+00
      21    -1     0     0   501   512  0.000000000E+00  0.000000000E+00 -1.739746240E+02  1.739746240E+02  0.000000000E+00  0.00000E+00  9.000E+00
      25     1     1     2     0     0 -1.561740846E+02  7.319890027E+01  2.204255155E+02  3.065303111E+02  1.250000000E+02  0.00000E+00  9.000E+00
      25     1     1     2     0     0  1.132091396E+02 -7.002915397E+01 -3.103263794E+01  1.852253123E+02  1.250000000E+02  0.00000E+00  9.000E+00
      21     1     1     2   502   512  4.296494505E+01 -3.169746295E+00 -2.435977642E+00  4.315052470E+01  9.200184965E-07  0.00000E+00  9.000E+00
#rwgt            1           1   4.3363338150459965E-002           3      112374           0
</event>
<event>
      5   9999  3.79277E-02  1.25250E+01 -1.00000E+00  1.85094E-01
      21    -1     0     0   511   501  0.000000000E+00  0.000000000E+00  8.469225961E+01  8.469225961E+01  0.000000000E+00  0.00000E+00  9.000E+00
      21    -1     0     0   501   502  0.000000000E+00  0.000000000E+00 -1.349295801E+03  1.349295801E+03  0.000000000E+00  0.00000E+00  9.000E+00
      25     1     1     2     0     0  3.403544155E+01  9.284149799E+01 -4.900330672E+02  5.153012342E+02  1.250000000E+02  0.00000E+00  9.000E+00
      25     1     1     2     0     0 -2.589230756E+01 -1.023580021E+02 -8.381059063E+02  8.539286167E+02  1.250000000E+02  0.00000E+00  9.000E+00
      21     1     1     2   511   502 -8.143133990E+00  9.516504140E+00  6.353543255E+01  6.475820930E+01  2.336015456E-06  0.00000E+00  9.000E+00
#rwgt            1           1   6.6535198044802318E-002           3      112466           0
</event>
<event>
      5   9999  3.79277E-02  9.53051E+01 -1.00000E+00  1.24775E-01
      21    -1     0     0   502   512  0.000000000E+00  0.000000000E+00  2.882207432E+02  2.882207432E+02  0.000000000E+00  0.00000E+00  9.000E+00
      21    -1     0     0   501   502  0.000000000E+00  0.000000000E+00 -6.227595433E+02  6.227595433E+02  0.000000000E+00  0.00000E+00  9.000E+00
      25     1     1     2     0     0 -1.051733215E+02 -1.098110395E+02 -2.972428607E+02  3.565083592E+02  1.250000000E+02  0.00000E+00  9.000E+00
      25     1     1     2     0     0  1.600265589E+02  3.187402293E+01 -2.486590131E+02  3.226154951E+02  1.250000000E+02  0.00000E+00  9.000E+00
      21     1     1     2   501   512 -5.485323733E+01  7.793701660E+01  2.113630737E+02  2.318564321E+02  3.814697266E-06  0.00000E+00  9.000E+00
#rwgt            1           1   3.3976351153203334E-002           3      112772           0
</event>
<event>
      5   9999  3.79277E-02  2.02986E+01 -1.00000E+00  1.65840E-01
      21    -1     0     0   502   501  0.000000000E+00  0.000000000E+00  5.630343465E+02  5.630343465E+02  0.000000000E+00  0.00000E+00  9.000E+00
      21    -1     0     0   511   502  0.000000000E+00  0.000000000E+00 -9.118772073E+01  9.118772073E+01  0.000000000E+00  0.00000E+00  9.000E+00
      25     1     1     2     0     0 -5.398295993E+01 -9.526259518E+01  3.403878445E+02  3.787849082E+02  1.250000000E+02  0.00000E+00  9.000E+00
      25     1     1     2     0     0  7.230824902E+01  1.039929047E+02  1.607436435E+02  2.398051835E+02  1.250000000E+02  0.00000E+00  9.000E+00
      21     1     1     2   511   501 -1.832528909E+01 -8.730309505E+00 -2.928486223E+01  3.563197553E+01  7.539457465E-07  0.00000E+00  9.000E+00
#rwgt            1           1   4.6371569349201593E-002           3      113008           0
</event>
<event>
      5   9999 -3.79277E-02  1.05405E+01 -1.00000E+00  1.93151E-01
      21    -1     0     0   502   512  0.000000000E+00  0.000000000E+00  1.506662273E+02  1.506662273E+02  0.000000000E+00  0.00000E+00  9.000E+00
      21    -1     0     0   501   502  0.000000000E+00  0.000000000E+00 -6.278639935E+02  6.278639935E+02  0.000000000E+00  0.00000E+00  9.000E+00
      25     1     1     2     0     0  1.560477554E+02  1.723810728E+02 -1.684555026E+02  3.131587338E+02  1.250000000E+02  0.00000E+00  9.000E+00
      25     1     1     2     0     0 -1.468404604E+02 -1.775121412E+02 -3.417701951E+02  4.307023883E+02  1.250000000E+02  0.00000E+00  9.000E+00
      21     1     1     2   501   512 -9.207295040E+00  5.131068381E+00  3.302793149E+01  3.466909868E+01  8.259061849E-07  0.00000E+00  9.000E+00
#rwgt            1           1 -0.15017036991420005                3      113293           0
</event>
<event>
      5   9999  3.79277E-02  7.71475E+01 -1.00000E+00  1.29117E-01
      21    -1     0     0   502   511  0.000000000E+00  0.000000000E+00  7.933212251E+02  7.933212251E+02  0.000000000E+00  0.00000E+00  9.000E+00
      21    -1     0     0   501   502  0.000000000E+00  0.000000000E+00 -1.120458592E+02  1.120458592E+02  0.000000000E+00  0.00000E+00  9.000E+00
      25     1     1     2     0     0 -1.909023260E+02  4.015504330E+01  2.192954783E+02  3.190166647E+02  1.250000000E+02  0.00000E+00  9.000E+00
      25     1     1     2     0     0  2.496831263E+02  9.810500638E+00  3.203586694E+02  4.250795061E+02  1.250000000E+02  0.00000E+00  9.000E+00
      21     1     1     2   501   511 -5.878080033E+01 -4.996554394E+01  1.416212183E+02  1.612709135E+02  1.907348633E-06  0.00000E+00  9.000E+00
#rwgt            1           1   3.3618234694924594E-002           3      113537           0
</event>
<event>
      5   9999  3.79277E-02  6.60747E+01 -1.00000E+00  1.32503E-01
      21    -1     0     0   502   501  0.000000000E+00  0.000000000E+00  4.530524163E+02  4.530524163E+02  0.000000000E+00  0.00000E+00  9.000E+00
      21    -1     0     0   501   512  0.000000000E+00  0.000000000E+00 -2.100343162E+02  2.100343162E+02  0.000000000E+00  0.00000E+00  9.000E+00
      25     1     1     2     0     0 -1.777667722E+02 -8.161912824E+01 -3.553200106E+01  2.348408621E+02  1.250000000E+02  0.00000E+00  9.000E+00
      25     1     1     2     0     0  1.484886930E+02  2.238515499E+01  3.006612939E+02  3.585696596E+02  1.250000000E+02  0.00000E+00  9.000E+00
      21     1     1     2   502   512  2.927807926E+01  5.923397326E+01 -2.211119273E+01  6.967621084E+01  1.215700987E-06  0.00000E+00  9.000E+00
#rwgt            1           1   3.7967662462040808E-002           3      113675           0
</event>
<event>
      5   9999  3.79277E-02  6.64109E+01 -1.00000E+00  1.32389E-01
      21    -1     0     0   502   501  0.000000000E+00  0.000000000E+00  1.916283296E+02  1.916283296E+02  0.000000000E+00  0.00000E+00  9.000E+00
      -2    -1     0     0     0   502  0.000000000E+00  0.000000000E+00 -8.137051424E+02  8.137051424E+02  0.000000000E+00  0.00000E+00  9.000E+00
      25     1     1     2     0     0 -3.479320632E+01 -1.486657372E+02  5.315233368E+01  2.043581151E+02  1.250000000E+02  0.00000E+00  9.000E+00
      25     1     1     2     0     0  9.748253663E+01  1.267463011E+02 -1.080641823E+02  2.299355068E+02  1.250000000E+02  0.00000E+00  9.000E+00
      -2     1     1     2     0   501 -6.268933031E+01  2.191943605E+01 -5.671649642E+02  5.710398501E+02  0.000000000E+00  0.00000E+00  9.000E+00
#rwgt            1           1   4.9727809089130562E-002           3      113758           0
</event>
<event>
      5   9999  3.79277E-02  1.59180E+02 -1.00000E+00  1.15380E-01
      21    -1     0     0   511   501  0.000000000E+00  0.000000000E+00  3.485713276E+02  3.485713276E+02  0.000000000E+00  0.00000E+00  9.000E+00
      21    -1     0     0   501   502  0.000000000E+00  0.000000000E+00 -3.162050572E+02  3.162050572E+02  0.000000000E+00  0.00000E+00  9.000E+00
      25     1     1     2     0     0 -1.757769658E+02  1.808799410E+02 -1.046959794E+02  3.003353840E+02  1.250000000E+02  0.00000E+00  9.000E+00
      25     1     1     2     0     0  2.735135210E+01 -1.233645999E+02  6.005609500E+01  1.876130473E+02  1.250000000E+02  0.00000E+00  9.000E+00
      21     1     1     2   511   502  1.484256137E+02 -5.751534109E+01  7.700615477E+01  1.768279535E+02  3.438521648E-06  0.00000E+00  9.000E+00
#rwgt            1           1   3.4797831250635090E-002           3      113854           0
</event>
<event>
      5   9999  3.79277E-02  3.81092E+01 -1.00000E+00  1.46157E-01
      21    -1     0     0   502   501  0.000000000E+00  0.000000000E+00  6.772356529E+01  6.772356529E+01  0.000000000E+00  0.00000E+00  9.000E+00
      21    -1     0     0   512   502  0.000000000E+00  0.000000000E+00 -1.198848340E+03  1.198848340E+03  0.000000000E+00  0.00000E+00  9.000E+00
      25     1     1     2     0     0 -6.576355496E+01  7.262421531E+01 -9.298976812E+02  9.433630368E+02  1.250000000E+02  0.00000E+00  9.000E+00
      25     1     1     2     0     0  1.008539095E+02 -5.775888305E+01 -6.647359651E+01  1.831702451E+02  1.250000000E+02  0.00000E+00  9.000E+00
      21     1     1     2   512   501 -3.509035459E+01 -1.486533226E+01 -1.347534975E+02  1.400386239E+02  1.907348633E-06  0.00000E+00  9.000E+00
#rwgt            1           1   5.6420429829236611E-002           3      113939           0
</event>
<event>
      5   9999  3.79277E-02  4.76515E+01 -1.00000E+00  1.40278E-01
      21    -1     0     0   511   501  0.000000000E+00  0.000000000E+00  8.767949500E+02  8.767949500E+02  0.000000000E+00  0.00000E+00  9.000E+00
      21    -1     0     0   501   502  0.000000000E+00  0.000000000E+00 -5.014150715E+02  5.014150715E+02  0.000000000E+00  0.00000E+00  9.000E+00
      25     1     1     2     0     0 -4.930230457E+01 -2.249140649E+02 -1.565631492E+02  3.052115226E+02  1.250000000E+02  0.00000E+00  9.000E+00
      25     1     1     2     0     0  1.457816593E+01  2.575468460E+02 -1.935931862E+02  3.458991509E+02  1.250000000E+02  0.00000E+00  9.000E+00
      21     1     1     2   511   502  3.472413864E+01 -3.263278118E+01  7.255362140E+02  7.270993481E+02  1.078959322E-05  0.00000E+00  9.000E+00
#rwgt            1           1   3.0283192164696146E-002           3      114049           0
</event>
<event>
      5   9999  3.79277E-02  8.37782E+01 -1.00000E+00  1.27387E-01
      21    -1     0     0   502   501  0.000000000E+00  0.000000000E+00  2.865469435E+02  2.865469435E+02  0.000000000E+00  0.00000E+00  9.000E+00
       5    -1     0     0   501     0  0.000000000E+00  0.000000000E+00 -4.401642040E+02  4.401642040E+02  0.000000000E+00  0.00000E+00  9.000E+00
      25     1     1     2     0     0 -1.039138670E+02  1.360245119E+02 -9.755997443E+00  2.121813825E+02  1.250000000E+02  0.00000E+00  9.000E+00
      25     1     1     2     0     0  5.468151464E+01 -6.823835910E+01  1.469958159E+02  2.118473780E+02  1.250000000E+02  0.00000E+00  9.000E+00
       5     1     1     2   502     0  4.923235232E+01 -6.778615278E+01 -2.908570789E+02  3.026823870E+02  0.000000000E+00  0.00000E+00  9.000E+00
#rwgt            1           1   4.3114072704372820E-002           3      114264           0
</event>
<event>
      5   9999  3.79277E-02  2.68389E+01 -1.00000E+00  1.56476E-01
      21    -1     0     0   502   501  0.000000000E+00  0.000000000E+00  9.183929897E+02  9.183929897E+02  0.000000000E+00  0.00000E+00  9.000E+00
      21    -1     0     0   511   502  0.000000000E+00  0.000000000E+00 -1.086162422E+02  1.086162422E+02  0.000000000E+00  0.00000E+00  9.000E+00
      25     1     1     2     0     0  1.073255720E+02  1.697908972E+02  4.501741358E+02  5.085562700E+02  1.250000000E+02  0.00000E+00  9.000E+00
      25     1     1     2     0     0 -8.746761958E+01 -1.878460004E+02  4.014449517E+02  4.687427371E+02  1.250000000E+02  0.00000E+00  9.000E+00
      21     1     1     2   511   501 -1.985795245E+01  1.805510321E+01 -4.184234001E+01  4.971022475E+01  9.536743164E-07  0.00000E+00  9.000E+00
#rwgt            1           1   2.9972992799075303E-002           3      114512           0
</event>
<event>
      5   9999  3.79277E-02  4.50432E+01 -1.00000E+00  1.41713E-01
      21    -1     0     0   502   512  0.000000000E+00  0.000000000E+00  3.792398627E+02  3.792398627E+02  0.000000000E+00  0.00000E+00  9.000E+00
      21    -1     0     0   501   502  0.000000000E+00  0.000000000E+00 -2.282184236E+02  2.282184236E+02  0.000000000E+00  0.00000E+00  9.000E+00
      25     1     1     2     0     0  1.351766660E+02 -1.507358141E+02 -5.031944763E+01  2.432099165E+02  1.250000000E+02  0.00000E+00  9.000E+00
      25     1     1     2     0     0 -1.135146224E+02  1.112434355E+02  5.273447509E+01  2.089655385E+02  1.250000000E+02  0.00000E+00  9.000E+00
      21     1     1     2   501   512 -2.166204355E+01  3.949237864E+01  1.486064116E+02  1.552828312E+02  1.907348633E-06  0.00000E+00  9.000E+00
#rwgt            1           1   2.9755680649741746E-002           3      114729           0
</event>
<event>
      5   9999  3.79277E-02  2.51118E+01 -1.00000E+00  1.58606E-01
      21    -1     0     0   502   501  0.000000000E+00  0.000000000E+00  1.729555583E+02  1.729555583E+02  0.000000000E+00  0.00000E+00  9.000E+00
       2    -1     0     0   501     0  0.000000000E+00  0.000000000E+00 -1.347227015E+03  1.347227015E+03  0.000000000E+00  0.00000E+00  9.000E+00
      25     1     1     2     0     0  1.209462311E+02 -5.305152545E+01  1.029340648E+02  2.089566387E+02  1.250000000E+02  0.00000E+00  9.000E+00
      25     1     1     2     0     0 -9.776937437E+01  4.338533541E+01 -3.851344328E+02  4.188014676E+02  1.250000000E+02  0.00000E+00  9.000E+00
       2     1     1     2   502     0 -2.317685675E+01  9.666190035E+00 -8.920710884E+02  8.924244667E+02  1.078959322E-05  0.00000E+00  9.000E+00
#rwgt            1           1   5.0960743346915853E-002           3      114871           0
</event>
<event>
      5   9999  3.79277E-02  1.69175E+01 -1.00000E+00  1.72599E-01
      21    -1     0     0   502   501  0.000000000E+00  0.000000000E+00  2.963857473E+02  2.963857473E+02  0.000000000E+00  0.00000E+00  9.000E+00
      21    -1     0     0   511   502  0.000000000E+00  0.000000000E+00 -2.726736892E+02  2.726736892E+02  0.000000000E+00  0.00000E+00  9.000E+00
      25     1     1     2     0     0  9.239800310E+01 -2.471590860E+01 -1.750595258E+02  2.354126264E+02  1.250000000E+02  0.00000E+00  9.000E+00
      25     1     1     2     0     0 -7.716462682E+01  1.735741404E+01  2.440122313E+02  2.853465060E+02  1.250000000E+02  0.00000E+00  9.000E+00
      21     1     1     2   511   501 -1.523337628E+01  7.358494557E+00 -4.524064740E+01  4.830030406E+01  4.768371582E-07  0.00000E+00  9.000E+00
#rwgt            1           1   4.4954754177497745E-002           3      115058           0
</event>
<event>
      5   9999  3.79277E-02  2.43057E+01 -1.00000E+00  1.59673E-01
       1    -1     0     0   502     0  0.000000000E+00  0.000000000E+00  7.066890559E+02  7.066890559E+02  0.000000000E+00  0.00000E+00  9.000E+00
      21    -1     0     0   501   502  0.000000000E+00  0.000000000E+00 -6.675801434E+01  6.675801434E+01  0.000000000E+00  0.00000E+00  9.000E+00
      25     1     1     2     0     0 -1.165009283E+02  1.059516214E+02  1.900001983E+02  2.766284290E+02  1.250000000E+02  0.00000E+00  9.000E+00
      25     1     1     2     0     0  9.436322928E+01 -9.591715283E+01  3.668304654E+02  4.102366507E+02  1.250000000E+02  0.00000E+00  9.000E+00
       1     1     1     2   501     0  2.213769905E+01 -1.003446857E+01  8.310037790E+01  8.658199054E+01  9.536743164E-07  0.00000E+00  9.000E+00
#rwgt            1           1   1.5276060105281944E-002           3      115273           0
</event>
<event>
      5   9999  3.79277E-02  9.34488E+01 -1.00000E+00  1.25166E-01
      21    -1     0     0   502   501  0.000000000E+00  0.000000000E+00  1.000793190E+02  1.000793190E+02  0.000000000E+00  0.00000E+00  9.000E+00
      21    -1     0     0   501   511  0.000000000E+00  0.000000000E+00 -1.662343646E+03  1.662343646E+03  0.000000000E+00  0.00000E+00  9.000E+00
      25     1     1     2     0     0  2.047722707E+02  6.951015761E+01 -2.297040844E+02  3.393409956E+02  1.250000000E+02  0.00000E+00  9.000E+00
      25     1     1     2     0     0 -1.762144782E+02 -1.584884010E+02 -3.745483575E+02  4.605231674E+02  1.250000000E+02  0.00000E+00  9.000E+00
      21     1     1     2   502   511 -2.855779254E+01  8.897824338E+01 -9.580118855E+02  9.625588024E+02  1.525878906E-05  0.00000E+00  9.000E+00
#rwgt            2          11   7.8743643578290735E-004           3      115444           0
</event>
<event>
      5   9999  3.79277E-02  2.15511E+01 -1.00000E+00  1.63736E-01
      21    -1     0     0   502   501  0.000000000E+00  0.000000000E+00  8.583481617E+02  8.583481617E+02  0.000000000E+00  0.00000E+00  9.000E+00
       1    -1     0     0   501     0  0.000000000E+00  0.000000000E+00 -5.662186783E+02  5.662186783E+02  0.000000000E+00  0.00000E+00  9.000E+00
      25     1     1     2     0     0 -6.823404412E+01 -2.078979681E+02  2.523555620E+02  3.566311535E+02  1.250000000E+02  0.00000E+00  9.000E+00
      25     1     1     2     0     0  6.376343597E+01  1.868156263E+02  5.289656829E+02  5.782694421E+02  1.250000000E+02  0.00000E+00  9.000E+00
       1     1     1     2   502     0  4.470608155E+00  2.108234188E+01 -4.891917615E+02  4.896662444E+02  5.394796609E-06  0.00000E+00  9.000E+00
#rwgt            1           1   3.7497773174496381E-002           3      115494           0
</event>
<event>
      5   9999  3.79277E-02  9.44798E+01 -1.00000E+00  1.24947E-01
      21    -1     0     0   511   501  0.000000000E+00  0.000000000E+00  2.240037506E+02  2.240037506E+02  0.000000000E+00  0.00000E+00  9.000E+00
      21    -1     0     0   501   502  0.000000000E+00  0.000000000E+00 -1.291408684E+03  1.291408684E+03  0.000000000E+00  0.00000E+00  9.000E+00
      25     1     1     2     0     0  4.014841320E+02 -2.305805726E+02 -3.344214125E+02  5.846533929E+02  1.250000000E+02  0.00000E+00  9.000E+00
      25     1     1     2     0     0 -4.356392492E+02  1.424904884E+02 -6.492827737E+02  8.045360246E+02  1.250000000E+02  0.00000E+00  9.000E+00
      21     1     1     2   511   502  3.415511714E+01  8.809008422E+01 -8.370074721E+01  1.262230171E+02  1.348699152E-06  0.00000E+00  9.000E+00
#rwgt            1           1  0.11293614401880804                3      115707           0
</event>
<event>
      5   9999  3.79277E-02  2.97989E+01 -1.00000E+00  1.53243E-01
      21    -1     0     0   502   501  0.000000000E+00  0.000000000E+00  4.042703121E+02  4.042703121E+02  0.000000000E+00  0.00000E+00  9.000E+00
       2    -1     0     0   501     0  0.000000000E+00  0.000000000E+00 -2.663136695E+02  2.663136695E+02  0.000000000E+00  0.00000E+00  9.000E+00
      25     1     1     2     0     0  1.177720639E+02 -1.002317158E+02  2.787858986E+02  3.424371959E+02  1.250000000E+02  0.00000E+00  9.000E+00
      25     1     1     2     0     0 -1.321309088E+02  7.412045935E+01 -1.294593365E+01  1.968375390E+02  1.250000000E+02  0.00000E+00  9.000E+00
       2     1     1     2   502     0  1.435884489E+01  2.611125646E+01 -1.278833224E+02  1.313092467E+02  0.000000000E+00  0.00000E+00  9.000E+00
#rwgt            1           1   5.5511273871184930E-002           3      115794           0
</event>
<event>
      5   9999  3.79277E-02  3.93998E+01 -1.00000E+00  1.45249E-01
      21    -1     0     0   511   501  0.000000000E+00  0.000000000E+00  9.292724108E+02  9.292724108E+02  0.000000000E+00  0.00000E+00  9.000E+00
      21    -1     0     0   501   502  0.000000000E+00  0.000000000E+00 -1.026361639E+02  1.026361639E+02  0.000000000E+00  0.00000E+00  9.000E+00
      25     1     1     2     0     0  2.072688535E+02  7.130294335E+01  1.509315735E+02  2.940235148E+02  1.250000000E+02  0.00000E+00  9.000E+00
      25     1     1     2     0     0 -1.824748195E+02 -1.019231686E+02  4.799296962E+02  5.381848245E+02  1.250000000E+02  0.00000E+00  9.000E+00
      21     1     1     2   511   502 -2.479403401E+01  3.062022522E+01  1.957749773E+02  1.997002355E+02  3.814697266E-06  0.00000E+00  9.000E+00
#rwgt            1           1   5.1437360691281284E-002           3      115944           0
</event>
<event>
      5   9999  3.79277E-02  1.34324E+01 -1.00000E+00  1.82022E-01
      21    -1     0     0   512   501  0.000000000E+00  0.000000000E+00  3.830678872E+02  3.830678872E+02  0.000000000E+00  0.00000E+00  9.000E+00
      21    -1     0     0   501   502  0.000000000E+00  0.000000000E+00 -1.191665966E+02  1.191665966E+02  0.000000000E+00  0.00000E+00  9.000E+00
      25     1     1     2     0     0 -1.351964733E+02  4.367359230E+00  2.153158026E+02  2.833426461E+02  1.250000000E+02  0.00000E+00  9.000E+00
      25     1     1     2     0     0  1.454829525E+02  4.270759906E+00  2.739328975E+01  1.938012414E+02  1.250000000E+02  0.00000E+00  9.000E+00
      21     1     1     2   512   502 -1.028647915E+01 -8.638119136E+00  2.119219823E+01  2.509059627E+01  2.384185791E-07  0.00000E+00  9.000E+00
#rwgt            1           1   3.3387607401544832E-002           3      116114           0
</event>
<event>
      5   9999 -3.79277E-02  4.97777E+01 -1.00000E+00  1.39186E-01
       2    -1     0     0   502     0  0.000000000E+00  0.000000000E+00  1.499118157E+03  1.499118157E+03  0.000000000E+00  0.00000E+00  9.000E+00
      21    -1     0     0   501   502  0.000000000E+00  0.000000000E+00 -5.765754287E+01  5.765754287E+01  0.000000000E+00  0.00000E+00  9.000E+00
      25     1     1     2     0     0  1.570085229E+02 -1.298190242E+02  2.942403523E+02  3.790871143E+02  1.250000000E+02  0.00000E+00  9.000E+00
      25     1     1     2     0     0 -1.500081663E+02  8.053605126E+01  8.231319047E+02  8.497997635E+02  1.250000000E+02  0.00000E+00  9.000E+00
       2     1     1     2   501     0 -7.000356592E+00  4.928297297E+01  3.240883571E+02  3.278888221E+02  6.607249480E-06  0.00000E+00  9.000E+00
#rwgt            1           1 -0.12441453775289557                3      116396           0
</event>
<event>
      5   9999  3.79277E-02  4.06567E+01 -1.00000E+00  1.44403E-01
      21    -1     0     0   511   501  0.000000000E+00  0.000000000E+00  1.204274007E+03  1.204274007E+03  0.000000000E+00  0.00000E+00  9.000E+00
      21    -1     0     0   501   502  0.000000000E+00  0.000000000E+00 -2.300355267E+02  2.300355267E+02  0.000000000E+00  0.00000E+00  9.000E+00
      25     1     1     2     0     0  1.791565136E+02 -1.800429592E+02  3.088064877E+02  4.189259724E+02  1.250000000E+02  0.00000E+00  9.000E+00
      25     1     1     2     0     0 -1.909659860E+02  1.411391674E+02 -7.119418977E+01  2.776362459E+02  1.250000000E+02  0.00000E+00  9.000E+00
      21     1     1     2   511   502  1.180947233E+01  3.890379178E+01  7.366261828E+02  7.377473157E+02  1.525878906E-05  0.00000E+00  9.000E+00
#rwgt            1           1   3.6022362945086539E-002           3      116548           0
</event>
<event>
      5   9999  3.79277E-02  1.78671E+01 -1.00000E+00  1.70514E-01
      21    -1     0     0   502   512  0.000000000E+00  0.000000000E+00  8.639769960E+02  8.639769960E+02  0.000000000E+00  0.00000E+00  9.000E+00
      21    -1     0     0   501   502  0.000000000E+00  0.000000000E+00 -2.229891684E+02  2.229891684E+02  0.000000000E+00  0.00000E+00  9.000E+00
      25     1     1     2     0     0  7.862784647E+01 -2.117457355E+02 -9.718680960E+01  2.758421119E+02  1.250000000E+02  0.00000E+00  9.000E+00
      25     1     1     2     0     0 -6.360095101E+01  2.020800880E+02  3.810183855E+02  4.535211715E+02  1.250000000E+02  0.00000E+00  9.000E+00
      21     1     1     2   501   512 -1.502689545E+01  9.665647540E+00  3.571562517E+02  3.576028809E+02  6.607249480E-06  0.00000E+00  9.000E+00
#rwgt            1           1   3.1543634679467518E-002           3      116658           0
</event>
<event>
      5   9999  3.79277E-02  2.15058E+02 -1.00000E+00  1.10512E-01
       2    -1     0     0   502     0  0.000000000E+00  0.000000000E+00  1.528823224E+03  1.528823224E+03  0.000000000E+00  0.00000E+00  9.000E+00
      21    -1     0     0   501   502  0.000000000E+00  0.000000000E+00 -1.458153863E+02  1.458153863E+02  0.000000000E+00  0.00000E+00  9.000E+00
      25     1     1     2     0     0 -1.450775556E+02  9.008607089E-01  3.072265553E+00  1.915274066E+02  1.250000000E+02  0.00000E+00  9.000E+00
      25     1     1     2     0     0  1.639036589E+02 -2.151328404E+02  5.472270347E+02  6.230802323E+02  1.250000000E+02  0.00000E+00  9.000E+00
       2     1     1     2   501     0 -1.882610329E+01  2.142319797E+02  8.327085376E+02  8.600309714E+02  1.078959322E-05  0.00000E+00  9.000E+00
#rwgt            1           1   3.9643227376606367E-002           3      116942           0
</event>
<event>
      5   9999  3.79277E-02  2.82608E+01 -1.00000E+00  1.54863E-01
      21    -1     0     0   511   501  0.000000000E+00  0.000000000E+00  1.711299947E+02  1.711299947E+02  0.000000000E+00  0.00000E+00  9.000E+00
      21    -1     0     0   501   502  0.000000000E+00  0.000000000E+00 -6.749506574E+02  6.749506574E+02  0.000000000E+00  0.00000E+00  9.000E+00
      25     1     1     2     0     0 -1.221743074E+02 -6.089480230E+01 -4.827417671E+02  5.170100116E+02  1.250000000E+02  0.00000E+00  9.000E+00
      25     1     1     2     0     0  1.501412333E+02  5.682979182E+01 -1.131160767E+02  2.327923151E+02  1.250000000E+02  0.00000E+00  9.000E+00
      21     1     1     2   511   502 -2.796692585E+01  4.065010479E+00  9.203718113E+01  9.627832551E+01  1.907348633E-06  0.00000E+00  9.000E+00
#rwgt            1           1  0.14840494673380974                3      117004           0
</event>
<event>
      5   9999  3.79277E-02  9.34746E+00 -1.00000E+00  1.99207E-01
      21    -1     0     0   502   512  0.000000000E+00  0.000000000E+00  9.958916516E+02  9.958916516E+02  0.000000000E+00  0.00000E+00  9.000E+00
      21    -1     0     0   501   502  0.000000000E+00  0.000000000E+00 -6.321688975E+01  6.321688975E+01  0.000000000E+00  0.00000E+00  9.000E+00
      25     1     1     2     0     0 -1.189378081E+02  8.446336602E+01  1.447423437E+02  2.405319282E+02  1.250000000E+02  0.00000E+00  9.000E+00
      25     1     1     2     0     0  1.258428885E+02 -9.076375082E+01  6.388198064E+02  6.691713055E+02  1.250000000E+02  0.00000E+00  9.000E+00
      21     1     1     2   501   512 -6.905080361E+00  6.300384796E+00  1.491126118E+02  1.494053078E+02  1.907348633E-06  0.00000E+00  9.000E+00
#rwgt            1           1   2.8688534143479223E-002           3      117164           0
</event>
<event>
      5   9999  3.79277E-02  1.54188E+02 -1.00000E+00  1.15922E-01
      21    -1     0     0   511   501  0.000000000E+00  0.000000000E+00  8.234675901E+02  8.234675901E+02  0.000000000E+00  0.00000E+00  9.000E+00
      21    -1     0     0   501   502  0.000000000E+00  0.000000000E+00 -2.059820129E+02  2.059820129E+02  0.000000000E+00  0.00000E+00  9.000E+00
      25     1     1     2     0     0 -3.093339694E+02 -1.225961828E+01  3.802578412E+02  5.060225574E+02  1.250000000E+02  0.00000E+00  9.000E+00
      25     1     1     2     0     0  1.790157362E+02  9.466855044E+01 -2.972592624E+00  2.379970684E+02  1.250000000E+02  0.00000E+00  9.000E+00
      21     1     1     2   511   502  1.303182332E+02 -8.240893217E+01  2.402003286E+02  2.854299772E+02  4.672030912E-06  0.00000E+00  9.000E+00
#rwgt            2          11   2.2235322338815507E-003           3      117783           0
</event>
<event>
      5   9999  3.79277E-02  1.05801E+02 -1.00000E+00  1.22736E-01
      21    -1     0     0   502   501  0.000000000E+00  0.000000000E+00  1.647838260E+03  1.647838260E+03  0.000000000E+00  0.00000E+00  9.000E+00
      21    -1     0     0   501   512  0.000000000E+00  0.000000000E+00 -5.085708432E+01  5.085708432E+01  0.000000000E+00  0.00000E+00  9.000E+00
      25     1     1     2     0     0  1.628582967E+02 -8.295079671E+01  5.815000030E+02  6.222305946E+02  1.250000000E+02  0.00000E+00  9.000E+00
      25     1     1     2     0     0 -7.653715007E+01  1.441267549E+02  8.845913401E+02  9.081614921E+02  1.250000000E+02  0.00000E+00  9.000E+00
      21     1     1     2   502   512 -8.632114659E+01 -6.117595819E+01  1.308898325E+02  1.683032575E+02  3.303624740E-06  0.00000E+00  9.000E+00
#rwgt            1           1   4.5285274652077025E-002           3      117803           0
</event>
<event>
      5   9999  3.79277E-02  1.85081E+01 -1.00000E+00  1.69196E-01
      21    -1     0     0   502   511  0.000000000E+00  0.000000000E+00  1.304890243E+02  1.304890243E+02  0.000000000E+00  0.00000E+00  9.000E+00
      21    -1     0     0   501   502  0.000000000E+00  0.000000000E+00 -2.909580298E+02  2.909580298E+02  0.000000000E+00  0.00000E+00  9.000E+00
      25     1     1     2     0     0 -7.548841475E+01  9.260634296E+01 -1.118519758E+02  2.059376119E+02  1.250000000E+02  0.00000E+00  9.000E+00
      25     1     1     2     0     0  9.299809556E+01 -9.860316971E+01 -5.985984182E+01  1.938541501E+02  1.250000000E+02  0.00000E+00  9.000E+00
      21     1     1     2   501   511 -1.750968081E+01  5.996826745E+00  1.124281213E+01  2.165529214E+01  4.129530925E-07  0.00000E+00  9.000E+00
#rwgt            1           1   5.3382657172452920E-002           3      117922           0
</event>
<event>
      5   9999  3.79277E-02  1.00823E+02 -1.00000E+00  1.23668E-01
      21    -1     0     0   502   512  0.000000000E+00  0.000000000E+00  1.016951988E+03  1.016951988E+03  0.000000000E+00  0.00000E+00  9.000E+00
      21    -1     0     0   501   502  0.000000000E+00  0.000000000E+00 -2.390816952E+02  2.390816952E+02  0.000000000E+00  0.00000E+00  9.000E+00
      25     1     1     2     0     0  7.355534259E+01 -1.381299730E+02  5.323952109E+01  2.072431530E+02  1.250000000E+02  0.00000E+00  9.000E+00
      25     1     1     2     0     0 -1.743736649E+02  1.390998640E+02 -5.593384117E+01  2.617413642E+02  1.250000000E+02  0.00000E+00  9.000E+00
      21     1     1     2   501   512  1.008183223E+02 -9.698910013E-01  7.805646124E+02  7.870491655E+02  1.078959322E-05  0.00000E+00  9.000E+00
#rwgt            1           1   6.6454196213340741E-002           3      118103           0
</event>
<event>
      5   9999  3.79277E-02  7.50038E+01 -1.00000E+00  1.29720E-01
      21    -1     0     0   511   501  0.000000000E+00  0.000000000E+00  3.531052024E+02  3.531052024E+02  0.000000000E+00  0.00000E+00  9.000E+00
      21    -1     0     0   501   502  0.000000000E+00  0.000000000E+00 -1.952136541E+02  1.952136541E+02  0.000000000E+00  0.00000E+00  9.000E+00
      25     1     1     2     0     0 -1.704757507E+01 -3.422236424E+00 -1.275689291E+02  1.794468255E+02  1.250000000E+02  0.00000E+00  9.000E+00
      25     1     1     2     0     0  8.481214609E+01 -2.872631608E+01  2.250594511E+02  2.725711979E+02  1.250000000E+02  0.00000E+00  9.000E+00
      21     1     1     2   511   502 -6.776457102E+01  3.214855250E+01  6.040102621E+01  9.630083323E+01  1.348699152E-06  0.00000E+00  9.000E+00
#rwgt            1           1   2.6696642954535554E-002           3      118206           0
</event>
<event>
      5   9999  3.79277E-02  1.86405E+02 -1.00000E+00  1.12772E-01
      21    -1     0     0   502   501  0.000000000E+00  0.000000000E+00  4.914339587E+02  4.914339587E+02  0.000000000E+00  0.00000E+00  9.000E+00
       1    -1     0     0   501     0  0.000000000E+00  0.000000000E+00 -5.914770573E+02  5.914770573E+02  0.000000000E+00  0.00000E+00  9.000E+00
      25     1     1     2     0     0 -4.404609412E+01 -1.932954788E+02 -1.051672158E+01  2.346034995E+02  1.250000000E+02  0.00000E+00  9.000E+00
      25     1     1     2     0     0 -1.386439805E+02  1.562649519E+02  3.178155311E+02  4.003406054E+02  1.250000000E+02  0.00000E+00  9.000E+00
       1     1     1     2   502     0  1.826900746E+02  3.703052689E+01 -4.073419081E+02  4.479669111E+02  5.394796609E-06  0.00000E+00  9.000E+00
#rwgt            2          12   3.6680125416111662E-004           3      118295           0
</event>
<event>
      5   9999  3.79277E-02  3.64696E+01 -1.00000E+00  1.47374E-01
      21    -1     0     0   502   511  0.000000000E+00  0.000000000E+00  9.495808953E+01  9.495808953E+01  0.000000000E+00  0.00000E+00  9.000E+00
      21    -1     0     0   501   502  0.000000000E+00  0.000000000E+00 -1.079573609E+03  1.079573609E+03  0.000000000E+00  0.00000E+00  9.000E+00
      25     1     1     2     0     0 -1.650080102E+02  1.980112833E+02 -3.125091774E+02  4.239376106E+02  1.250000000E+02  0.00000E+00  9.000E+00
      25     1     1     2     0     0  1.363613169E+02 -2.205811228E+02 -6.409329875E+02  7.026169191E+02  1.250000000E+02  0.00000E+00  9.000E+00
      21     1     1     2   501   511  2.864669334E+01  2.256983949E+01 -3.117335453E+01  4.797716881E+01  4.768371582E-07  0.00000E+00  9.000E+00
#rwgt            1           1   4.1752336640633811E-002           3      118329           0
</event>
<event>
      5   9999  3.79277E-02  7.82024E+00 -1.00000E+00  2.08969E-01
      21    -1     0     0   512   501  0.000000000E+00  0.000000000E+00  1.606230739E+02  1.606230739E+02  0.000000000E+00  0.00000E+00  9.000E+00
      21    -1     0     0   501   502  0.000000000E+00  0.000000000E+00 -3.685391660E+02  3.685391660E+02  0.000000000E+00  0.00000E+00  9.000E+00
      25     1     1     2     0     0 -9.349667739E+01 -8.591577693E+01  1.896676160E+01  1.791867391E+02  1.250000000E+02  0.00000E+00  9.000E+00
      25     1     1     2     0     0  9.299434848E+01  9.371986199E+01 -2.592653567E+02  3.166621015E+02  1.250000000E+02  0.00000E+00  9.000E+00
      21     1     1     2   512   502  5.023289100E-01 -7.804085056E+00  3.238250290E+01  3.331339929E+01  0.000000000E+00  0.00000E+00  9.000E+00
#rwgt            1           1   4.0450283000743610E-002           3      118470           0
</event>
<event>
      5   9999 -3.79277E-02  6.88915E+01 -1.00000E+00  1.31573E-01
      21    -1     0     0   502   501  0.000000000E+00  0.000000000E+00  6.369243310E+02  6.369243310E+02  0.000000000E+00  0.00000E+00  9.000E+00
      21    -1     0     0   511   502  0.000000000E+00  0.000000000E+00 -3.460576498E+02  3.460576498E+02  0.000000000E+00  0.00000E+00  9.000E+00
      25     1     1     2     0     0 -3.270238432E+02 -9.504791240E+01  4.016137331E+02  5.411998617E+02  1.250000000E+02  0.00000E+00  9.000E+00
      25     1     1     2     0     0  3.263088599E+02  2.616013111E+01 -1.238558410E+02  3.716545357E+02  1.250000000E+02  0.00000E+00  9.000E+00
      21     1     1     2   511   501  7.149832156E-01  6.888778129E+01  1.310878913E+01  7.012758348E+01  1.450243599E-06  0.00000E+00  9.000E+00
#rwgt            1           1  -8.9499227159456407E-002           3      118822           0
</event>
<event>
      5   9999  3.79277E-02  8.09198E+01 -1.00000E+00  1.28110E-01
      21    -1     0     0   502   501  0.000000000E+00  0.000000000E+00  3.628059131E+02  3.628059131E+02  0.000000000E+00  0.00000E+00  9.000E+00
      21    -1     0     0   512   502  0.000000000E+00  0.000000000E+00 -1.605764295E+02  1.605764295E+02  0.000000000E+00  0.00000E+00  9.000E+00
      25     1     1     2     0     0  9.927272435E+01  5.868616428E+01  3.739553871E+01  1.741337589E+02  1.250000000E+02  0.00000E+00  9.000E+00
      25     1     1     2     0     0 -1.784488076E+02 -4.197795353E+01  1.476692965E+02  2.665283224E+02  1.250000000E+02  0.00000E+00  9.000E+00
      21     1     1     2   512   501  7.917608327E+01 -1.670821075E+01  1.716464835E+01  8.272026125E+01  2.023048729E-06  0.00000E+00  9.000E+00
#rwgt            1           1   2.2785638314886607E-002           3      118955           0
</event>
<event>
      5   9999  3.79277E-02  6.36289E+01 -1.00000E+00  1.33355E-01
      21    -1     0     0   502   501  0.000000000E+00  0.000000000E+00  3.020003345E+02  3.020003345E+02  0.000000000E+00  0.00000E+00  9.000E+00
      21    -1     0     0   501   511  0.000000000E+00  0.000000000E+00 -2.580484530E+02  2.580484530E+02  0.000000000E+00  0.00000E+00  9.000E+00
      25     1     1     2     0     0  7.304595107E+01  6.767065540E+01  2.340469380E+02  2.834043008E+02  1.250000000E+02  0.00000E+00  9.000E+00
      25     1     1     2     0     0 -1.349061856E+01 -4.526976622E+01 -1.524034266E+02  2.026897949E+02  1.250000000E+02  0.00000E+00  9.000E+00
      21     1     1     2   502   511 -5.955533252E+01 -2.240088918E+01 -3.769162975E+01  7.395469167E+01  8.259061849E-07  0.00000E+00  9.000E+00
#rwgt            1           1   4.3761390348056602E-002           3      119053           0
</event>
<event>
      5   9999  3.79277E-02  4.25806E+01 -1.00000E+00  1.43176E-01
      21    -1     0     0   512   501  0.000000000E+00  0.000000000E+00  1.476465039E+02  1.476465039E+02  0.000000000E+00  0.00000E+00  9.000E+00
      21    -1     0     0   501   502  0.000000000E+00  0.000000000E+00 -6.255627725E+02  6.255627725E+02  0.000000000E+00  0.00000E+00  9.000E+00
      25     1     1     2     0     0 -1.739319171E+02 -1.328461508E+02 -8.721239648E+01  2.667047312E+02  1.250000000E+02  0.00000E+00  9.000E+00
      25     1     1     2     0     0  1.459903161E+02  1.649767818E+02 -3.886160333E+02  4.638727544E+02  1.250000000E+02  0.00000E+00  9.000E+00
      21     1     1     2   512   502  2.794160098E+01 -3.213063097E+01 -2.087838800E+00  4.263179075E+01  7.627298768E-07  0.00000E+00  9.000E+00
#rwgt            1           1   3.4113139859158169E-002           3      119247           0
</event>
<event>
      5   9999  3.79277E-02  9.67378E+01 -1.00000E+00  1.24479E-01
      21    -1     0     0   502   501  0.000000000E+00  0.000000000E+00  4.131938446E+02  4.131938446E+02  0.000000000E+00  0.00000E+00  9.000E+00
      21    -1     0     0   511   502  0.000000000E+00  0.000000000E+00 -1.822087225E+02  1.822087225E+02  0.000000000E+00  0.00000E+00  9.000E+00
      25     1     1     2     0     0  1.848900672E+02 -6.294090068E+01  1.341387502E+02  2.678882197E+02  1.250000000E+02  0.00000E+00  9.000E+00
      25     1     1     2     0     0 -1.114829749E+02  1.259457134E+02  9.665369246E+01  2.307763261E+02  1.250000000E+02  0.00000E+00  9.000E+00
      21     1     1     2   511   501 -7.340709230E+01 -6.300481275E+01  1.926794595E-01  9.673802124E+01  8.823002269E-07  0.00000E+00  9.000E+00
#rwgt            1           1   3.7955291149360484E-002           3      119445           0
</event>
<event>
      5   9999  3.79277E-02  2.70906E+01 -1.00000E+00  1.56182E-01
      21    -1     0     0   502   501  0.000000000E+00  0.000000000E+00  4.701429712E+02  4.701429712E+02  0.000000000E+00  0.00000E+00  9.000E+00
      21    -1     0     0   501   512  0.000000000E+00  0.000000000E+00 -5.481774037E+01  5.481774037E+01  0.000000000E+00  0.00000E+00  9.000E+00
      25     1     1     2     0     0  6.126343538E+01  4.188625562E+01  2.718348157E+02  3.082642275E+02  1.250000000E+02  0.00000E+00  9.000E+00
      25     1     1     2     0     0 -4.729045545E+01 -1.867723943E+01  1.245813576E+02  1.836593072E+02  1.250000000E+02  0.00000E+00  9.000E+00
      21     1     1     2   502   512 -1.397297993E+01 -2.320901619E+01  1.890905749E+01  3.303717688E+01  4.768371582E-07  0.00000E+00  9.000E+00
#rwgt            1           1   7.1980005175257031E-002           3      119568           0
</event>
<event>
      5   9999  3.79277E-02  2.10700E+01 -1.00000E+00  1.64523E-01
      21    -1     0     0   502   511  0.000000000E+00  0.000000000E+00  3.903880173E+02  3.903880173E+02  0.000000000E+00  0.00000E+00  9.000E+00
      21    -1     0     0   501   502  0.000000000E+00  0.000000000E+00 -1.765037852E+02  1.765037852E+02  0.000000000E+00  0.00000E+00  9.000E+00
      25     1     1     2     0     0  1.342490409E+02  7.673352759E+00  2.918929701E+02  3.448306705E+02  1.250000000E+02  0.00000E+00  9.000E+00
      25     1     1     2     0     0 -1.243127450E+02  1.090655206E+01 -8.955532182E+01  1.980347624E+02  1.250000000E+02  0.00000E+00  9.000E+00
      21     1     1     2   501   511 -9.936295889E+00 -1.857990482E+01  1.154658379E+01  2.402636960E+01  1.685873940E-07  0.00000E+00  9.000E+00
#rwgt            1           1   3.2443750387213990E-002           3      119723           0
</event>
<event>
      5   9999  3.79277E-02  1.43998E+01 -1.00000E+00  1.79071E-01
      21    -1     0     0   502   512  0.000000000E+00  0.000000000E+00  3.413412045E+02  3.413412045E+02  0.000000000E+00  0.00000E+00  9.000E+00
      21    -1     0     0   501   502  0.000000000E+00  0.000000000E+00 -5.456937957E+02  5.456937957E+02  0.000000000E+00  0.00000E+00  9.000E+00
      25     1     1     2     0     0  7.952536684E+01 -3.640271157E+02 -1.314964013E+02  4.144349509E+02  1.250000000E+02  0.00000E+00  9.000E+00
      25     1     1     2     0     0 -9.099130448E+01  3.553157645E+02 -1.338243305E+02  4.099544626E+02  1.250000000E+02  0.00000E+00  9.000E+00
      21     1     1     2   501   512  1.146593764E+01  8.711351275E+00  6.096814057E+01  6.264558669E+01  9.536743164E-07  0.00000E+00  9.000E+00
#rwgt            1           1   4.9664390209707698E-002           3      119946           0
</event>
<event>
      5   9999  3.79277E-02  3.25090E+01 -1.00000E+00  1.50656E-01
      21    -1     0     0   511   501  0.000000000E+00  0.000000000E+00  9.713440439E+02  9.713440439E+02  0.000000000E+00  0.00000E+00  9.000E+00
      21    -1     0     0   501   502  0.000000000E+00  0.000000000E+00 -7.835992909E+01  7.835992909E+01  0.000000000E+00  0.00000E+00  9.000E+00
      25     1     1     2     0     0 -1.064946351E+02  1.851351014E+02  2.251844410E+02  3.345880236E+02  1.250000000E+02  0.00000E+00  9.000E+00
      25     1     1     2     0     0  8.907868839E+01 -1.576847409E+02  6.141674679E+02  6.524003134E+02  1.250000000E+02  0.00000E+00  9.000E+00
      21     1     1     2   511   502  1.741594668E+01 -2.745036050E+01  5.363220593E+01  6.271563603E+01  0.000000000E+00  0.00000E+00  9.000E+00
#rwgt            1           1   3.7168114018401199E-002           3      120314           0
</event>
<event>
      5   9999  3.79277E-02  2.51006E+01 -1.00000E+00  1.58620E-01
      21    -1     0     0   512   501  0.000000000E+00  0.000000000E+00  1.330600392E+02  1.330600392E+02  0.000000000E+00  0.00000E+00  9.000E+00
      21    -1     0     0   501   502  0.000000000E+00  0.000000000E+00 -5.210571580E+02  5.210571580E+02  0.000000000E+00  0.00000E+00  9.000E+00
      25     1     1     2     0     0  1.503486059E+02  6.622011169E+01 -2.146335461E+02  2.977958455E+02  1.250000000E+02  0.00000E+00  9.000E+00
      25     1     1     2     0     0 -1.747353852E+02 -7.216345606E+01 -2.119411255E+02  3.102967288E+02  1.250000000E+02  0.00000E+00  9.000E+00
      21     1     1     2   512   502  2.438677924E+01  5.943344369E+00  3.857755276E+01  4.602462298E+01  0.000000000E+00  0.00000E+00  9.000E+00
#rwgt            1           1   3.1788853277073703E-002           3      120521           0
</event>
<event>
      5   9999  3.79277E-02  5.81800E+01 -1.00000E+00  1.35422E-01
      21    -1     0     0   502   501  0.000000000E+00  0.000000000E+00  7.546228406E+02  7.546228406E+02  0.000000000E+00  0.00000E+00  9.000E+00
      21    -1     0     0   511   502  0.000000000E+00  0.000000000E+00 -9.119046324E+01  9.119046324E+01  0.000000000E+00  0.00000E+00  9.000E+00
      25     1     1     2     0     0  1.585386657E+00 -1.446600843E+02  3.186841347E+02  3.716364233E+02  1.250000000E+02  0.00000E+00  9.000E+00
      25     1     1     2     0     0  1.406410283E+01  8.862435518E+01  3.773275079E+02  4.074961638E+02  1.250000000E+02  0.00000E+00  9.000E+00
      21     1     1     2   511   501 -1.564948949E+01  5.603572910E+01 -3.257926522E+01  6.668071669E+01  2.477718555E-06  0.00000E+00  9.000E+00
#rwgt            1           1   3.7213201612227277E-002           3      120653           0
</event>
<event>
      5   9999  3.79277E-02  4.13517E+01 -1.00000E+00  1.43951E-01
      21    -1     0     0   502   512  0.000000000E+00  0.000000000E+00  2.541064219E+02  2.541064219E+02  0.000000000E+00  0.00000E+00  9.000E+00
      21    -1     0     0   501   502  0.000000000E+00  0.000000000E+00 -1.842629995E+02  1.842629995E+02  0.000000000E+00  0.00000E+00  9.000E+00
      25     1     1     2     0     0 -7.071949168E+01 -3.380326153E+01 -1.112916987E+02  1.848100354E+02  1.250000000E+02  0.00000E+00  9.000E+00
      25     1     1     2     0     0  3.057140663E+01  4.370732545E+01  1.435737024E+02  1.976950916E+02  1.250000000E+02  0.00000E+00  9.000E+00
      21     1     1     2   501   512  4.014808505E+01 -9.904063924E+00  3.756141870E+01  5.586429441E+01  0.000000000E+00  0.00000E+00  9.000E+00
#rwgt            1           1   4.8327168585956704E-002           3      120871           0
</event>
<event>
      5   9999  3.79277E-02  2.02349E+01 -1.00000E+00  1.65952E-01
      21    -1     0     0   502   501  0.000000000E+00  0.000000000E+00  1.937188849E+02  1.937188849E+02  0.000000000E+00  0.00000E+00  9.000E+00
      21    -1     0     0   501   511  0.000000000E+00  0.000000000E+00 -5.112688370E+02  5.112688370E+02  0.000000000E+00  0.00000E+00  9.000E+00
      25     1     1     2     0     0  1.308948554E+02 -6.919137349E+01 -2.364923753E+02  3.057360838E+02  1.250000000E+02  0.00000E+00  9.000E+00
      25     1     1     2     0     0 -1.505433257E+02  6.435533619E+01  9.158459148E+01  2.254276816E+02  1.250000000E+02  0.00000E+00  9.000E+00
      21     1     1     2   502   511  1.964847038E+01  4.836037292E+00 -1.726421682E+02  1.738239566E+02  1.907348633E-06  0.00000E+00  9.000E+00
#rwgt            1           1   4.4609328023496805E-002           3      120963           0
</event>
<event>
      5   9999  3.79277E-02  1.38805E+01 -1.00000E+00  1.80617E-01
      21    -1     0     0   502   501  0.000000000E+00  0.000000000E+00  1.477483901E+02  1.477483901E+02  0.000000000E+00  0.00000E+00  9.000E+00
      21    -1     0     0   512   502  0.000000000E+00  0.000000000E+00 -6.635842186E+02  6.635842186E+02  0.000000000E+00  0.00000E+00  9.000E+00
      25     1     1     2     0     0 -1.850347687E+02  1.753306537E+01 -4.825789457E+02  5.320269851E+02  1.250000000E+02  0.00000E+00  9.000E+00
      25     1     1     2     0     0  1.977474868E+02 -1.196046296E+01  9.410793841E+00  2.344369515E+02  1.250000000E+02  0.00000E+00  9.000E+00
      21     1     1     2   512   501 -1.271271814E+01 -5.572602411E+00 -4.266767671E+01  4.486867210E+01  4.768371582E-07  0.00000E+00  9.000E+00
#rwgt            1           1   4.5253178679142948E-002           3      121162           0
</event>
<event>
      5   9999  3.79277E-02  1.43337E+02 -1.00000E+00  1.17181E-01
      21    -1     0     0   502   501  0.000000000E+00  0.000000000E+00  8.183544196E+02  8.183544196E+02  0.000000000E+00  0.00000E+00  9.000E+00
      21    -1     0     0   511   502  0.000000000E+00  0.000000000E+00 -1.746051875E+02  1.746051875E+02  0.000000000E+00  0.00000E+00  9.000E+00
      25     1     1     2     0     0  4.516597019E+01  1.035712990E+02  9.163501233E+01  1.918044690E+02  1.250000000E+02  0.00000E+00  9.000E+00
      25     1     1     2     0     0  2.167521399E+01  2.322666976E+01  6.265196279E+02  6.396570466E+02  1.250000000E+02  0.00000E+00  9.000E+00
      21     1     1     2   511   501 -6.684118418E+01 -1.267979688E+02 -7.440540814E+01  1.614980915E+02  3.303624740E-06  0.00000E+00  9.000E+00
#rwgt            1           1   5.2228101798226373E-002           3      121416           0
</event>
<event>
      5   9999  3.79277E-02  1.20022E+02 -1.00000E+00  1.20365E-01
      21    -1     0     0   512   501  0.000000000E+00  0.000000000E+00  1.525034254E+03  1.525034254E+03  0.000000000E+00  0.00000E+00  9.000E+00
      21    -1     0     0   501   502  0.000000000E+00  0.000000000E+00 -1.754131150E+03  1.754131150E+03  0.000000000E+00  0.00000E+00  9.000E+00
      25     1     1     2     0     0  2.778538336E+02 -6.955965819E+00 -2.996670222E+02  4.274066711E+02  1.250000000E+02  0.00000E+00  9.000E+00
      25     1     1     2     0     0 -2.718290060E+02  1.268265455E+02 -1.369078093E+03  1.407116130E+03  1.250000000E+02  0.00000E+00  9.000E+00
      21     1     1     2   512   502 -6.024827536E+00 -1.198705797E+02  1.439648219E+03  1.444642602E+03  2.157918644E-05  0.00000E+00  9.000E+00
#rwgt            1           1   3.3329833200099836E-002           3      121477           0
</event>
<event>
      5   9999  3.79277E-02  5.77470E+01 -1.00000E+00  1.35598E-01
      21    -1     0     0   502   511  0.000000000E+00  0.000000000E+00  7.762806458E+02  7.762806458E+02  0.000000000E+00  0.00000E+00  9.000E+00
      21    -1     0     0   501   502  0.000000000E+00  0.000000000E+00 -1.643602754E+02  1.643602754E+02  0.000000000E+00  0.00000E+00  9.000E+00
      25     1     1     2     0     0 -1.178420240E+02 -4.535568303E+01 -8.767116687E+01  1.981290340E+02  1.250000000E+02  0.00000E+00  9.000E+00
      25     1     1     2     0     0  6.135958453E+01  3.333678169E+01  2.412009457E+02  2.804981922E+02  1.250000000E+02  0.00000E+00  9.000E+00
      21     1     1     2   501   511  5.648243944E+01  1.201890134E+01  4.583905916E+02  4.620136951E+02  0.000000000E+00  0.00000E+00  9.000E+00
#rwgt            1           1   3.8753268957223683E-002           3      121725           0
</event>
<event>
      5   9999  3.79277E-02  6.00404E+01 -1.00000E+00  1.34688E-01
       2    -1     0     0   502     0  0.000000000E+00  0.000000000E+00  2.889874472E+02  2.889874472E+02  0.000000000E+00  0.00000E+00  9.000E+00
      21    -1     0     0   501   502  0.000000000E+00  0.000000000E+00 -1.795385600E+02  1.795385600E+02  0.000000000E+00  0.00000E+00  9.000E+00
      25     1     1     2     0     0 -1.370175405E+02 -4.901471179E+01 -2.868291641E+01  1.939689616E+02  1.250000000E+02  0.00000E+00  9.000E+00
      25     1     1     2     0     0  1.207390351E+02 -8.776776251E+00  8.199868817E+01  1.923635393E+02  1.250000000E+02  0.00000E+00  9.000E+00
       2     1     1     2   501     0  1.627850536E+01  5.779148804E+01  5.613311544E+01  8.219350629E+01  9.536743164E-07  0.00000E+00  9.000E+00
#rwgt            1           1   2.4327367342637574E-002           3      121841           0
</event>
<event>
      5   9999  3.79277E-02  5.32439E+01 -1.00000E+00  1.37536E-01
      21    -1     0     0   502   501  0.000000000E+00  0.000000000E+00  1.854556086E+02  1.854556086E+02  0.000000000E+00  0.00000E+00  9.000E+00
      -3    -1     0     0     0   502  0.000000000E+00  0.000000000E+00 -4.724016228E+02  4.724016228E+02  0.000000000E+00  0.00000E+00  9.000E+00
      25     1     1     2     0     0 -1.215827921E+00 -1.725020838E+02 -6.394832751E+01  2.224248991E+02  1.250000000E+02  0.00000E+00  9.000E+00
      25     1     1     2     0     0  4.774371115E+01  1.466164381E+02  7.724082413E+00  1.986466796E+02  1.250000000E+02  0.00000E+00  9.000E+00
      -3     1     1     2     0   501 -4.652788323E+01  2.588564564E+01 -2.307217691E+02  2.367856527E+02  0.000000000E+00  0.00000E+00  9.000E+00
#rwgt            1           1   3.4784740211755490E-002           3      121955           0
</event>
<event>
      5   9999  3.79277E-02  6.51424E+00 -1.00000E+00  2.20065E-01
      21    -1     0     0   511   501  0.000000000E+00  0.000000000E+00  1.311250642E+02  1.311250642E+02  0.000000000E+00  0.00000E+00  9.000E+00
      21    -1     0     0   501   502  0.000000000E+00  0.000000000E+00 -5.339461033E+02  5.339461033E+02  0.000000000E+00  0.00000E+00  9.000E+00
      25     1     1     2     0     0 -2.675015724E+01  1.278273733E+02 -4.023338194E+02  4.410815236E+02  1.250000000E+02  0.00000E+00  9.000E+00
      25     1     1     2     0     0  2.202759122E+01 -1.323143139E+02 -3.687654034E+01  1.870218481E+02  1.250000000E+02  0.00000E+00  9.000E+00
      21     1     1     2   511   502  4.722566020E+00  4.486940546E+00  3.638932068E+01  3.696779578E+01  1.066240300E-06  0.00000E+00  9.000E+00
#rwgt            1           1   3.4738758237557767E-002           3      122141           0
</event>
<event>
      5   9999  3.79277E-02  2.99629E+02 -1.00000E+00  1.05609E-01
      21    -1     0     0   502   501  0.000000000E+00  0.000000000E+00  6.690491478E+02  6.690491478E+02  0.000000000E+00  0.00000E+00  9.000E+00
       3    -1     0     0   501     0  0.000000000E+00  0.000000000E+00 -3.454325744E+02  3.454325744E+02  0.000000000E+00  0.00000E+00  9.000E+00
      25     1     1     2     0     0 -5.473720863E+01 -1.099106710E+02 -1.335289742E+02  2.202986713E+02  1.250000000E+02  0.00000E+00  9.000E+00
      25     1     1     2     0     0 -1.571356764E+02 -1.019561522E+02  4.397414368E+02  4.940487921E+02  1.250000000E+02  0.00000E+00  9.000E+00
       3     1     1     2   502     0  2.118728851E+02  2.118668232E+02  1.740411087E+01  3.001342587E+02  1.907348633E-06  0.00000E+00  9.000E+00
#rwgt            2          14   1.0519052486193547E-005           3      122538           0
</event>
<event>
      5   9999  3.79277E-02  1.08262E+02 -1.00000E+00  1.22297E-01
      21    -1     0     0   502   501  0.000000000E+00  0.000000000E+00  6.987138796E+01  6.987138796E+01  0.000000000E+00  0.00000E+00  9.000E+00
      21    -1     0     0   511   502  0.000000000E+00  0.000000000E+00 -1.099050025E+03  1.099050025E+03  0.000000000E+00  0.00000E+00  9.000E+00
      25     1     1     2     0     0 -9.165222179E+01  6.423865478E+01 -1.315748209E+02  2.132221096E+02  1.250000000E+02  0.00000E+00  9.000E+00
      25     1     1     2     0     0  1.494339481E+02  2.731375736E+01 -3.915279776E+02  4.381731432E+02  1.250000000E+02  0.00000E+00  9.000E+00
      21     1     1     2   511   501 -5.778172635E+01 -9.155241214E+01 -5.060758382E+02  5.175261598E+02  9.344061824E-06  0.00000E+00  9.000E+00
#rwgt            1           1   5.0579065966631885E-002           3      122587           0
</event>
<event>
      5   9999  3.79277E-02  4.78252E+01 -1.00000E+00  1.40186E-01
      21    -1     0     0   512   501  0.000000000E+00  0.000000000E+00  4.234256664E+01  4.234256664E+01  0.000000000E+00  0.00000E+00  9.000E+00
      21    -1     0     0   501   502  0.000000000E+00  0.000000000E+00 -8.123483420E+02  8.123483420E+02  0.000000000E+00  0.00000E+00  9.000E+00
      25     1     1     2     0     0 -7.228523200E+00 -8.016911534E+01 -4.509618702E+02  4.748378112E+02  1.250000000E+02  0.00000E+00  9.000E+00
      25     1     1     2     0     0  5.504097300E+01  7.906509315E+01 -2.330975530E+02  2.814964775E+02  1.250000000E+02  0.00000E+00  9.000E+00
      21     1     1     2   512   502 -4.781244980E+01  1.104022187E+00 -8.594635224E+01  9.835661993E+01  9.536743164E-07  0.00000E+00  9.000E+00
#rwgt            1           1   4.7168142160919191E-002           3      122625           0
</event>
<event>
      5   9999  3.79277E-02  1.65098E+01 -1.00000E+00  1.73548E-01
      21    -1     0     0   502   501  0.000000000E+00  0.000000000E+00  7.754572794E+02  7.754572794E+02  0.000000000E+00  0.00000E+00  9.000E+00
      21    -1     0     0   501   511  0.000000000E+00  0.000000000E+00 -3.037160245E+01  3.037160245E+01  0.000000000E+00  0.00000E+00  9.000E+00
      25     1     1     2     0     0 -6.842495750E+01 -1.501421049E+01  3.092983273E+02  3.408780670E+02  1.250000000E+02  0.00000E+00  9.000E+00
      25     1     1     2     0     0  6.220586399E+01 -2.794804751E-01  4.179058346E+02  4.406131344E+02  1.250000000E+02  0.00000E+00  9.000E+00
      21     1     1     2   502   511  6.219093510E+00  1.529369097E+01  1.788151515E+01  2.433768049E+01  2.384185791E-07  0.00000E+00  9.000E+00
#rwgt            1           1   5.0987548922010344E-002           3      122949           0
</event>
<event>
      5   9999  3.79277E-02  1.90716E+01 -1.00000E+00  1.68091E-01
      21    -1     0     0   502   512  0.000000000E+00  0.000000000E+00  2.735822344E+02  2.735822344E+02  0.000000000E+00  0.00000E+00  9.000E+00
      21    -1     0     0   501   502  0.000000000E+00  0.000000000E+00 -3.748903055E+02  3.748903055E+02  0.000000000E+00  0.00000E+00  9.000E+00
      25     1     1     2     0     0  1.245491324E+01 -1.575725274E+02 -7.810483462E+01  2.161240187E+02  1.250000000E+02  0.00000E+00  9.000E+00
      25     1     1     2     0     0  6.551853258E+00  1.591431630E+02 -1.820984223E+02  2.723128872E+02  1.250000000E+02  0.00000E+00  9.000E+00
      21     1     1     2   501   512 -1.900676650E+01 -1.570635587E+00  1.588951859E+02  1.600356340E+02  2.697398305E-06  0.00000E+00  9.000E+00
#rwgt            1           1   3.5036321485752579E-002           3      123137           0
</event>
<event>
      5   9999  3.79277E-02  3.96021E+01 -1.00000E+00  1.45110E-01
      21    -1     0     0   502   501  0.000000000E+00  0.000000000E+00  9.034664235E+01  9.034664235E+01  0.000000000E+00  0.00000E+00  9.000E+00
      21    -1     0     0   511   502  0.000000000E+00  0.000000000E+00 -5.365466561E+02  5.365466561E+02  0.000000000E+00  0.00000E+00  9.000E+00
      25     1     1     2     0     0 -8.031930670E+01  4.909842162E+01 -1.589106353E+01  1.572875454E+02  1.250000000E+02  0.00000E+00  9.000E+00
      25     1     1     2     0     0  6.514409863E+01 -1.251921827E+01 -3.805598382E+02  4.060188110E+02  1.250000000E+02  0.00000E+00  9.000E+00
      21     1     1     2   511   501  1.517520807E+01 -3.657920335E+01 -4.974911202E+01  6.358694209E+01  9.536743164E-07  0.00000E+00  9.000E+00
#rwgt            1           1   4.4475494477992386E-002           3      123356           0
</event>
<event>
      5   9999  3.79277E-02  7.69228E+00 -1.00000E+00  2.09923E-01
      21    -1     0     0   502   501  0.000000000E+00  0.000000000E+00  3.953077440E+01  3.953077440E+01  0.000000000E+00  0.00000E+00  9.000E+00
      21    -1     0     0   512   502  0.000000000E+00  0.000000000E+00 -9.978182809E+02  9.978182809E+02  0.000000000E+00  0.00000E+00  9.000E+00
      25     1     1     2     0     0  1.227741295E+02  4.853066134E+01 -4.375572868E+02  4.738249584E+02  1.250000000E+02  0.00000E+00  9.000E+00
      25     1     1     2     0     0 -1.218871164E+02 -5.617162772E+01 -3.735658042E+02  4.161587810E+02  1.250000000E+02  0.00000E+00  9.000E+00
      21     1     1     2   512   501 -8.870130786E-01  7.640966379E+00 -1.471644155E+02  1.473653160E+02  1.907348633E-06  0.00000E+00  9.000E+00
#rwgt            1           1   4.7994489557949695E-002           3      123471           0
</event>
<event>
      5   9999 -3.79277E-02  2.18350E+02 -1.00000E+00  1.10278E-01
      21    -1     0     0   502   511  0.000000000E+00  0.000000000E+00  1.428669509E+03  1.428669509E+03  0.000000000E+00  0.00000E+00  9.000E+00
      21    -1     0     0   501   502  0.000000000E+00  0.000000000E+00 -1.574963501E+02  1.574963501E+02  0.000000000E+00  0.00000E+00  9.000E+00
      25     1     1     2     0     0 -4.041975359E+02  1.029641826E+01  4.222689394E+02  5.978442284E+02  1.250000000E+02  0.00000E+00  9.000E+00
      25     1     1     2     0     0  2.125913509E+02  9.441086815E+01  3.122157281E+02  4.089158292E+02  1.250000000E+02  0.00000E+00  9.000E+00
      21     1     1     2   501   511  1.916061850E+02 -1.047072864E+02  5.366884910E+02  5.794058011E+02  0.000000000E+00  0.00000E+00  9.000E+00
#rwgt            1           1 -0.20917674535668038                3      123770           0
</event>
<event>
      5   9999  3.79277E-02  1.07214E+02 -1.00000E+00  1.22482E-01
      21    -1     0     0   502   501  0.000000000E+00  0.000000000E+00  1.172588216E+02  1.172588216E+02  0.000000000E+00  0.00000E+00  9.000E+00
      21    -1     0     0   501   512  0.000000000E+00  0.000000000E+00 -7.231202130E+02  7.231202130E+02  0.000000000E+00  0.00000E+00  9.000E+00
      25     1     1     2     0     0  1.389266491E+01 -1.136139376E+00  1.020590782E+01  1.261881829E+02  1.250000000E+02  0.00000E+00  9.000E+00
      25     1     1     2     0     0  9.064754504E+00  1.058633539E+02 -1.115022178E+02  1.983606918E+02  1.250000000E+02  0.00000E+00  9.000E+00
      21     1     1     2   502   512 -2.295741941E+01 -1.047272145E+02 -5.045650814E+02  5.158301599E+02  7.629394531E-06  0.00000E+00  9.000E+00
#rwgt            1           1   7.6397822851426211E-002           3      123962           0
</event>
<event>
      5   9999  3.79277E-02  3.10880E+01 -1.00000E+00  1.51973E-01
      21    -1     0     0   502   501  0.000000000E+00  0.000000000E+00  1.796997998E+02  1.796997998E+02  0.000000000E+00  0.00000E+00  9.000E+00
      21    -1     0     0   501   511  0.000000000E+00  0.000000000E+00 -8.709005937E+02  8.709005937E+02  0.000000000E+00  0.00000E+00  9.000E+00
      25     1     1     2     0     0  2.304062503E+02 -1.613902120E+01 -2.912246056E+02  3.921533872E+02  1.250000000E+02  0.00000E+00  9.000E+00
      25     1     1     2     0     0 -2.610533574E+02  1.092179755E+01 -3.454506845E+01  2.916959082E+02  1.250000000E+02  0.00000E+00  9.000E+00
      21     1     1     2   502   511  3.064710712E+01  5.217223651E+00 -3.654311199E+02  3.667510982E+02  0.000000000E+00  0.00000E+00  9.000E+00
#rwgt            1           1   3.6298046277174825E-002           3      124038           0
</event>
<event>
      5   9999  3.79277E-02  5.22154E+01 -1.00000E+00  1.38010E-01
      21    -1     0     0   502   512  0.000000000E+00  0.000000000E+00  7.451740313E+02  7.451740313E+02  0.000000000E+00  0.00000E+00  9.000E+00
      21    -1     0     0   501   502  0.000000000E+00  0.000000000E+00 -5.634583253E+02  5.634583253E+02  0.000000000E+00  0.00000E+00  9.000E+00
      25     1     1     2     0     0  8.307664373E+01  2.254018557E+02 -1.499961369E+02  3.095667398E+02  1.250000000E+02  0.00000E+00  9.000E+00
      25     1     1     2     0     0 -5.020229435E+01 -1.848343785E+02 -2.932685101E+02  3.719078338E+02  1.250000000E+02  0.00000E+00  9.000E+00
      21     1     1     2   501   512 -3.287434938E+01 -4.056747724E+01  6.249803530E+02  6.271577829E+02  7.629394531E-06  0.00000E+00  9.000E+00
#rwgt            1           1   3.7604570997757776E-002           3      124353           0
</event>
<event>
      5   9999  3.79277E-02  5.91138E+01 -1.00000E+00  1.35050E-01
      21    -1     0     0   502   511  0.000000000E+00  0.000000000E+00  4.298924545E+01  4.298924545E+01  0.000000000E+00  0.00000E+00  9.000E+00
      21    -1     0     0   501   502  0.000000000E+00  0.000000000E+00 -2.013595839E+03  2.013595839E+03  0.000000000E+00  0.00000E+00  9.000E+00
      25     1     1     2     0     0 -7.423490080E+01 -9.916825932E+01 -1.591232783E+03  1.600934707E+03  1.250000000E+02  0.00000E+00  9.000E+00
      25     1     1     2     0     0  9.274523137E+01  4.302726238E+01 -3.580953464E+02  3.928234977E+02  1.250000000E+02  0.00000E+00  9.000E+00
      21     1     1     2   501   511 -1.851033057E+01  5.614099694E+01 -2.127846424E+01  6.282688052E+01  1.238859277E-06  0.00000E+00  9.000E+00
#rwgt            1           1  0.13149202151119960                3      124522           0
</event>
<event>
      5   9999  3.79277E-02  2.10293E+01 -1.00000E+00  1.64591E-01
      21    -1     0     0   502   501  0.000000000E+00  0.000000000E+00  1.008165407E+02  1.008165407E+02  0.000000000E+00  0.00000E+00  9.000E+00
      21    -1     0     0   501   512  0.000000000E+00  0.000000000E+00 -4.506523001E+02  4.506523001E+02  0.000000000E+00  0.00000E+00  9.000E+00
      25     1     1     2     0     0  1.250400887E+02 -4.038683063E+01 -6.295913734E+01  1.919764903E+02  1.250000000E+02  0.00000E+00  9.000E+00
      25     1     1     2     0     0 -1.040787949E+02  3.869677952E+01 -1.618244383E+02  2.326843036E+02  1.250000000E+02  0.00000E+00  9.000E+00
      21     1     1     2   502   512 -2.096129376E+01  1.690051107E+00 -1.250521837E+02  1.268080469E+02  1.348699152E-06  0.00000E+00  9.000E+00
#rwgt            1           1   4.3454585173175485E-002           3      124688           0
</event>
<event>
      5   9999 -3.79277E-02  4.73880E+01 -1.00000E+00  1.40418E-01
      21    -1     0     0   502   501  0.000000000E+00  0.000000000E+00  2.113038327E+03  2.113038327E+03  0.000000000E+00  0.00000E+00  9.000E+00
      21    -1     0     0   511   502  0.000000000E+00  0.000000000E+00 -1.153944351E+03  1.153944351E+03  0.000000000E+00  0.00000E+00  9.000E+00
      25     1     1     2     0     0 -1.357954093E+02 -8.508614416E+01  8.173920373E+02  8.422795188E+02  1.250000000E+02  0.00000E+00  9.000E+00
      25     1     1     2     0     0  1.548038484E+02  4.167761799E+01  1.274652742E+03  1.290761739E+03  1.250000000E+02  0.00000E+00  9.000E+00
      21     1     1     2   511   501 -1.900843910E+01  4.340852617E+01 -1.132950803E+03  1.133941420E+03  0.000000000E+00  0.00000E+00  9.000E+00
#rwgt            1           1 -0.32844999016047532                3      124877           0
</event>
<event>
      5   9999  3.79277E-02  7.36307E+01 -1.00000E+00  1.30118E-01
      21    -1     0     0   502   501  0.000000000E+00  0.000000000E+00  1.933469850E+02  1.933469850E+02  0.000000000E+00  0.00000E+00  9.000E+00
       2    -1     0     0   501     0  0.000000000E+00  0.000000000E+00 -2.559589195E+03  2.559589195E+03  0.000000000E+00  0.00000E+00  9.000E+00
      25     1     1     2     0     0 -3.362916516E+01  9.661626179E+01 -7.226282558E+01  1.769534932E+02  1.250000000E+02  0.00000E+00  9.000E+00
      25     1     1     2     0     0 -3.515619239E+01 -7.034741154E+01  1.016110006E+02  1.792610153E+02  1.250000000E+02  0.00000E+00  9.000E+00
       2     1     1     2   502     0  6.878535756E+01 -2.626885025E+01 -2.395590385E+03  2.396721671E+03  3.051757812E-05  0.00000E+00  9.000E+00
#rwgt            1           1   3.8167164277916561E-002           3      125007           0
</event>
<event>
      5   9999  3.79277E-02  1.42730E+02 -1.00000E+00  1.17255E-01
      21    -1     0     0   502   511  0.000000000E+00  0.000000000E+00  5.118484945E+02  5.118484945E+02  0.000000000E+00  0.00000E+00  9.000E+00
      21    -1     0     0   501   502  0.000000000E+00  0.000000000E+00 -7.680471096E+02  7.680471096E+02  0.000000000E+00  0.00000E+00  9.000E+00
      25     1     1     2     0     0 -1.981712719E+02 -3.101549240E+02 -3.408162748E+02  5.169609880E+02  1.250000000E+02  0.00000E+00  9.000E+00
      25     1     1     2     0     0  3.250426536E+02  2.447670379E+02 -1.800956533E+02  4.621937622E+02  1.250000000E+02  0.00000E+00  9.000E+00
      21     1     1     2   501   511 -1.268713816E+02  6.538788619E+01  2.647133131E+02  3.007408540E+02  6.607249480E-06  0.00000E+00  9.000E+00
#rwgt            1           1   9.9895009364133536E-002           3      125122           0
</event>
<event>
      5   9999  3.79277E-02  4.70014E+01 -1.00000E+00  1.40626E-01
      21    -1     0     0   502   501  0.000000000E+00  0.000000000E+00  6.495587212E+01  6.495587212E+01  0.000000000E+00  0.00000E+00  9.000E+00
      21    -1     0     0   512   502  0.000000000E+00  0.000000000E+00 -7.932480820E+02  7.932480820E+02  0.000000000E+00  0.00000E+00  9.000E+00
      25     1     1     2     0     0 -1.365631777E+02  2.433778214E+01 -3.088250064E+02  3.608873976E+02  1.250000000E+02  0.00000E+00  9.000E+00
      25     1     1     2     0     0  1.627916019E+02  1.466481010E+01 -2.629352681E+02  3.338803940E+02  1.250000000E+02  0.00000E+00  9.000E+00
      21     1     1     2   512   501 -2.622842422E+01 -3.900259223E+01 -1.565319354E+02  1.634361626E+02  0.000000000E+00  0.00000E+00  9.000E+00
#rwgt            1           1   3.3648402437246594E-002           3      125210           0
</event>
<event>
      5   9999  3.79277E-02  2.47400E+02 -1.00000E+00  1.08386E-01
      -2    -1     0     0     0   501  0.000000000E+00  0.000000000E+00  5.933732722E+02  5.933732722E+02  0.000000000E+00  0.00000E+00  9.000E+00
      21    -1     0     0   501   502  0.000000000E+00  0.000000000E+00 -5.617731906E+02  5.617731906E+02  0.000000000E+00  0.00000E+00  9.000E+00
      25     1     1     2     0     0 -1.040628747E+02 -1.812751266E+02 -8.088291310E+01  2.566257958E+02  1.250000000E+02  0.00000E+00  9.000E+00
      25     1     1     2     0     0 -1.379557717E+02  2.325955994E+02 -2.966346484E+02  4.204160111E+02  1.250000000E+02  0.00000E+00  9.000E+00
      -2     1     1     2     0   502  2.420186464E+02 -5.132047282E+01  4.091176430E+02  4.781046559E+02  7.629394531E-06  0.00000E+00  9.000E+00
#rwgt            2           4   1.0272563019536898E-004           3      125342           0
</event>
<event>
      5   9999  3.79277E-02  1.43403E+02 -1.00000E+00  1.17173E-01
      21    -1     0     0   502   511  0.000000000E+00  0.000000000E+00  3.578697850E+02  3.578697850E+02  0.000000000E+00  0.00000E+00  9.000E+00
      21    -1     0     0   501   502  0.000000000E+00  0.000000000E+00 -2.432629456E+02  2.432629456E+02  0.000000000E+00  0.00000E+00  9.000E+00
      25     1     1     2     0     0 -1.380023730E+02  3.318366279E+01 -1.094367943E+02  2.185113782E+02  1.250000000E+02  0.00000E+00  9.000E+00
      25     1     1     2     0     0  4.549599053E+01  7.639233171E+01  5.994683350E+01  1.646945547E+02  1.250000000E+02  0.00000E+00  9.000E+00
      21     1     1     2   501   511  9.250638245E+01 -1.095759945E+02  1.640968002E+02  2.179267978E+02  3.814697266E-06  0.00000E+00  9.000E+00
#rwgt            1           1   4.2074765271322034E-002           3      125376           0
</event>
<event>
      5   9999  3.79277E-02  1.12450E+02 -1.00000E+00  1.21579E-01
      21    -1     0     0   502   501  0.000000000E+00  0.000000000E+00  1.205634193E+02  1.205634193E+02  0.000000000E+00  0.00000E+00  9.000E+00
      21    -1     0     0   512   502  0.000000000E+00  0.000000000E+00 -6.961954688E+02  6.961954688E+02  0.000000000E+00  0.00000E+00  9.000E+00
      25     1     1     2     0     0  1.147996813E+01 -1.530983969E+02 -1.689411795E+02  2.602633876E+02  1.250000000E+02  0.00000E+00  9.000E+00
      25     1     1     2     0     0  7.907622611E+01  2.197654610E+02 -2.552313993E+02  3.678559155E+02  1.250000000E+02  0.00000E+00  9.000E+00
      21     1     1     2   512   501 -9.055619424E+01 -6.666706409E+01 -1.514594707E+02  1.886395850E+02  1.907348633E-06  0.00000E+00  9.000E+00
#rwgt            1           1   2.9300100587060472E-002           3      125418           0
</event>
<event>
      5   9999  3.79277E-02  1.00082E+01 -1.00000E+00  1.95716E-01
      21    -1     0     0   511   501  0.000000000E+00  0.000000000E+00  3.616914466E+02  3.616914466E+02  0.000000000E+00  0.00000E+00  9.000E+00
      21    -1     0     0   501   502  0.000000000E+00  0.000000000E+00 -1.321890335E+02  1.321890335E+02  0.000000000E+00  0.00000E+00  9.000E+00
      25     1     1     2     0     0  7.004071675E+00 -1.560489706E+02  4.126311540E+01  2.042742836E+02  1.250000000E+02  0.00000E+00  9.000E+00
      25     1     1     2     0     0 -8.327310193E+00  1.659693402E+02  1.691485152E+02  2.680510887E+02  1.250000000E+02  0.00000E+00  9.000E+00
      21     1     1     2   511   502  1.323238519E+00 -9.920369625E+00  1.909078247E+01  2.155510773E+01  3.371747881E-07  0.00000E+00  9.000E+00
#rwgt            1           1   3.3698617799210816E-002           3      125508           0
</event>
<event>
      5   9999  3.79277E-02  1.66102E+02 -1.00000E+00  1.14665E-01
       2    -1     0     0   502     0  0.000000000E+00  0.000000000E+00  2.454198328E+03  2.454198328E+03  0.000000000E+00  0.00000E+00  9.000E+00
      21    -1     0     0   501   502  0.000000000E+00  0.000000000E+00 -1.315222772E+02  1.315222772E+02  0.000000000E+00  0.00000E+00  9.000E+00
      25     1     1     2     0     0  2.604845699E+02  9.648697833E+01  2.663180418E+02  4.046137016E+02  1.250000000E+02  0.00000E+00  9.000E+00
      25     1     1     2     0     0 -1.028231866E+02 -4.420966548E+01  6.051700248E+01  1.783659435E+02  1.250000000E+02  0.00000E+00  9.000E+00
       2     1     1     2   501     0 -1.576613833E+02 -5.227731285E+01  1.995841006E+03  2.002740960E+03  2.157918644E-05  0.00000E+00  9.000E+00
#rwgt            1           1   4.5682150936143466E-002           3      125831           0
</event>
<event>
      5   9999  3.79277E-02  1.28125E+01 -1.00000E+00  1.84085E-01
      21    -1     0     0   511   501  0.000000000E+00  0.000000000E+00  4.021178763E+02  4.021178763E+02  0.000000000E+00  0.00000E+00  9.000E+00
      21    -1     0     0   501   502  0.000000000E+00  0.000000000E+00 -8.566964508E+02  8.566964508E+02  0.000000000E+00  0.00000E+00  9.000E+00
      25     1     1     2     0     0 -9.822156843E+01  5.852464831E+01 -1.229389237E+02  2.093121829E+02  1.250000000E+02  0.00000E+00  9.000E+00
      25     1     1     2     0     0  1.067007256E+02 -4.891922519E+01 -6.798067434E+02  7.010993822E+02  1.250000000E+02  0.00000E+00  9.000E+00
      21     1     1     2   511   502 -8.479157153E+00 -9.605423126E+00  3.481670925E+02  3.484027620E+02  3.814697266E-06  0.00000E+00  9.000E+00
#rwgt            1           1   4.6652407556941652E-002           3      125993           0
</event>
<event>
      5   9999  3.79277E-02  8.22307E+00 -1.00000E+00  2.06121E-01
      21    -1     0     0   502   512  0.000000000E+00  0.000000000E+00  4.225567089E+02  4.225567089E+02  0.000000000E+00  0.00000E+00  9.000E+00
      21    -1     0     0   501   502  0.000000000E+00  0.000000000E+00 -1.863446019E+02  1.863446019E+02  0.000000000E+00  0.00000E+00  9.000E+00
      25     1     1     2     0     0 -1.927473130E+02 -3.419653376E+00 -9.548680624E-01  2.297588572E+02  1.250000000E+02  0.00000E+00  9.000E+00
      25     1     1     2     0     0  2.006291215E+02  5.763985373E+00  1.264899176E+02  2.681603386E+02  1.250000000E+02  0.00000E+00  9.000E+00
      21     1     1     2   501   512 -7.881808557E+00 -2.344331997E+00  1.106770575E+02  1.109821150E+02  1.348699152E-06  0.00000E+00  9.000E+00
#rwgt            1           1   5.2524491537613613E-002           3      126215           0
</event>
<event>
      5   9999  3.79277E-02  9.94124E+00 -1.00000E+00  1.96053E-01
      21    -1     0     0   511   501  0.000000000E+00  0.000000000E+00  5.709938353E+01  5.709938353E+01  0.000000000E+00  0.00000E+00  9.000E+00
      21    -1     0     0   501   502  0.000000000E+00  0.000000000E+00 -7.244379731E+02  7.244379731E+02  0.000000000E+00  0.00000E+00  9.000E+00
      25     1     1     2     0     0  2.930672260E+01  1.305861010E+02 -1.962909652E+02  2.684525224E+02  1.250000000E+02  0.00000E+00  9.000E+00
      25     1     1     2     0     0 -2.150634459E+01 -1.244231144E+02 -4.707223011E+02  5.031382702E+02  1.250000000E+02  0.00000E+00  9.000E+00
      21     1     1     2   511   502 -7.800378009E+00 -6.162986595E+00 -3.253233694E-01  9.946564037E+00  1.433147793E-07  0.00000E+00  9.000E+00
#rwgt            1           1   2.7887500860753440E-002           3      126518           0
</event>
<event>
      5   9999  3.79277E-02  2.96197E+01 -1.00000E+00  1.53426E-01
      21    -1     0     0   512   501  0.000000000E+00  0.000000000E+00  9.572443028E+02  9.572443028E+02  0.000000000E+00  0.00000E+00  9.000E+00
      21    -1     0     0   501   502  0.000000000E+00  0.000000000E+00 -1.362537479E+03  1.362537479E+03  0.000000000E+00  0.00000E+00  9.000E+00
      25     1     1     2     0     0  7.105969330E+01 -7.977944863E+01 -1.068958041E+03  1.081531569E+03  1.250000000E+02  0.00000E+00  9.000E+00
      25     1     1     2     0     0 -4.405528544E+01  6.761031778E+01 -2.677779837E+02  3.063365335E+02  1.250000000E+02  0.00000E+00  9.000E+00
      21     1     1     2   512   502 -2.700440786E+01  1.216913085E+01  9.314428486E+02  9.319136795E+02  1.868812365E-05  0.00000E+00  9.000E+00
#rwgt            1           1   5.5974418697613403E-002           3      126836           0
</event>
<event>
      5   9999  3.79277E-02  1.02625E+02 -1.00000E+00  1.23324E-01
       2    -1     0     0   502     0  0.000000000E+00  0.000000000E+00  1.668049411E+03  1.668049411E+03  0.000000000E+00  0.00000E+00  9.000E+00
      21    -1     0     0   501   502  0.000000000E+00  0.000000000E+00 -3.809070338E+02  3.809070338E+02  0.000000000E+00  0.00000E+00  9.000E+00
      25     1     1     2     0     0  1.091206202E+02 -1.521198098E+02 -4.901290005E+01  2.303801438E+02  1.250000000E+02  0.00000E+00  9.000E+00
      25     1     1     2     0     0 -1.942666752E+02  9.483097671E+01 -1.743698431E+02  3.045690355E+02  1.250000000E+02  0.00000E+00  9.000E+00
       2     1     1     2   501     0  8.514605501E+01  5.728883306E+01  1.510525120E+03  1.514007266E+03  0.000000000E+00  0.00000E+00  9.000E+00
#rwgt            1           1   4.1031460325696219E-002           3      126934           0
</event>
<event>
      5   9999  3.79277E-02  2.47048E+01 -1.00000E+00  1.59138E-01
      21    -1     0     0   511   501  0.000000000E+00  0.000000000E+00  2.289800998E+02  2.289800998E+02  0.000000000E+00  0.00000E+00  9.000E+00
      21    -1     0     0   501   502  0.000000000E+00  0.000000000E+00 -3.376662408E+02  3.376662408E+02  0.000000000E+00  0.00000E+00  9.000E+00
      25     1     1     2     0     0 -2.375306234E+02 -1.089993988E+01  1.236548450E+00  2.686375528E+02  1.250000000E+02  0.00000E+00  9.000E+00
      25     1     1     2     0     0  2.141972992E+02  1.901678992E+01 -1.128444335E+02  2.731318134E+02  1.250000000E+02  0.00000E+00  9.000E+00
      21     1     1     2   511   502  2.333332413E+01 -8.116850039E+00  2.921743989E+00  2.487697445E+01  3.371747881E-07  0.00000E+00  9.000E+00
#rwgt            1           1   2.7612858977866365E-002           3      127098           0
</event>
<event>
      5   9999  3.79277E-02  2.02449E+02 -1.00000E+00  1.11456E-01
      21    -1     0     0   502   512  0.000000000E+00  0.000000000E+00  1.673892725E+02  1.673892725E+02  0.000000000E+00  0.00000E+00  9.000E+00
      21    -1     0     0   501   502  0.000000000E+00  0.000000000E+00 -1.089465484E+03  1.089465484E+03  0.000000000E+00  0.00000E+00  9.000E+00
      25     1     1     2     0     0 -5.280439846E+01  3.359088943E+02 -5.633040404E+02  6.697458710E+02  1.250000000E+02  0.00000E+00  9.000E+00
      25     1     1     2     0     0  1.611591309E+02 -1.648973461E+02 -2.004630806E+02  3.301118703E+02  1.250000000E+02  0.00000E+00  9.000E+00
      21     1     1     2   501   512 -1.083547324E+02 -1.710115482E+02 -1.583090905E+02  2.569970152E+02  6.031565972E-06  0.00000E+00  9.000E+00
#rwgt            1           1  0.25990292509572877                3      127344           0
</event>
<event>
      5   9999  3.79277E-02  1.31681E+02 -1.00000E+00  1.18680E-01
      21    -1     0     0   502   511  0.000000000E+00  0.000000000E+00  7.122677509E+02  7.122677509E+02  0.000000000E+00  0.00000E+00  9.000E+00
      21    -1     0     0   501   502  0.000000000E+00  0.000000000E+00 -3.077872799E+02  3.077872799E+02  0.000000000E+00  0.00000E+00  9.000E+00
      25     1     1     2     0     0 -3.003684524E+01  2.841443966E+02 -5.447046535E+01  3.165948227E+02  1.250000000E+02  0.00000E+00  9.000E+00
      25     1     1     2     0     0 -7.649517976E+01 -3.615451221E+02  4.014251874E+02  5.597620646E+02  1.250000000E+02  0.00000E+00  9.000E+00
      21     1     1     2   501   511  1.065320250E+02  7.740072558E+01  5.752574897E+01  1.436981436E+02  1.507891493E-06  0.00000E+00  9.000E+00
#rwgt            1           1   6.7898515119320699E-002           3      127513           0
</event>
<event>
      5   9999  3.79277E-02  1.46595E+02 -1.00000E+00  1.16790E-01
      21    -1     0     0   502   512  0.000000000E+00  0.000000000E+00  1.038390998E+03  1.038390998E+03  0.000000000E+00  0.00000E+00  9.000E+00
      21    -1     0     0   501   502  0.000000000E+00  0.000000000E+00 -4.848237118E+02  4.848237118E+02  0.000000000E+00  0.00000E+00  9.000E+00
      25     1     1     2     0     0 -2.375424715E+02 -1.879548297E+02 -2.164270093E+02  3.927073900E+02  1.250000000E+02  0.00000E+00  9.000E+00
      25     1     1     2     0     0  9.251633051E+01  1.665676920E+02 -9.956264382E+01  2.486800906E+02  1.250000000E+02  0.00000E+00  9.000E+00
      21     1     1     2   501   512  1.450261410E+02  2.138713772E+01  8.695569395E+02  8.818272292E+02  1.525878906E-05  0.00000E+00  9.000E+00
#rwgt            1           1   3.3883159294898754E-002           3      127616           0
</event>
<event>
      5   9999  3.79277E-02  9.14317E+01 -1.00000E+00  1.25603E-01
      21    -1     0     0   502   511  0.000000000E+00  0.000000000E+00  5.204702461E+02  5.204702461E+02  0.000000000E+00  0.00000E+00  9.000E+00
      21    -1     0     0   501   502  0.000000000E+00  0.000000000E+00 -8.942637449E+01  8.942637449E+01  0.000000000E+00  0.00000E+00  9.000E+00
      25     1     1     2     0     0  1.004852505E+02  1.075502669E+02  1.433701122E+02  2.405084916E+02  1.250000000E+02  0.00000E+00  9.000E+00
      25     1     1     2     0     0 -5.780336266E+01 -2.669232162E+01  1.734996537E+02  2.231161998E+02  1.250000000E+02  0.00000E+00  9.000E+00
      21     1     1     2   501   511 -4.268188783E+01 -8.085794523E+01  1.141741057E+02  1.462719292E+02  1.348699152E-06  0.00000E+00  9.000E+00
#rwgt            1           1   4.3267906841168359E-002           3      127664           0
</event>
<event>
      5   9999  3.79277E-02  7.57403E+01 -1.00000E+00  1.29510E-01
      21    -1     0     0   512   501  0.000000000E+00  0.000000000E+00  1.705727914E+03  1.705727914E+03  0.000000000E+00  0.00000E+00  9.000E+00
      21    -1     0     0   501   502  0.000000000E+00  0.000000000E+00 -2.950124422E+01  2.950124422E+01  0.000000000E+00  0.00000E+00  9.000E+00
      25     1     1     2     0     0  9.633763460E+01 -1.336781765E+01  2.667261521E+02  3.102055425E+02  1.250000000E+02  0.00000E+00  9.000E+00
      25     1     1     2     0     0 -2.483564667E+01  3.834895985E+01  9.611964463E+02  9.703664568E+02  1.250000000E+02  0.00000E+00  9.000E+00
      21     1     1     2   512   502 -7.150198793E+01 -2.498114220E+01  4.483040711E+02  4.546571586E+02  5.394796609E-06  0.00000E+00  9.000E+00
#rwgt            1           1   3.3496206539870677E-002           3      127774           0
</event>
<event>
      5   9999  3.79277E-02  1.19457E+02 -1.00000E+00  1.20452E-01
       1    -1     0     0   502     0  0.000000000E+00  0.000000000E+00  4.873352263E+02  4.873352263E+02  0.000000000E+00  0.00000E+00  9.000E+00
      21    -1     0     0   501   502  0.000000000E+00  0.000000000E+00 -3.623899490E+02  3.623899490E+02  0.000000000E+00  0.00000E+00  9.000E+00
      25     1     1     2     0     0  2.455206764E+01 -1.525880234E+02 -2.392146987E+02  3.110218336E+02  1.250000000E+02  0.00000E+00  9.000E+00
      25     1     1     2     0     0  5.349381230E+01  6.215115549E+01 -6.128897670E+00  1.496225834E+02  1.250000000E+02  0.00000E+00  9.000E+00
       1     1     1     2   501     0 -7.804587994E+01  9.043686789E+01  3.702888738E+02  3.890807583E+02  5.394796609E-06  0.00000E+00  9.000E+00
#rwgt            1           1   4.2071460745142113E-002           3      128050           0
</event>
<event>
      5   9999  3.79277E-02  5.49864E+01 -1.00000E+00  1.36760E-01
      21    -1     0     0   502   501  0.000000000E+00  0.000000000E+00  1.438718657E+02  1.438718657E+02  0.000000000E+00  0.00000E+00  9.000E+00
      21    -1     0     0   501   511  0.000000000E+00  0.000000000E+00 -5.574929145E+02  5.574929145E+02  0.000000000E+00  0.00000E+00  9.000E+00
      25     1     1     2     0     0  1.621803647E+02 -1.222373137E+02 -1.270070459E+02  2.701855312E+02  1.250000000E+02  0.00000E+00  9.000E+00
      25     1     1     2     0     0 -1.610135776E+02  6.726324687E+01 -1.003135074E+02  2.369335694E+02  1.250000000E+02  0.00000E+00  9.000E+00
      21     1     1     2   502   511 -1.166787079E+00  5.497406687E+01 -1.863004955E+02  1.942456796E+02  0.000000000E+00  0.00000E+00  9.000E+00
#rwgt            1           1   2.9797690989233360E-002           3      128115           0
</event>
<event>
      5   9999  3.79277E-02  4.60473E+01 -1.00000E+00  1.41147E-01
      21    -1     0     0   502   501  0.000000000E+00  0.000000000E+00  8.614732627E+02  8.614732627E+02  0.000000000E+00  0.00000E+00  9.000E+00
      21    -1     0     0   512   502  0.000000000E+00  0.000000000E+00 -1.629736206E+02  1.629736206E+02  0.000000000E+00  0.00000E+00  9.000E+00
      25     1     1     2     0     0  1.057933515E+02  2.134510748E+02  1.205417057E+02  2.948031502E+02  1.250000000E+02  0.00000E+00  9.000E+00
      25     1     1     2     0     0 -6.127781834E+01 -2.016731589E+02  6.203850951E+02  6.670305093E+02  1.250000000E+02  0.00000E+00  9.000E+00
      21     1     1     2   512   501 -4.451553318E+01 -1.177791587E+01 -4.242715870E+01  6.261322378E+01  1.348699152E-06  0.00000E+00  9.000E+00
#rwgt            1           1  0.21484001484962242                3      128354           0
</event>
<event>
      5   9999  3.79277E-02  1.10581E+02 -1.00000E+00  1.21895E-01
      21    -1     0     0   511   501  0.000000000E+00  0.000000000E+00  4.345383608E+02  4.345383608E+02  0.000000000E+00  0.00000E+00  9.000E+00
      21    -1     0     0   501   502  0.000000000E+00  0.000000000E+00 -3.526507756E+02  3.526507756E+02  0.000000000E+00  0.00000E+00  9.000E+00
      25     1     1     2     0     0 -8.007748353E+01 -6.956962299E+01  2.891036466E+02  3.323526053E+02  1.250000000E+02  0.00000E+00  9.000E+00
      25     1     1     2     0     0  4.658116693E+01  1.749558469E+02 -2.528863503E+02  3.351952560E+02  1.250000000E+02  0.00000E+00  9.000E+00
      21     1     1     2   511   502  3.349631659E+01 -1.053862239E+02  4.567028887E+01  1.196412751E+02  1.651812370E-06  0.00000E+00  9.000E+00
#rwgt            1           1   4.8882113102000045E-002           3      128450           0
</event>
<event>
      5   9999  3.79277E-02  2.69859E+01 -1.00000E+00  1.56304E-01
      21    -1     0     0   502   501  0.000000000E+00  0.000000000E+00  5.328049009E+02  5.328049009E+02  0.000000000E+00  0.00000E+00  9.000E+00
      21    -1     0     0   501   512  0.000000000E+00  0.000000000E+00 -1.355470645E+02  1.355470645E+02  0.000000000E+00  0.00000E+00  9.000E+00
      25     1     1     2     0     0  7.607804638E+01 -5.475407237E+01  1.192194949E+02  1.965303171E+02  1.250000000E+02  0.00000E+00  9.000E+00
      25     1     1     2     0     0 -7.549871395E+01  8.173379284E+01  3.538082814E+02  3.913895357E+02  1.250000000E+02  0.00000E+00  9.000E+00
      21     1     1     2   502   512 -5.793324304E-01 -2.697972047E+01 -7.576993990E+01  8.043211259E+01  9.536743164E-07  0.00000E+00  9.000E+00
#rwgt            1           1   4.7484067923974735E-002           3      128570           0
</event>
<event>
      5   9999  3.79277E-02  3.64386E+01 -1.00000E+00  1.47397E-01
      21    -1     0     0   511   501  0.000000000E+00  0.000000000E+00  2.539137604E+02  2.539137604E+02  0.000000000E+00  0.00000E+00  9.000E+00
      21    -1     0     0   501   502  0.000000000E+00  0.000000000E+00 -3.379167724E+02  3.379167724E+02  0.000000000E+00  0.00000E+00  9.000E+00
      25     1     1     2     0     0  8.528783074E+01 -9.707391436E+01 -2.382735325E+02  2.984905948E+02  1.250000000E+02  0.00000E+00  9.000E+00
      25     1     1     2     0     0 -1.147778673E+02  1.184774138E+02  1.050581870E+02  2.321057497E+02  1.250000000E+02  0.00000E+00  9.000E+00
      21     1     1     2   511   502  2.949003657E+01 -2.140349942E+01  4.921233350E+01  6.123418826E+01  0.000000000E+00  0.00000E+00  9.000E+00
#rwgt            1           1   3.7821878659769742E-002           3      128784           0
</event>
<event>
      5   9999  3.79277E-02  9.81113E+01 -1.00000E+00  1.24202E-01
      21    -1     0     0   502   501  0.000000000E+00  0.000000000E+00  1.393006271E+03  1.393006271E+03  0.000000000E+00  0.00000E+00  9.000E+00
      21    -1     0     0   512   502  0.000000000E+00  0.000000000E+00 -3.953374160E+02  3.953374160E+02  0.000000000E+00  0.00000E+00  9.000E+00
      25     1     1     2     0     0  2.940809376E+02  2.219281706E+02  1.112391469E+03  1.178463190E+03  1.250000000E+02  0.00000E+00  9.000E+00
      25     1     1     2     0     0 -3.903837326E+02 -2.031771490E+02  1.866856405E+00  4.575028937E+02  1.250000000E+02  0.00000E+00  9.000E+00
      21     1     1     2   512   501  9.630279505E+01 -1.875102165E+01 -1.165894706E+02  1.523776027E+02  1.348699152E-06  0.00000E+00  9.000E+00
#rwgt            1           1   4.0947085830433702E-002           3      128884           0
</event>
<event>
      5   9999  3.79277E-02  4.14519E+01 -1.00000E+00  1.43886E-01
      21    -1     0     0   511   501  0.000000000E+00  0.000000000E+00  7.652935464E+02  7.652935464E+02  0.000000000E+00  0.00000E+00  9.000E+00
      21    -1     0     0   501   502  0.000000000E+00  0.000000000E+00 -1.250977598E+02  1.250977598E+02  0.000000000E+00  0.00000E+00  9.000E+00
      25     1     1     2     0     0  1.193253631E+02  1.576934948E+02  5.390707252E+02  5.876461753E+02  1.250000000E+02  0.00000E+00  9.000E+00
      25     1     1     2     0     0 -8.278787010E+01 -1.381161024E+02  1.170676117E+01  2.041860363E+02  1.250000000E+02  0.00000E+00  9.000E+00
      21     1     1     2   511   502 -3.653749302E+01 -1.957739246E+01  8.941830032E+01  9.855909457E+01  9.536743164E-07  0.00000E+00  9.000E+00
#rwgt            1           1   3.3697323213123249E-002           3      129029           0
</event>
<event>
      5   9999 -3.79277E-02  1.04523E+02 -1.00000E+00  1.22970E-01
       2    -1     0     0   502     0  0.000000000E+00  0.000000000E+00  3.651441258E+03  3.651441258E+03  0.000000000E+00  0.00000E+00  9.000E+00
      21    -1     0     0   501   502  0.000000000E+00  0.000000000E+00 -5.339275719E+01  5.339275719E+01  0.000000000E+00  0.00000E+00  9.000E+00
      25     1     1     2     0     0  2.869690156E+01  9.756159975E+01  3.927214224E+02  4.244960465E+02  1.250000000E+02  0.00000E+00  9.000E+00
      25     1     1     2     0     0 -1.166422680E+02 -4.107479511E+01  1.745548509E+02  2.477639067E+02  1.250000000E+02  0.00000E+00  9.000E+00
       2     1     1     2   501     0  8.794536641E+01 -5.648680464E+01  3.030772228E+03  3.032574062E+03  4.315837288E-05  0.00000E+00  9.000E+00
#rwgt            1           1 -0.10810763448214281                3      129347           0
</event>
<event>
      5   9999  3.79277E-02  9.53456E+01 -1.00000E+00  1.24766E-01
      21    -1     0     0   502   501  0.000000000E+00  0.000000000E+00  6.078036478E+02  6.078036478E+02  0.000000000E+00  0.00000E+00  9.000E+00
      21    -1     0     0   511   502  0.000000000E+00  0.000000000E+00 -1.001637749E+02  1.001637749E+02  0.000000000E+00  0.00000E+00  9.000E+00
      25     1     1     2     0     0 -3.765796676E+01  1.236223829E+02  1.004832859E+02  2.059672468E+02  1.250000000E+02  0.00000E+00  9.000E+00
      25     1     1     2     0     0  7.318462852E+00 -3.323271697E+01  3.820320458E+02  4.033998728E+02  1.250000000E+02  0.00000E+00  9.000E+00
      21     1     1     2   511   501  3.033950390E+01 -9.038966592E+01  2.512454115E+01  9.860030309E+01  1.966049969E-06  0.00000E+00  9.000E+00
#rwgt            1           1   4.8676093245389143E-002           3      129415           0
</event>
<event>
      5   9999  3.79277E-02  2.83329E+01 -1.00000E+00  1.54785E-01
      21    -1     0     0   502   512  0.000000000E+00  0.000000000E+00  6.626410337E+02  6.626410337E+02  0.000000000E+00  0.00000E+00  9.000E+00
      21    -1     0     0   501   502  0.000000000E+00  0.000000000E+00 -5.060159904E+02  5.060159904E+02  0.000000000E+00  0.00000E+00  9.000E+00
      25     1     1     2     0     0  4.379551658E+01 -2.199659997E+01 -3.650587604E+02  3.889663176E+02  1.250000000E+02  0.00000E+00  9.000E+00
      25     1     1     2     0     0 -3.783181497E+01  4.969474926E+01 -9.073990462E+01  1.666119582E+02  1.250000000E+02  0.00000E+00  9.000E+00
      21     1     1     2   501   512 -5.963701611E+00 -2.769814930E+01  6.124237082E+02  6.130787483E+02  0.000000000E+00  0.00000E+00  9.000E+00
#rwgt            1           1   4.0577428657516630E-002           3      129651           0
</event>
<event>
      5   9999  3.79277E-02  2.12065E+01 -1.00000E+00  1.64297E-01
      21    -1     0     0   502   511  0.000000000E+00  0.000000000E+00  5.671364320E+02  5.671364320E+02  0.000000000E+00  0.00000E+00  9.000E+00
      21    -1     0     0   501   502  0.000000000E+00  0.000000000E+00 -1.399924446E+02  1.399924446E+02  0.000000000E+00  0.00000E+00  9.000E+00
      25     1     1     2     0     0  1.789306744E+02  1.272783092E+02  9.911766440E+01  2.714134589E+02  1.250000000E+02  0.00000E+00  9.000E+00
      25     1     1     2     0     0 -1.855169590E+02 -1.071204846E+02  2.398616255E+02  3.450361426E+02  1.250000000E+02  0.00000E+00  9.000E+00
      21     1     1     2   501   511  6.586284629E+00 -2.015782463E+01  8.816469760E+01  9.067927515E+01  0.000000000E+00  0.00000E+00  9.000E+00
#rwgt            1           1   3.6639155945828797E-002           3      129857           0
</event>
<event>
      5   9999  3.79277E-02  6.33209E+01 -1.00000E+00  1.33465E-01
      21    -1     0     0   502   512  0.000000000E+00  0.000000000E+00  5.819198335E+02  5.819198335E+02  0.000000000E+00  0.00000E+00  9.000E+00
      21    -1     0     0   501   502  0.000000000E+00  0.000000000E+00 -9.770749375E+02  9.770749375E+02  0.000000000E+00  0.00000E+00  9.000E+00
      25     1     1     2     0     0 -5.556385774E+01 -1.213766425E+02 -6.588015875E+02  6.837135096E+02  1.250000000E+02  0.00000E+00  9.000E+00
      25     1     1     2     0     0  6.361071103E+01  1.841841527E+02 -2.598213823E+02  3.479975221E+02  1.250000000E+02  0.00000E+00  9.000E+00
      21     1     1     2   501   512 -8.046853289E+00 -6.280751019E+01  5.234678658E+02  5.272837392E+02  7.629394531E-06  0.00000E+00  9.000E+00
#rwgt            1           1   4.8025335071537403E-002           3      130025           0
</event>
<event>
      5   9999  3.79277E-02  2.13853E+01 -1.00000E+00  1.64004E-01
      21    -1     0     0   502   511  0.000000000E+00  0.000000000E+00  8.015185825E+01  8.015185825E+01  0.000000000E+00  0.00000E+00  9.000E+00
      21    -1     0     0   501   502  0.000000000E+00  0.000000000E+00 -1.335577360E+03  1.335577360E+03  0.000000000E+00  0.00000E+00  9.000E+00
      25     1     1     2     0     0 -7.023697285E+01 -3.760035985E+00 -1.037215367E+02  1.770043147E+02  1.250000000E+02  0.00000E+00  9.000E+00
      25     1     1     2     0     0  7.202009708E+01 -1.755083355E+01 -1.187860527E+03  1.196717409E+03  1.250000000E+02  0.00000E+00  9.000E+00
      21     1     1     2   501   511 -1.783124233E+00  2.131086954E+01  3.615656140E+01  4.200749487E+01  8.259061849E-07  0.00000E+00  9.000E+00
#rwgt            1           1   2.1943632485066325E-002           3      130137           0
</event>
<event>
      5   9999  3.79277E-02  1.03738E+01 -1.00000E+00  1.93932E-01
      21    -1     0     0   512   501  0.000000000E+00  0.000000000E+00  1.570878052E+02  1.570878052E+02  0.000000000E+00  0.00000E+00  9.000E+00
      21    -1     0     0   501   502  0.000000000E+00  0.000000000E+00 -7.142809498E+02  7.142809498E+02  0.000000000E+00  0.00000E+00  9.000E+00
      25     1     1     2     0     0 -2.598139100E+02 -6.092340434E+01 -3.455542547E+02  4.541449901E+02  1.250000000E+02  0.00000E+00  9.000E+00
      25     1     1     2     0     0  2.679940622E+02  5.454364313E+01 -2.414616635E+02  3.856482352E+02  1.250000000E+02  0.00000E+00  9.000E+00
      21     1     1     2   512   502 -8.180152188E+00  6.379761207E+00  2.982277366E+01  3.157552963E+01  7.539457465E-07  0.00000E+00  9.000E+00
#rwgt            1           1   3.2130826516032614E-002           3      130322           0
</event>
<event>
      5   9999  3.79277E-02  1.76700E+01 -1.00000E+00  1.70933E-01
      21    -1     0     0   511   501  0.000000000E+00  0.000000000E+00  5.561821664E+02  5.561821664E+02  0.000000000E+00  0.00000E+00  9.000E+00
      21    -1     0     0   501   502  0.000000000E+00  0.000000000E+00 -7.189463769E+01  7.189463769E+01  0.000000000E+00  0.00000E+00  9.000E+00
      25     1     1     2     0     0  1.750575915E+00 -1.100759766E+02  9.231972679E+01  1.904408493E+02  1.250000000E+02  0.00000E+00  9.000E+00
      25     1     1     2     0     0  1.298497876E+01  1.198275544E+02  3.262325819E+02  3.695672468E+02  1.250000000E+02  0.00000E+00  9.000E+00
      21     1     1     2   511   502 -1.473555468E+01 -9.751577757E+00  6.573522006E+01  6.806870792E+01  0.000000000E+00  0.00000E+00  9.000E+00
#rwgt            1           1   5.3134868367422344E-002           3      130740           0
</event>
<event>
      5   9999  3.79277E-02  8.97367E+01 -1.00000E+00  1.25981E-01
      21    -1     0     0   502   501  0.000000000E+00  0.000000000E+00  4.341151655E+02  4.341151655E+02  0.000000000E+00  0.00000E+00  9.000E+00
       4    -1     0     0   501     0  0.000000000E+00  0.000000000E+00 -8.209848918E+02  8.209848918E+02  0.000000000E+00  0.00000E+00  9.000E+00
      25     1     1     2     0     0 -6.346630044E+01 -1.629756153E+02  2.376959476E+02  3.204892916E+02  1.250000000E+02  0.00000E+00  9.000E+00
      25     1     1     2     0     0  1.414760814E+02  2.073281055E+02  2.254553295E+01  2.813071737E+02  1.250000000E+02  0.00000E+00  9.000E+00
       4     1     1     2   502     0 -7.800978099E+01 -4.435249018E+01 -6.471112068E+02  6.533035920E+02  7.629394531E-06  0.00000E+00  9.000E+00
#rwgt            1           1   4.0937791207857663E-002           3      130945           0
</event>
<event>
      5   9999 -3.79277E-02  5.77726E+01 -1.00000E+00  1.35587E-01
       2    -1     0     0   502     0  0.000000000E+00  0.000000000E+00  1.264638190E+03  1.264638190E+03  0.000000000E+00  0.00000E+00  9.000E+00
      21    -1     0     0   501   502  0.000000000E+00  0.000000000E+00 -1.877770057E+02  1.877770057E+02  0.000000000E+00  0.00000E+00  9.000E+00
      25     1     1     2     0     0 -1.330103615E+02  7.653376074E+01 -3.552928766E+01  2.010882968E+02  1.250000000E+02  0.00000E+00  9.000E+00
      25     1     1     2     0     0  1.905362194E+02 -7.120035216E+01  1.390736112E+02  2.762969605E+02  1.250000000E+02  0.00000E+00  9.000E+00
       2     1     1     2   501     0 -5.752585788E+01 -5.333408578E+00  9.733168605E+02  9.750299383E+02  1.078959322E-05  0.00000E+00  9.000E+00
#rwgt            1           1 -0.40830278965226113                3      131026           0
</event>
<event>
      5   9999  3.79277E-02  1.91160E+01 -1.00000E+00  1.68005E-01
      21    -1     0     0   502   511  0.000000000E+00  0.000000000E+00  4.120099955E+02  4.120099955E+02  0.000000000E+00  0.00000E+00  9.000E+00
      21    -1     0     0   501   502  0.000000000E+00  0.000000000E+00 -2.824512746E+02  2.824512746E+02  0.000000000E+00  0.00000E+00  9.000E+00
      25     1     1     2     0     0  6.673218495E+01  1.972307101E+01 -2.426418565E+02  2.816775720E+02  1.250000000E+02  0.00000E+00  9.000E+00
      25     1     1     2     0     0 -8.293140180E+01 -2.987235487E+01  3.569133636E+02  3.883067397E+02  1.250000000E+02  0.00000E+00  9.000E+00
      21     1     1     2   501   511  1.619921685E+01  1.014928386E+01  1.528721375E+01  2.447695843E+01  2.384185791E-07  0.00000E+00  9.000E+00
#rwgt            1           1   4.5379268522500120E-002           3      131121           0
</event>
<event>
      5   9999  3.79277E-02  6.79051E+00 -1.00000E+00  2.17436E-01
      21    -1     0     0   502   501  0.000000000E+00  0.000000000E+00  5.465634302E+02  5.465634302E+02  0.000000000E+00  0.00000E+00  9.000E+00
      21    -1     0     0   501   512  0.000000000E+00  0.000000000E+00 -7.263692113E+01  7.263692113E+01  0.000000000E+00  0.00000E+00  9.000E+00
      25     1     1     2     0     0  3.309470159E+01  1.264112557E+02  3.536293049E+02  3.971822631E+02  1.250000000E+02  0.00000E+00  9.000E+00
      25     1     1     2     0     0 -3.908016954E+01 -1.232042047E+02  1.161372547E+02  2.140546604E+02  1.250000000E+02  0.00000E+00  9.000E+00
      21     1     1     2   502   512  5.985467947E+00 -3.207051040E+00  4.159949460E+00  7.963427807E+00  5.960464478E-08  0.00000E+00  9.000E+00
#rwgt            1           1   3.2235910771697192E-002           3      131313           0
</event>
<event>
      5   9999  3.79277E-02  6.27781E+01 -1.00000E+00  1.33661E-01
      21    -1     0     0   502   501  0.000000000E+00  0.000000000E+00  2.306265972E+02  2.306265972E+02  0.000000000E+00  0.00000E+00  9.000E+00
      21    -1     0     0   511   502  0.000000000E+00  0.000000000E+00 -2.826793847E+02  2.826793847E+02  0.000000000E+00  0.00000E+00  9.000E+00
      25     1     1     2     0     0 -1.587223747E+02 -8.613757585E+00  3.350023812E-01  2.022179549E+02  1.250000000E+02  0.00000E+00  9.000E+00
      25     1     1     2     0     0  2.032886854E+02 -3.560085207E+01 -2.493737002E+01  2.425707788E+02  1.250000000E+02  0.00000E+00  9.000E+00
      21     1     1     2   511   501 -4.456631067E+01  4.421460965E+01 -2.745041989E+01  6.851724823E+01  1.685873940E-06  0.00000E+00  9.000E+00
#rwgt            1           1   3.6938153693844795E-002           3      131626           0
</event>
<event>
      5   9999  3.79277E-02  1.48237E+01 -1.00000E+00  1.77869E-01
      21    -1     0     0   512   501  0.000000000E+00  0.000000000E+00  7.925368571E+02  7.925368571E+02  0.000000000E+00  0.00000E+00  9.000E+00
      21    -1     0     0   501   502  0.000000000E+00  0.000000000E+00 -1.117982286E+02  1.117982286E+02  0.000000000E+00  0.00000E+00  9.000E+00
      25     1     1     2     0     0 -6.822104970E+01  1.180324900E+02  2.786927682E+01  1.870493970E+02  1.250000000E+02  0.00000E+00  9.000E+00
      25     1     1     2     0     0  6.307608236E+01 -1.041303012E+02  2.051455605E+02  2.693165661E+02  1.250000000E+02  0.00000E+00  9.000E+00
      21     1     1     2   512   502  5.144967342E+00 -1.390218874E+01  4.477237913E+02  4.479691226E+02  9.344061824E-06  0.00000E+00  9.000E+00
#rwgt            1           1   3.4184051845112473E-002           3      131725           0
</event>
<event>
      5   9999  3.79277E-02  2.88211E+01 -1.00000E+00  1.54259E-01
      21    -1     0     0   502   501  0.000000000E+00  0.000000000E+00  5.582191559E+02  5.582191559E+02  0.000000000E+00  0.00000E+00  9.000E+00
      21    -1     0     0   511   502  0.000000000E+00  0.000000000E+00 -3.384463673E+02  3.384463673E+02  0.000000000E+00  0.00000E+00  9.000E+00
      25     1     1     2     0     0  1.064276622E+02  5.376365957E+01  3.380901220E+01  1.760267811E+02  1.250000000E+02  0.00000E+00  9.000E+00
      25     1     1     2     0     0 -1.352437296E+02 -5.430193135E+01  4.320914619E+02  4.728293535E+02  1.250000000E+02  0.00000E+00  9.000E+00
      21     1     1     2   511   501  2.881606744E+01  5.382717799E-01 -2.461276855E+02  2.478093885E+02  3.814697266E-06  0.00000E+00  9.000E+00
#rwgt            1           1   4.1287203905308864E-002           3      132035           0
</event>
<event>
      5   9999  3.79277E-02  5.10412E+01 -1.00000E+00  1.38567E-01
      21    -1     0     0   502   501  0.000000000E+00  0.000000000E+00  7.770326516E+02  7.770326516E+02  0.000000000E+00  0.00000E+00  9.000E+00
      21    -1     0     0   501   512  0.000000000E+00  0.000000000E+00 -1.917019780E+02  1.917019780E+02  0.000000000E+00  0.00000E+00  9.000E+00
      25     1     1     2     0     0  1.122511595E+02 -1.500517296E+02  1.357544318E+02  2.630021105E+02  1.250000000E+02  0.00000E+00  9.000E+00
      25     1     1     2     0     0 -8.398354833E+01  1.075529387E+02  5.569258276E+02  5.868664656E+02  1.250000000E+02  0.00000E+00  9.000E+00
      21     1     1     2   502   512 -2.826761116E+01  4.249879087E+01 -1.073495859E+02  1.188660534E+02  1.348699152E-06  0.00000E+00  9.000E+00
#rwgt            1           1   3.5812131976356895E-002           3      132145           0
</event>
<event>
      5   9999  3.79277E-02  2.84906E+01 -1.00000E+00  1.54613E-01
      21    -1     0     0   511   501  0.000000000E+00  0.000000000E+00  9.316485055E+01  9.316485055E+01  0.000000000E+00  0.00000E+00  9.000E+00
      21    -1     0     0   501   502  0.000000000E+00  0.000000000E+00 -7.325251854E+02  7.325251854E+02  0.000000000E+00  0.00000E+00  9.000E+00
      25     1     1     2     0     0  7.978954440E+01  1.329725220E+02 -5.596166260E+02  5.940065918E+02  1.250000000E+02  0.00000E+00  9.000E+00
      25     1     1     2     0     0 -5.268958938E+01 -1.241800740E+02 -8.518482951E+01  2.026779188E+02  1.250000000E+02  0.00000E+00  9.000E+00
      21     1     1     2   511   502 -2.709995502E+01 -8.792448016E+00  5.441120680E+00  2.900552531E+01  3.908537939E-07  0.00000E+00  9.000E+00
#rwgt            1           1   2.8606832791631041E-002           3      132257           0
</event>
<event>
      5   9999  3.79277E-02  1.03889E+02 -1.00000E+00  1.23087E-01
       2    -1     0     0   502     0  0.000000000E+00  0.000000000E+00  2.611861398E+02  2.611861398E+02  0.000000000E+00  0.00000E+00  9.000E+00
      21    -1     0     0   501   502  0.000000000E+00  0.000000000E+00 -6.339278238E+02  6.339278238E+02  0.000000000E+00  0.00000E+00  9.000E+00
      25     1     1     2     0     0  1.197539164E+02 -1.860430503E+01 -2.693266659E+02  3.207007540E+02  1.250000000E+02  0.00000E+00  9.000E+00
      25     1     1     2     0     0 -1.070755560E+02 -8.450781045E+01 -2.997696128E+02  3.522691662E+02  1.250000000E+02  0.00000E+00  9.000E+00
       2     1     1     2   501     0 -1.267836038E+01  1.031121155E+02  1.963545946E+02  2.221440434E+02  0.000000000E+00  0.00000E+00  9.000E+00
#rwgt            1           1   3.8232270032639064E-002           3      132437           0
</event>
<event>
      5   9999  3.79277E-02  8.80897E+01 -1.00000E+00  1.26357E-01
      21    -1     0     0   511   501  0.000000000E+00  0.000000000E+00  1.378057784E+02  1.378057784E+02  0.000000000E+00  0.00000E+00  9.000E+00
      21    -1     0     0   501   502  0.000000000E+00  0.000000000E+00 -6.052450564E+02  6.052450564E+02  0.000000000E+00  0.00000E+00  9.000E+00
      25     1     1     2     0     0 -3.379851087E+00 -4.914515351E+01  4.551508077E+01  1.418565898E+02  1.250000000E+02  0.00000E+00  9.000E+00
      25     1     1     2     0     0 -7.005655951E+01  4.944648497E-01 -4.894900531E+02  5.100330167E+02  1.250000000E+02  0.00000E+00  9.000E+00
      21     1     1     2   511   502  7.343641060E+01  4.865068866E+01 -2.346430567E+01  9.116122832E+01  1.581489940E-06  0.00000E+00  9.000E+00
#rwgt            1           1   3.5311684077361204E-002           3      132518           0
</event>
<event>
      5   9999  3.79277E-02  6.41624E+01 -1.00000E+00  1.33165E-01
      21    -1     0     0   502   512  0.000000000E+00  0.000000000E+00  3.512391493E+02  3.512391493E+02  0.000000000E+00  0.00000E+00  9.000E+00
      21    -1     0     0   501   502  0.000000000E+00  0.000000000E+00 -3.866316218E+02  3.866316218E+02  0.000000000E+00  0.00000E+00  9.000E+00
      25     1     1     2     0     0  1.500958394E+02 -1.698495778E+01  8.070248646E+01  2.120262746E+02  1.250000000E+02  0.00000E+00  9.000E+00
      25     1     1     2     0     0 -8.627453931E+01  1.037793196E+01 -2.970841081E+02  3.338187606E+02  1.250000000E+02  0.00000E+00  9.000E+00
      21     1     1     2   501   512 -6.382130005E+01  6.607025818E+00  1.809891492E+02  1.920257359E+02  0.000000000E+00  0.00000E+00  9.000E+00
#rwgt            1           1   2.6748836847535876E-002           3      132647           0
</event>
<event>
      5   9999  3.79277E-02  1.04565E+01 -1.00000E+00  1.93542E-01
      21    -1     0     0   502   511  0.000000000E+00  0.000000000E+00  6.626483798E+01  6.626483798E+01  0.000000000E+00  0.00000E+00  9.000E+00
      21    -1     0     0   501   502  0.000000000E+00  0.000000000E+00 -1.104701257E+03  1.104701257E+03  0.000000000E+00  0.00000E+00  9.000E+00
      25     1     1     2     0     0  1.432609550E+02  2.014584655E+01 -2.230494582E+02  2.937781768E+02  1.250000000E+02  0.00000E+00  9.000E+00
      25     1     1     2     0     0 -1.330098054E+02 -2.220815741E+01 -8.349762408E+02  8.549825339E+02  1.250000000E+02  0.00000E+00  9.000E+00
      21     1     1     2   501   511 -1.025114959E+01  2.062310858E+00  1.958928006E+01  2.220538419E+01  8.920806376E-07  0.00000E+00  9.000E+00
#rwgt            1           1   4.0936393598479996E-002           3      132727           0
</event>
<event>
      5   9999  3.79277E-02  4.22897E+01 -1.00000E+00  1.43357E-01
      21    -1     0     0   502   501  0.000000000E+00  0.000000000E+00  4.826902853E+02  4.826902853E+02  0.000000000E+00  0.00000E+00  9.000E+00
       4    -1     0     0   501     0  0.000000000E+00  0.000000000E+00 -1.116220834E+02  1.116220834E+02  0.000000000E+00  0.00000E+00  9.000E+00
      25     1     1     2     0     0 -7.854263559E+01  3.737853138E+01  2.656665779E+02  3.062185997E+02  1.250000000E+02  0.00000E+00  9.000E+00
      25     1     1     2     0     0  4.421994238E+01 -6.208426337E+01  1.614069753E+02  2.179152834E+02  1.250000000E+02  0.00000E+00  9.000E+00
       4     1     1     2   502     0  3.432269320E+01  2.470573199E+01 -5.600535131E+01  7.017848557E+01  2.132480600E-06  0.00000E+00  9.000E+00
#rwgt            1           1   8.4150173679101908E-002           3      133148           0
</event>
<event>
      5   9999  3.79277E-02  8.65954E+01 -1.00000E+00  1.26706E-01
      21    -1     0     0   511   501  0.000000000E+00  0.000000000E+00  3.419514881E+02  3.419514881E+02  0.000000000E+00  0.00000E+00  9.000E+00
      21    -1     0     0   501   502  0.000000000E+00  0.000000000E+00 -1.709872411E+02  1.709872411E+02  0.000000000E+00  0.00000E+00  9.000E+00
      25     1     1     2     0     0 -1.137261584E+02  1.246587258E+02  4.181280009E+01  2.141185355E+02  1.250000000E+02  0.00000E+00  9.000E+00
      25     1     1     2     0     0  1.275007524E+02 -3.916590899E+01  9.090621429E+01  2.041552108E+02  1.250000000E+02  0.00000E+00  9.000E+00
      21     1     1     2   511   502 -1.377459402E+01 -8.549281679E+01  3.824523271E+01  9.466498290E+01  1.581489940E-06  0.00000E+00  9.000E+00
#rwgt            1           1   3.4588246561412767E-002           3      133267           0
</event>
<event>
      5   9999  3.79277E-02  4.54502E+01 -1.00000E+00  1.41482E-01
      21    -1     0     0   502   501  0.000000000E+00  0.000000000E+00  1.783716007E+03  1.783716007E+03  0.000000000E+00  0.00000E+00  9.000E+00
      21    -1     0     0   501   512  0.000000000E+00  0.000000000E+00 -3.869334923E+01  3.869334923E+01  0.000000000E+00  0.00000E+00  9.000E+00
      25     1     1     2     0     0  4.372999333E+01  1.459320046E+02  3.560996649E+02  4.069894760E+02  1.250000000E+02  0.00000E+00  9.000E+00
      25     1     1     2     0     0 -9.331886175E+00 -1.756387522E+02  1.268170134E+03  1.286396729E+03  1.250000000E+02  0.00000E+00  9.000E+00
      21     1     1     2   502   512 -3.439810715E+01  2.970674765E+01  1.207528584E+02  1.290231508E+02  2.697398305E-06  0.00000E+00  9.000E+00
#rwgt            1           1   5.5057661861489790E-002           3      133380           0
</event>
<event>
      5   9999  3.79277E-02  1.46925E+02 -1.00000E+00  1.16751E-01
      21    -1     0     0   511   501  0.000000000E+00  0.000000000E+00  3.593635502E+02  3.593635502E+02  0.000000000E+00  0.00000E+00  9.000E+00
      21    -1     0     0   501   502  0.000000000E+00  0.000000000E+00 -2.853552368E+02  2.853552368E+02  0.000000000E+00  0.00000E+00  9.000E+00
      25     1     1     2     0     0  1.669692261E+02 -1.707797330E+02 -1.069907243E+02  2.900283689E+02  1.250000000E+02  0.00000E+00  9.000E+00
      25     1     1     2     0     0 -8.257083306E+01  5.051451043E+01  9.529814794E+01  1.845979286E+02  1.250000000E+02  0.00000E+00  9.000E+00
      21     1     1     2   511   502 -8.439839306E+01  1.202652225E+02  8.570088980E+01  1.700924896E+02  3.438521648E-06  0.00000E+00  9.000E+00
#rwgt            1           1   4.1012849254737013E-002           3      133567           0
</event>
<event>
      5   9999  3.79277E-02  7.01300E+01 -1.00000E+00  1.31180E-01
      21    -1     0     0   502   501  0.000000000E+00  0.000000000E+00  1.011151792E+02  1.011151792E+02  0.000000000E+00  0.00000E+00  9.000E+00
       2    -1     0     0   501     0  0.000000000E+00  0.000000000E+00 -2.370551703E+03  2.370551703E+03  0.000000000E+00  0.00000E+00  9.000E+00
      25     1     1     2     0     0 -9.508024687E+01 -1.780751381E+02 -6.578153104E+02  6.993546960E+02  1.250000000E+02  0.00000E+00  9.000E+00
      25     1     1     2     0     0  9.504412685E+01  2.482051509E+02 -1.918593431E+02  3.508193132E+02  1.250000000E+02  0.00000E+00  9.000E+00
       2     1     1     2   502     0  3.612001895E-02 -7.013001280E+01 -1.419761870E+03  1.421492873E+03  1.525878906E-05  0.00000E+00  9.000E+00
#rwgt            1           1   3.2999357849307631E-002           3      133627           0
</event>
<event>
      5   9999  3.79277E-02  7.98777E+01 -1.00000E+00  1.28382E-01
       2    -1     0     0   502     0  0.000000000E+00  0.000000000E+00  4.767176504E+02  4.767176504E+02  0.000000000E+00  0.00000E+00  9.000E+00
      21    -1     0     0   501   502  0.000000000E+00  0.000000000E+00 -3.328239865E+02  3.328239865E+02  0.000000000E+00  0.00000E+00  9.000E+00
      25     1     1     2     0     0  3.715722829E+01  9.154909406E+01  6.108704323E+01  1.706415046E+02  1.250000000E+02  0.00000E+00  9.000E+00
      25     1     1     2     0     0 -2.026306131E+01 -1.696197762E+02 -2.320367640E+02  3.140820275E+02  1.250000000E+02  0.00000E+00  9.000E+00
       2     1     1     2   501     0 -1.689416698E+01  7.807068211E+01  3.148433847E+02  3.248181048E+02  3.814697266E-06  0.00000E+00  9.000E+00
#rwgt            1           1   3.9377479716843897E-002           3      133810           0
</event>
<event>
      5   9999  3.79277E-02  9.39332E+01 -1.00000E+00  1.25063E-01
      21    -1     0     0   502   501  0.000000000E+00  0.000000000E+00  2.028741292E+03  2.028741292E+03  0.000000000E+00  0.00000E+00  9.000E+00
       1    -1     0     0   501     0  0.000000000E+00  0.000000000E+00 -2.016568282E+02  2.016568282E+02  0.000000000E+00  0.00000E+00  9.000E+00
      25     1     1     2     0     0  3.809381503E+01  4.686816909E+01  1.713437674E+03  1.719052479E+03  1.250000000E+02  0.00000E+00  9.000E+00
      25     1     1     2     0     0 -1.153349025E+02 -1.003214450E+02  2.666531222E+02  3.318062983E+02  1.250000000E+02  0.00000E+00  9.000E+00
       1     1     1     2   502     0  7.724108746E+01  5.345327589E+01 -1.530063316E+02  1.795393433E+02  6.607249480E-06  0.00000E+00  9.000E+00
#rwgt            1           1   8.4831519149929882E-002           3      133962           0
</event>
<event>
      5   9999  3.79277E-02  1.02742E+02 -1.00000E+00  1.23302E-01
      21    -1     0     0   502   501  0.000000000E+00  0.000000000E+00  1.574985245E+02  1.574985245E+02  0.000000000E+00  0.00000E+00  9.000E+00
      21    -1     0     0   501   511  0.000000000E+00  0.000000000E+00 -8.273432436E+02  8.273432436E+02  0.000000000E+00  0.00000E+00  9.000E+00
      25     1     1     2     0     0 -9.387092782E+01  2.221495656E+02 -1.838099269E+02  3.279836426E+02  1.250000000E+02  0.00000E+00  9.000E+00
      25     1     1     2     0     0  1.860811678E+02 -1.768375591E+02 -1.886247022E+02  3.422016972E+02  1.250000000E+02  0.00000E+00  9.000E+00
      21     1     1     2   502   511 -9.221023994E+01 -4.531200648E+01 -2.974100899E+02  3.146564283E+02  0.000000000E+00  0.00000E+00  9.000E+00
#rwgt            1           1   3.0648050082335673E-002           3      134044           0
</event>
<event>
      5   9999  3.79277E-02  4.00405E+01 -1.00000E+00  1.44813E-01
       2    -1     0     0   502     0  0.000000000E+00  0.000000000E+00  1.396071339E+03  1.396071339E+03  0.000000000E+00  0.00000E+00  9.000E+00
      21    -1     0     0   501   502  0.000000000E+00  0.000000000E+00 -1.273096743E+03  1.273096743E+03  0.000000000E+00  0.00000E+00  9.000E+00
      25     1     1     2     0     0 -9.906603292E+01  4.672665827E+01 -5.347265674E+02  5.599597855E+02  1.250000000E+02  0.00000E+00  9.000E+00
      25     1     1     2     0     0  9.332666291E+01 -8.635370692E+01 -7.145058114E+02  7.364172616E+02  1.250000000E+02  0.00000E+00  9.000E+00
       2     1     1     2   501     0  5.739370014E+00  3.962704865E+01  1.372206975E+03  1.372791035E+03  0.000000000E+00  0.00000E+00  9.000E+00
#rwgt            1           1   3.4779724427890575E-002           3      134169           0
</event>
<event>
      5   9999  3.79277E-02  1.19261E+01 -1.00000E+00  1.87310E-01
      21    -1     0     0   502   501  0.000000000E+00  0.000000000E+00  4.257178837E+02  4.257178837E+02  0.000000000E+00  0.00000E+00  9.000E+00
      21    -1     0     0   501   511  0.000000000E+00  0.000000000E+00 -1.817800295E+02  1.817800295E+02  0.000000000E+00  0.00000E+00  9.000E+00
      25     1     1     2     0     0 -3.581791976E+01 -6.650266384E+01  3.076272516E+02  3.405364204E+02  1.250000000E+02  0.00000E+00  9.000E+00
      25     1     1     2     0     0  2.476339911E+01  6.202714924E+01  5.177346354E+01  1.508843422E+02  1.250000000E+02  0.00000E+00  9.000E+00
      21     1     1     2   502   511  1.105452065E+01  4.475514593E+00 -1.154628609E+02  1.160771507E+02  1.348699152E-06  0.00000E+00  9.000E+00
#rwgt            1           1   3.2995262136291149E-002           3      134358           0
</event>
<event>
      5   9999  3.79277E-02  1.26890E+02 -1.00000E+00  1.19348E-01
      21    -1     0     0   502   501  0.000000000E+00  0.000000000E+00  1.118937007E+03  1.118937007E+03  0.000000000E+00  0.00000E+00  9.000E+00
      21    -1     0     0   501   512  0.000000000E+00  0.000000000E+00 -1.533638290E+02  1.533638290E+02  0.000000000E+00  0.00000E+00  9.000E+00
      25     1     1     2     0     0  1.078257291E+02  8.074575535E+01  2.449198383E+02  3.061976356E+02  1.250000000E+02  0.00000E+00  9.000E+00
      25     1     1     2     0     0  1.412929828E+01 -1.157879169E+02  7.989250375E+02  8.170145007E+02  1.250000000E+02  0.00000E+00  9.000E+00
      21     1     1     2   502   512 -1.219550274E+02  3.504216158E+01 -7.827169763E+01  1.490886999E+02  2.132480600E-06  0.00000E+00  9.000E+00
#rwgt            1           1   4.2987510784863465E-002           3      134544           0
</event>
<event>
      5   9999  3.79277E-02  4.37000E+01 -1.00000E+00  1.42497E-01
       2    -1     0     0   502     0  0.000000000E+00  0.000000000E+00  2.654629441E+02  2.654629441E+02  0.000000000E+00  0.00000E+00  9.000E+00
      21    -1     0     0   501   502  0.000000000E+00  0.000000000E+00 -2.412071947E+02  2.412071947E+02  0.000000000E+00  0.00000E+00  9.000E+00
      25     1     1     2     0     0  9.501025308E+01 -6.827422759E+01 -1.764388151E+01  1.721180551E+02  1.250000000E+02  0.00000E+00  9.000E+00
      25     1     1     2     0     0 -9.033164884E+01  2.482543877E+01 -1.004014658E+02  1.856921203E+02  1.250000000E+02  0.00000E+00  9.000E+00
       2     1     1     2   501     0 -4.678604245E+00  4.344878882E+01  1.423010967E+02  1.488599634E+02  0.000000000E+00  0.00000E+00  9.000E+00
#rwgt            1           1   2.4767750138665567E-002           3      134630           0
</event>
<event>
      5   9999  3.79277E-02  1.41892E+02 -1.00000E+00  1.17358E-01
      21    -1     0     0   511   501  0.000000000E+00  0.000000000E+00  2.993994599E+02  2.993994599E+02  0.000000000E+00  0.00000E+00  9.000E+00
      21    -1     0     0   501   502  0.000000000E+00  0.000000000E+00 -5.400195057E+02  5.400195057E+02  0.000000000E+00  0.00000E+00  9.000E+00
      25     1     1     2     0     0 -1.778566213E+02  8.124185034E+01 -6.110532859E+01  2.399834936E+02  1.250000000E+02  0.00000E+00  9.000E+00
      25     1     1     2     0     0  4.317356706E+01 -1.258946661E+02 -3.395661851E+02  3.855432763E+02  1.250000000E+02  0.00000E+00  9.000E+00
      21     1     1     2   511   502  1.346830543E+02  4.465281574E+01  1.600514678E+02  2.138921958E+02  1.907348633E-06  0.00000E+00  9.000E+00
#rwgt            1           1   4.4672923379685661E-002           3      134729           0
</event>
<event>
      5   9999  3.79277E-02  1.68591E+01 -1.00000E+00  1.72733E-01
      21    -1     0     0   502   501  0.000000000E+00  0.000000000E+00  8.161374892E+01  8.161374892E+01  0.000000000E+00  0.00000E+00  9.000E+00
      21    -1     0     0   512   502  0.000000000E+00  0.000000000E+00 -4.096596706E+02  4.096596706E+02  0.000000000E+00  0.00000E+00  9.000E+00
      25     1     1     2     0     0  2.472756908E+01 -6.328701276E+01 -1.709403522E+01  1.432965621E+02  1.250000000E+02  0.00000E+00  9.000E+00
      25     1     1     2     0     0 -3.544751624E+01  5.027503956E+01 -2.790463030E+02  3.118909188E+02  1.250000000E+02  0.00000E+00  9.000E+00
      21     1     1     2   512   501  1.071994717E+01  1.301197319E+01 -3.190558350E+01  3.608593870E+01  3.371747881E-07  0.00000E+00  9.000E+00
#rwgt            1           1   4.8844983751656065E-002           3      134906           0
</event>
<event>
      5   9999  3.79277E-02  3.29821E+01 -1.00000E+00  1.50235E-01
      21    -1     0     0   511   501  0.000000000E+00  0.000000000E+00  7.638746052E+01  7.638746052E+01  0.000000000E+00  0.00000E+00  9.000E+00
      21    -1     0     0   501   502  0.000000000E+00  0.000000000E+00 -1.356938515E+03  1.356938515E+03  0.000000000E+00  0.00000E+00  9.000E+00
      25     1     1     2     0     0 -1.363847415E+02 -1.307088404E+02 -1.103591277E+03  1.126598555E+03  1.250000000E+02  0.00000E+00  9.000E+00
      25     1     1     2     0     0  1.035254086E+02  1.278656133E+02 -1.794266920E+02  2.736531803E+02  1.250000000E+02  0.00000E+00  9.000E+00
      21     1     1     2   511   502  3.285933289E+01  2.843227136E+00  2.466914001E+00  3.307424017E+01  2.169641819E-07  0.00000E+00  9.000E+00
#rwgt            1           1   5.4101346505087342E-002           3      135151           0
</event>
<event>
      5   9999  3.79277E-02  1.59914E+02 -1.00000E+00  1.15303E-01
      21    -1     0     0   512   501  0.000000000E+00  0.000000000E+00  1.066839412E+02  1.066839412E+02  0.000000000E+00  0.00000E+00  9.000E+00
      21    -1     0     0   501   502  0.000000000E+00  0.000000000E+00 -8.315857337E+02  8.315857337E+02  0.000000000E+00  0.00000E+00  9.000E+00
      25     1     1     2     0     0  8.818618208E+01 -1.916626042E+01 -1.145855148E+02  1.920910941E+02  1.250000000E+02  0.00000E+00  9.000E+00
      25     1     1     2     0     0 -2.032603023E+02 -9.187601852E+01 -4.621739872E+02  5.281910144E+02  1.250000000E+02  0.00000E+00  9.000E+00
      21     1     1     2   512   502  1.150741202E+02  1.110422789E+02 -1.481422906E+02  2.179875664E+02  2.697398305E-06  0.00000E+00  9.000E+00
#rwgt            1           1   4.6421667246997721E-002           3      135302           0
</event>
<event>
      5   9999  3.79277E-02  3.38820E+01 -1.00000E+00  1.49458E-01
       1    -1     0     0   502     0  0.000000000E+00  0.000000000E+00  8.074546305E+02  8.074546305E+02  0.000000000E+00  0.00000E+00  9.000E+00
      21    -1     0     0   501   502  0.000000000E+00  0.000000000E+00 -1.782215442E+02  1.782215442E+02  0.000000000E+00  0.00000E+00  9.000E+00
      25     1     1     2     0     0  8.563686928E+00 -5.541383425E+01 -1.366992374E+02  1.935347805E+02  1.250000000E+02  0.00000E+00  9.000E+00
      25     1     1     2     0     0 -4.011042594E+01  6.777488218E+01  4.334446901E+02  4.579318512E+02  1.250000000E+02  0.00000E+00  9.000E+00
       1     1     1     2   501     0  3.154673901E+01 -1.236104793E+01  3.324876335E+02  3.342095431E+02  6.607249480E-06  0.00000E+00  9.000E+00
#rwgt            1           1   2.2726420428692235E-002           3      135384           0
</event>
<event>
      5   9999 -3.79277E-02  1.37099E+01 -1.00000E+00  1.81144E-01
      21    -1     0     0   502   511  0.000000000E+00  0.000000000E+00  3.466901935E+02  3.466901935E+02  0.000000000E+00  0.00000E+00  9.000E+00
      21    -1     0     0   501   502  0.000000000E+00  0.000000000E+00 -1.611946655E+02  1.611946655E+02  0.000000000E+00  0.00000E+00  9.000E+00
      25     1     1     2     0     0 -7.098722123E+01  9.347766496E+01 -5.035956431E+01  1.787130245E+02  1.250000000E+02  0.00000E+00  9.000E+00
      25     1     1     2     0     0  8.248713092E+01 -8.601354591E+01  1.148845760E+02  2.074269092E+02  1.250000000E+02  0.00000E+00  9.000E+00
      21     1     1     2   501   511 -1.149990969E+01 -7.464119049E+00  1.209705164E+02  1.217449253E+02  2.697398305E-06  0.00000E+00  9.000E+00
#rwgt            1           1  -7.8945220574853522E-002           3      135664           0
</event>
<event>
      5   9999  3.79277E-02  3.69078E+01 -1.00000E+00  1.47041E-01
      21    -1     0     0   502   501  0.000000000E+00  0.000000000E+00  2.084198468E+02  2.084198468E+02  0.000000000E+00  0.00000E+00  9.000E+00
      21    -1     0     0   512   502  0.000000000E+00  0.000000000E+00 -4.339660631E+02  4.339660631E+02  0.000000000E+00  0.00000E+00  9.000E+00
      25     1     1     2     0     0  2.245625247E+02 -1.562936229E+01  6.189795230E+00  2.575576013E+02  1.250000000E+02  0.00000E+00  9.000E+00
      25     1     1     2     0     0 -2.295851078E+02  5.219385562E+01 -1.814989505E+02  3.224909136E+02  1.250000000E+02  0.00000E+00  9.000E+00
      21     1     1     2   512   501  5.022583154E+00 -3.656449333E+01 -5.023706107E+01  6.233739503E+01  0.000000000E+00  0.00000E+00  9.000E+00
#rwgt            1           1   3.4321306100126833E-002           3      135855           0
</event>
<event>
      5   9999  3.79277E-02  8.30056E+01 -1.00000E+00  1.27579E-01
      21    -1     0     0   502   501  0.000000000E+00  0.000000000E+00  1.779669660E+03  1.779669660E+03  0.000000000E+00  0.00000E+00  9.000E+00
      21    -1     0     0   511   502  0.000000000E+00  0.000000000E+00 -1.814917799E+02  1.814917799E+02  0.000000000E+00  0.00000E+00  9.000E+00
      25     1     1     2     0     0  8.038899940E+01 -4.307745531E+02  3.933245551E+02  6.019620523E+02  1.250000000E+02  0.00000E+00  9.000E+00
      25     1     1     2     0     0 -7.599447214E+01  5.136637884E+02  1.118214078E+03  1.239214820E+03  1.250000000E+02  0.00000E+00  9.000E+00
      21     1     1     2   511   501 -4.394527251E+00 -8.288923536E+01  8.663924726E+01  1.199845672E+02  1.651812370E-06  0.00000E+00  9.000E+00
#rwgt            1           1  0.10150368202083233                3      135990           0
</event>
<event>
      5   9999  3.79277E-02  8.30762E+01 -1.00000E+00  1.27561E-01
      21    -1     0     0   512   501  0.000000000E+00  0.000000000E+00  3.141524605E+03  3.141524605E+03  0.000000000E+00  0.00000E+00  9.000E+00
      21    -1     0     0   501   502  0.000000000E+00  0.000000000E+00 -2.920145321E+02  2.920145321E+02  0.000000000E+00  0.00000E+00  9.000E+00
      25     1     1     2     0     0  8.624194676E+01 -1.386328354E+02  7.823328761E+01  2.200049629E+02  1.250000000E+02  0.00000E+00  9.000E+00
      25     1     1     2     0     0 -1.689966604E+02  1.459340175E+02 -1.463078444E+02  2.947670165E+02  1.250000000E+02  0.00000E+00  9.000E+00
      21     1     1     2   512   502  8.275471366E+01 -7.301182186E+00  2.917584629E+03  2.918767157E+03  6.103515625E-05  0.00000E+00  9.000E+00
#rwgt            1           1   4.2090217608849255E-002           3      136116           0
</event>
<event>
      5   9999  3.79277E-02  2.20270E+01 -1.00000E+00  1.62983E-01
      21    -1     0     0   511   501  0.000000000E+00  0.000000000E+00  3.103522113E+02  3.103522113E+02  0.000000000E+00  0.00000E+00  9.000E+00
      21    -1     0     0   501   502  0.000000000E+00  0.000000000E+00 -2.472819660E+02  2.472819660E+02  0.000000000E+00  0.00000E+00  9.000E+00
      25     1     1     2     0     0 -1.189397931E+01  4.634791276E+01 -2.042302254E+02  2.441814505E+02  1.250000000E+02  0.00000E+00  9.000E+00
      25     1     1     2     0     0 -7.934732750E+00 -3.675572780E+01  1.736121308E+02  2.172098421E+02  1.250000000E+02  0.00000E+00  9.000E+00
      21     1     1     2   511   502  1.982871206E+01 -9.592184963E+00  9.368833994E+01  9.624288480E+01  0.000000000E+00  0.00000E+00  9.000E+00
#rwgt            1           1   4.8574726103384744E-002           3      136191           0
</event>
<event>
      5   9999  3.79277E-02  1.44102E+01 -1.00000E+00  1.79041E-01
      21    -1     0     0   502   501  0.000000000E+00  0.000000000E+00  5.192431126E+02  5.192431126E+02  0.000000000E+00  0.00000E+00  9.000E+00
      21    -1     0     0   512   502  0.000000000E+00  0.000000000E+00 -2.739625048E+02  2.739625048E+02  0.000000000E+00  0.00000E+00  9.000E+00
      25     1     1     2     0     0  1.275158928E+02 -8.653094963E+01  3.841184885E+02  4.323423659E+02  1.250000000E+02  0.00000E+00  9.000E+00
      25     1     1     2     0     0 -1.285427505E+02  7.215736136E+01  2.633750285E+01  1.950604716E+02  1.250000000E+02  0.00000E+00  9.000E+00
      21     1     1     2   512   501  1.026857799E+00  1.437358827E+01 -1.651753836E+02  1.658027799E+02  2.697398305E-06  0.00000E+00  9.000E+00
#rwgt            1           1   4.0807638857389694E-002           3      136426           0
</event>
<event>
      5   9999  3.79277E-02  5.43408E+00 -1.00000E+00  2.32368E-01
      21    -1     0     0   502   511  0.000000000E+00  0.000000000E+00  3.258055567E+02  3.258055567E+02  0.000000000E+00  0.00000E+00  9.000E+00
      21    -1     0     0   501   502  0.000000000E+00  0.000000000E+00 -1.250753474E+02  1.250753474E+02  0.000000000E+00  0.00000E+00  9.000E+00
      25     1     1     2     0     0 -8.453958087E+00 -5.594552348E+01  1.720617032E+02  2.200718081E+02  1.250000000E+02  0.00000E+00  9.000E+00
      25     1     1     2     0     0  3.031190154E+00  5.629593054E+01 -5.442993016E+01  1.475331732E+02  1.250000000E+02  0.00000E+00  9.000E+00
      21     1     1     2   501   511  5.422767932E+00 -3.504070568E-01  8.309843636E+01  8.327592282E+01  1.651812370E-06  0.00000E+00  9.000E+00
#rwgt            1           1   4.7938554750195303E-002           3      136672           0
</event>
<event>
      5   9999  3.79277E-02  2.16658E+01 -1.00000E+00  1.63552E-01
      21    -1     0     0   502   501  0.000000000E+00  0.000000000E+00  1.101954468E+02  1.101954468E+02  0.000000000E+00  0.00000E+00  9.000E+00
      21    -1     0     0   512   502  0.000000000E+00  0.000000000E+00 -3.510695944E+02  3.510695944E+02  0.000000000E+00  0.00000E+00  9.000E+00
      25     1     1     2     0     0 -1.183556753E+02  6.134695473E+00 -4.512976326E+01  1.780657067E+02  1.250000000E+02  0.00000E+00  9.000E+00
      25     1     1     2     0     0  1.329843094E+02  9.846816063E+00 -1.707897805E+02  2.501518248E+02  1.250000000E+02  0.00000E+00  9.000E+00
      21     1     1     2   512   501 -1.462863413E+01 -1.598151154E+01 -2.495460384E+01  3.304750974E+01  3.371747881E-07  0.00000E+00  9.000E+00
#rwgt            1           1   3.1432918033459975E-002           3      137037           0
</event>
<event>
      5   9999  3.79277E-02  9.85823E+01 -1.00000E+00  1.24107E-01
      21    -1     0     0   511   501  0.000000000E+00  0.000000000E+00  2.484417970E+02  2.484417970E+02  0.000000000E+00  0.00000E+00  9.000E+00
      21    -1     0     0   501   502  0.000000000E+00  0.000000000E+00 -3.855988273E+02  3.855988273E+02  0.000000000E+00  0.00000E+00  9.000E+00
      25     1     1     2     0     0 -1.604563937E+02  3.188313157E+01 -2.489635807E+02  3.230644717E+02  1.250000000E+02  0.00000E+00  9.000E+00
      25     1     1     2     0     0  1.177569809E+02  5.697197522E+01  1.112336688E+02  2.123921881E+02  1.250000000E+02  0.00000E+00  9.000E+00
      21     1     1     2   511   502  4.269941285E+01 -8.885510679E+01  5.728815811E-01  9.858396448E+01  1.245829759E-06  0.00000E+00  9.000E+00
#rwgt            1           1   3.9729724179891790E-002           3      137117           0
</event>
<event>
      5   9999  3.79277E-02  6.71741E+01 -1.00000E+00  1.32133E-01
       1    -1     0     0   502     0  0.000000000E+00  0.000000000E+00  1.121704290E+03  1.121704290E+03  0.000000000E+00  0.00000E+00  9.000E+00
      21    -1     0     0   501   502  0.000000000E+00  0.000000000E+00 -5.589536459E+01  5.589536459E+01  0.000000000E+00  0.00000E+00  9.000E+00
      25     1     1     2     0     0  5.230460640E+01  4.137922910E+01  7.489837298E+01  1.602584747E+02  1.250000000E+02  0.00000E+00  9.000E+00
      25     1     1     2     0     0 -7.837033461E+01  2.053153138E+01  8.251392739E+02  8.384767584E+02  1.250000000E+02  0.00000E+00  9.000E+00
       1     1     1     2   501     0  2.606572821E+01 -6.191076048E+01  1.657712782E+02  1.788644211E+02  1.907348633E-06  0.00000E+00  9.000E+00
#rwgt            1           1   4.6942983304399992E-002           3      137194           0
</event>
<event>
      5   9999  3.79277E-02  7.58593E+01 -1.00000E+00  1.29477E-01
      -3    -1     0     0     0   501  0.000000000E+00  0.000000000E+00  8.647463441E+02  8.647463441E+02  0.000000000E+00  0.00000E+00  9.000E+00
      21    -1     0     0   501   502  0.000000000E+00  0.000000000E+00 -1.103165861E+02  1.103165861E+02  0.000000000E+00  0.00000E+00  9.000E+00
      25     1     1     2     0     0 -8.637824455E+01  1.421215082E+02  1.097103715E+02  2.352043576E+02  1.250000000E+02  0.00000E+00  9.000E+00
      25     1     1     2     0     0  1.246245593E+02 -7.660925658E+01  1.629305311E+02  2.521341249E+02  1.250000000E+02  0.00000E+00  9.000E+00
      -3     1     1     2     0   502 -3.824631476E+01 -6.551225166E+01  4.817888553E+02  4.877244476E+02  0.000000000E+00  0.00000E+00  9.000E+00
#rwgt            1           1   3.5076936151045214E-002           3      137472           0
</event>
<event>
      5   9999  3.79277E-02  1.88603E+01 -1.00000E+00  1.68499E-01
      21    -1     0     0   502   501  0.000000000E+00  0.000000000E+00  4.641164213E+01  4.641164213E+01  0.000000000E+00  0.00000E+00  9.000E+00
      21    -1     0     0   501   511  0.000000000E+00  0.000000000E+00 -6.894410075E+02  6.894410075E+02  0.000000000E+00  0.00000E+00  9.000E+00
      25     1     1     2     0     0  3.067102623E+01 -9.532742381E+01 -3.708956187E+02  4.040007296E+02  1.250000000E+02  0.00000E+00  9.000E+00
      25     1     1     2     0     0 -3.951995847E+01  7.867185955E+01 -1.727382869E+02  2.306829087E+02  1.250000000E+02  0.00000E+00  9.000E+00
      21     1     1     2   502   511  8.848932238E+00  1.665556427E+01 -9.939545973E+01  1.011690112E+02  1.907348633E-06  0.00000E+00  9.000E+00
#rwgt            1           1  0.15313494742895103                3      137556           0
</event>
<event>
      5   9999  3.79277E-02  3.17282E+01  7.55638E-03  1.51369E-01
       2    -1     0     0   501     0  0.000000000E+00  0.000000000E+00  2.625364336E+03  2.625364336E+03  0.000000000E+00  0.00000E+00  9.000E+00
      -2    -1     0     0     0   502  0.000000000E+00  0.000000000E+00 -3.089757239E+01  3.089757239E+01  0.000000000E+00  0.00000E+00  9.000E+00
      25     1     1     2     0     0  1.214276334E+02  3.564674216E+00  7.865479794E+02  8.056302508E+02  1.250000000E+02  0.00000E+00  9.000E+00
      25     1     1     2     0     0 -9.153230654E+01  7.063161607E+00  2.625365181E+02  3.049237195E+02  1.250000000E+02  0.00000E+00  9.000E+00
      21     1     1     2   501   502 -2.989532686E+01 -1.062783582E+01  1.545382266E+03  1.545707938E+03  3.051757812E-05  0.00000E+00  9.000E+00
#rwgt            3           7   4.4374763708557100E-005           3      137772           0
</event>
<event>
      5   9999  3.79277E-02  1.69883E+01 -1.00000E+00  1.72438E-01
      21    -1     0     0   511   501  0.000000000E+00  0.000000000E+00  1.016987425E+02  1.016987425E+02  0.000000000E+00  0.00000E+00  9.000E+00
      21    -1     0     0   501   502  0.000000000E+00  0.000000000E+00 -4.553442336E+02  4.553442336E+02  0.000000000E+00  0.00000E+00  9.000E+00
      25     1     1     2     0     0 -4.936093588E+01  1.533236205E+02 -1.401540859E+02  2.474122114E+02  1.250000000E+02  0.00000E+00  9.000E+00
      25     1     1     2     0     0  3.274018219E+01 -1.568385159E+02 -2.101204342E+02  2.923111980E+02  1.250000000E+02  0.00000E+00  9.000E+00
      21     1     1     2   511   502  1.662075368E+01  3.514895372E+00 -3.370970994E+00  1.731956662E+01  3.182017282E-07  0.00000E+00  9.000E+00
#rwgt            1           1   1.6864649563647423E-002           3      137836           0
</event>
<event>
      5   9999  3.79277E-02  8.04180E+01 -1.00000E+00  1.28240E-01
      21    -1     0     0   502   501  0.000000000E+00  0.000000000E+00  3.651108916E+02  3.651108916E+02  0.000000000E+00  0.00000E+00  9.000E+00
      21    -1     0     0   512   502  0.000000000E+00  0.000000000E+00 -3.701206945E+02  3.701206945E+02  0.000000000E+00  0.00000E+00  9.000E+00
      25     1     1     2     0     0  1.218858530E+02  1.312999297E+02  1.036168205E+02  2.417793999E+02  1.250000000E+02  0.00000E+00  9.000E+00
      25     1     1     2     0     0 -1.304151562E+02 -5.133552123E+01  1.386446960E+02  2.334326465E+02  1.250000000E+02  0.00000E+00  9.000E+00
      21     1     1     2   512   501  8.529303161E+00 -7.996440850E+01 -2.472713194E+02  2.600195397E+02  5.394796609E-06  0.00000E+00  9.000E+00
#rwgt            1           1   4.2404889211799614E-002           3      138052           0
</event>
<event>
      5   9999  3.79277E-02  3.73822E+01 -1.00000E+00  1.46687E-01
      21    -1     0     0   502   501  0.000000000E+00  0.000000000E+00  2.369480141E+02  2.369480141E+02  0.000000000E+00  0.00000E+00  9.000E+00
       1    -1     0     0   501     0  0.000000000E+00  0.000000000E+00 -1.150705912E+03  1.150705912E+03  0.000000000E+00  0.00000E+00  9.000E+00
      25     1     1     2     0     0  1.047316805E+02  1.114221185E+01  1.628053485E+02  2.307020921E+02  1.250000000E+02  0.00000E+00  9.000E+00
      25     1     1     2     0     0 -6.760639421E+01 -1.551745780E+01 -8.839685354E+01  1.680786118E+02  1.250000000E+02  0.00000E+00  9.000E+00
       1     1     1     2   502     0 -3.712528629E+01  4.375245949E+00 -9.881663930E+02  9.888732223E+02  1.078959322E-05  0.00000E+00  9.000E+00
#rwgt            1           1   3.6612688272653862E-002           3      138157           0
</event>
<event>
      5   9999  3.79277E-02  5.84950E+01 -1.00000E+00  1.35296E-01
      21    -1     0     0   502   511  0.000000000E+00  0.000000000E+00  4.560172086E+02  4.560172086E+02  0.000000000E+00  0.00000E+00  9.000E+00
      21    -1     0     0   501   502  0.000000000E+00  0.000000000E+00 -2.666014057E+02  2.666014057E+02  0.000000000E+00  0.00000E+00  9.000E+00
      25     1     1     2     0     0  9.934919652E+01 -2.074245158E+02  2.395459580E+02  3.548273645E+02  1.250000000E+02  0.00000E+00  9.000E+00
      25     1     1     2     0     0 -6.934124103E+01  2.576358876E+02 -7.531003143E+01  3.041069863E+02  1.250000000E+02  0.00000E+00  9.000E+00
      21     1     1     2   501   511 -3.000795550E+01 -5.021137176E+01  2.517987633E+01  6.368426351E+01  1.305872339E-06  0.00000E+00  9.000E+00
#rwgt            1           1  0.13966798879970305                3      138549           0
</event>
<event>
      5   9999  3.79277E-02  8.61764E+00 -1.00000E+00  2.03535E-01
      21    -1     0     0   512   501  0.000000000E+00  0.000000000E+00  6.863700706E+02  6.863700706E+02  0.000000000E+00  0.00000E+00  9.000E+00
      21    -1     0     0   501   502  0.000000000E+00  0.000000000E+00 -6.903196816E+01  6.903196816E+01  0.000000000E+00  0.00000E+00  9.000E+00
      25     1     1     2     0     0  7.878969453E+01  8.117074719E+01  7.207813215E+01  1.833487477E+02  1.250000000E+02  0.00000E+00  9.000E+00
      25     1     1     2     0     0 -7.366350990E+01 -7.424355806E+01  4.973392971E+02  5.233639222E+02  1.250000000E+02  0.00000E+00  9.000E+00
      21     1     1     2   512   502 -5.126184633E+00 -6.927189130E+00  4.792067318E+01  4.868936882E+01  6.743495762E-07  0.00000E+00  9.000E+00
#rwgt            1           1   3.6941736234088758E-002           3      138633           0
</event>
<event>
      5   9999  3.79277E-02  1.41035E+01 -1.00000E+00  1.79943E-01
      21    -1     0     0   511   501  0.000000000E+00  0.000000000E+00  5.589200686E+01  5.589200686E+01  0.000000000E+00  0.00000E+00  9.000E+00
      21    -1     0     0   501   502  0.000000000E+00  0.000000000E+00 -9.569277387E+02  9.569277387E+02  0.000000000E+00  0.00000E+00  9.000E+00
      25     1     1     2     0     0  1.913374181E+01  1.053402359E+02 -7.337498745E+02  7.519817443E+02  1.250000000E+02  0.00000E+00  9.000E+00
      25     1     1     2     0     0 -3.253587097E+01 -1.097325242E+02 -1.759373598E+02  2.442923747E+02  1.250000000E+02  0.00000E+00  9.000E+00
      21     1     1     2   511   502  1.340212916E+01  4.392288360E+00  8.651502467E+00  1.654562656E+01  3.769728732E-07  0.00000E+00  9.000E+00
#rwgt            1           1   4.5801361821873998E-002           3      139054           0
</event>
<event>
      5   9999 -3.79277E-02  8.26319E+01 -1.00000E+00  1.27673E-01
      21    -1     0     0   502   512  0.000000000E+00  0.000000000E+00  3.088788245E+02  3.088788245E+02  0.000000000E+00  0.00000E+00  9.000E+00
      21    -1     0     0   501   502  0.000000000E+00  0.000000000E+00 -4.352447944E+02  4.352447944E+02  0.000000000E+00  0.00000E+00  9.000E+00
      25     1     1     2     0     0  1.039608056E+02  8.635346823E+01 -2.275806151E+02  2.927160859E+02  1.250000000E+02  0.00000E+00  9.000E+00
      25     1     1     2     0     0 -1.848205969E+02 -6.933203462E+01 -8.424658146E+01  2.483708327E+02  1.250000000E+02  0.00000E+00  9.000E+00
      21     1     1     2   501   512  8.085979129E+01 -1.702143361E+01  1.854612267E+02  2.030367003E+02  2.697398305E-06  0.00000E+00  9.000E+00
#rwgt            1           1  -5.3427565661496555E-002           3      139424           0
</event>
<event>
      5   9999  3.79277E-02  1.60427E+01 -1.00000E+00  1.74677E-01
      21    -1     0     0   511   501  0.000000000E+00  0.000000000E+00  9.438535662E+01  9.438535662E+01  0.000000000E+00  0.00000E+00  9.000E+00
      21    -1     0     0   501   502  0.000000000E+00  0.000000000E+00 -4.803811697E+02  4.803811697E+02  0.000000000E+00  0.00000E+00  9.000E+00
      25     1     1     2     0     0  1.491796908E+02 -2.007841513E+01 -2.418540651E+02  3.110885914E+02  1.250000000E+02  0.00000E+00  9.000E+00
      25     1     1     2     0     0 -1.587463822E+02  3.295654057E+01 -1.325926556E+02  2.439105569E+02  1.250000000E+02  0.00000E+00  9.000E+00
      21     1     1     2   511   502  9.566691424E+00 -1.287812543E+01 -1.154909236E+01  1.976737802E+01  1.685873940E-07  0.00000E+00  9.000E+00
#rwgt            1           1   2.9682179060149003E-002           3      139534           0
</event>
<event>
      5   9999  3.79277E-02  4.27146E+01 -1.00000E+00  1.43094E-01
      21    -1     0     0   502   512  0.000000000E+00  0.000000000E+00  4.242206575E+02  4.242206575E+02  0.000000000E+00  0.00000E+00  9.000E+00
      21    -1     0     0   501   502  0.000000000E+00  0.000000000E+00 -4.421071245E+02  4.421071245E+02  0.000000000E+00  0.00000E+00  9.000E+00
      25     1     1     2     0     0  3.437475120E+02 -7.101237055E+01  1.693569042E+02  4.092821396E+02  1.250000000E+02  0.00000E+00  9.000E+00
      25     1     1     2     0     0 -3.163191238E+02  1.037571457E+02 -2.053745558E+02  4.106422306E+02  1.250000000E+02  0.00000E+00  9.000E+00
      21     1     1     2   501   512 -2.742838820E+01 -3.274477515E+01  1.813118459E+01  4.640341187E+01  9.536743164E-07  0.00000E+00  9.000E+00
#rwgt            1           1   4.0633970286559767E-002           3      139729           0
</event>
<event>
      5   9999  3.79277E-02  1.63770E+01 -1.00000E+00  1.73864E-01
      21    -1     0     0   511   501  0.000000000E+00  0.000000000E+00  4.103338838E+01  4.103338838E+01  0.000000000E+00  0.00000E+00  9.000E+00
      21    -1     0     0   501   502  0.000000000E+00  0.000000000E+00 -1.229296486E+03  1.229296486E+03  0.000000000E+00  0.00000E+00  9.000E+00
      25     1     1     2     0     0 -9.505362595E+01  1.239042145E+02 -6.833258234E+02  7.120018449E+02  1.250000000E+02  0.00000E+00  9.000E+00
      25     1     1     2     0     0  1.067905913E+02 -1.124828058E+02 -5.039833943E+02  5.419233098E+02  1.250000000E+02  0.00000E+00  9.000E+00
      21     1     1     2   511   502 -1.173696535E+01 -1.142140868E+01 -9.538796260E-01  1.640471939E+01  3.169782070E-07  0.00000E+00  9.000E+00
#rwgt            1           1  0.22351609871878345                3      139923           0
</event>
<event>
      5   9999  3.79277E-02  2.97435E+01 -1.00000E+00  1.53299E-01
      21    -1     0     0   502   501  0.000000000E+00  0.000000000E+00  9.470468372E+02  9.470468372E+02  0.000000000E+00  0.00000E+00  9.000E+00
      21    -1     0     0   501   512  0.000000000E+00  0.000000000E+00 -9.658850330E+01  9.658850330E+01  0.000000000E+00  0.00000E+00  9.000E+00
      25     1     1     2     0     0  2.079243103E+02 -6.692917868E+00  7.150780262E+02  7.551416407E+02  1.250000000E+02  0.00000E+00  9.000E+00
      25     1     1     2     0     0 -1.843602866E+02  2.484268350E+01  1.269458194E+02  2.575773966E+02  1.250000000E+02  0.00000E+00  9.000E+00
      21     1     1     2   502   512 -2.356402374E+01 -1.814976564E+01  8.434488292E+00  3.091630314E+01  5.591411304E-07  0.00000E+00  9.000E+00
#rwgt            1           1   3.6547218881302135E-002           3      140255           0
</event>
<event>
      5   9999  3.79277E-02  8.96854E+01 -1.00000E+00  1.25992E-01
      21    -1     0     0   502   501  0.000000000E+00  0.000000000E+00  6.635417428E+01  6.635417428E+01  0.000000000E+00  0.00000E+00  9.000E+00
       1    -1     0     0   501     0  0.000000000E+00  0.000000000E+00 -1.535675198E+03  1.535675198E+03  0.000000000E+00  0.00000E+00  9.000E+00
      25     1     1     2     0     0 -1.081667953E+02  1.499025412E+01 -3.113080697E+02  3.527924001E+02  1.250000000E+02  0.00000E+00  9.000E+00
      25     1     1     2     0     0  8.502701162E+01  7.165863693E+01 -1.164939066E+02  2.038636388E+02  1.250000000E+02  0.00000E+00  9.000E+00
       1     1     1     2   502     0  2.313978368E+01 -8.664889104E+01 -1.041519047E+03  1.045373333E+03  1.525878906E-05  0.00000E+00  9.000E+00
#rwgt            1           1   4.5600000577192649E-002           3      140437           0
</event>
<event>
      5   9999  3.79277E-02  1.84845E+01 -1.00000E+00  1.69243E-01
      21    -1     0     0   511   501  0.000000000E+00  0.000000000E+00  7.815856939E+02  7.815856939E+02  0.000000000E+00  0.00000E+00  9.000E+00
      21    -1     0     0   501   502  0.000000000E+00  0.000000000E+00 -7.617857699E+02  7.617857699E+02  0.000000000E+00  0.00000E+00  9.000E+00
      25     1     1     2     0     0  1.664724823E+02  7.524972507E+01 -2.864537114E+02  3.620170400E+02  1.250000000E+02  0.00000E+00  9.000E+00
      25     1     1     2     0     0 -1.644100964E+02 -5.688067745E+01 -4.112037605E+02  4.636589521E+02  1.250000000E+02  0.00000E+00  9.000E+00
      21     1     1     2   511   502 -2.062385829E+00 -1.836904762E+01  7.174573958E+02  7.176954717E+02  0.000000000E+00  0.00000E+00  9.000E+00
#rwgt            1           1   1.4074708877422033E-002           3      140509           0
</event>
<event>
      5   9999  3.79277E-02  1.03547E+02 -1.00000E+00  1.23151E-01
      21    -1     0     0   512   501  0.000000000E+00  0.000000000E+00  1.912123971E+02  1.912123971E+02  0.000000000E+00  0.00000E+00  9.000E+00
      21    -1     0     0   501   502  0.000000000E+00  0.000000000E+00 -3.408118325E+02  3.408118325E+02  0.000000000E+00  0.00000E+00  9.000E+00
      25     1     1     2     0     0  8.252476197E+01  1.387071344E+02 -9.840442105E+01  2.266239959E+02  1.250000000E+02  0.00000E+00  9.000E+00
      25     1     1     2     0     0  2.023851305E+01 -1.514195343E+02 -3.804279223E+01  2.010217073E+02  1.250000000E+02  0.00000E+00  9.000E+00
      21     1     1     2   512   502 -1.027632750E+02  1.271239995E+01 -1.315222213E+01  1.043785263E+02  2.078484985E-06  0.00000E+00  9.000E+00
#rwgt            1           1   3.2167859049797055E-002           3      140742           0
</event>
<event>
      5   9999  3.79277E-02  9.00556E+01 -1.00000E+00  1.25909E-01
      21    -1     0     0   502   501  0.000000000E+00  0.000000000E+00  6.398076849E+01  6.398076849E+01  0.000000000E+00  0.00000E+00  9.000E+00
       2    -1     0     0   501     0  0.000000000E+00  0.000000000E+00 -1.814536282E+03  1.814536282E+03  0.000000000E+00  0.00000E+00  9.000E+00
      25     1     1     2     0     0  4.275693221E+01  1.850791650E+02 -2.774270088E+02  3.587104652E+02  1.250000000E+02  0.00000E+00  9.000E+00
      25     1     1     2     0     0 -3.627433267E+01 -9.525717855E+01 -2.788439814E+02  3.221315310E+02  1.250000000E+02  0.00000E+00  9.000E+00
       2     1     1     2   502     0 -6.482599538E+00 -8.982198648E+01 -1.194284523E+03  1.197675054E+03  1.525878906E-05  0.00000E+00  9.000E+00
#rwgt            1           1   4.7791715526341400E-002           3      140805           0
</event>
<event>
      5   9999  3.79277E-02  3.03718E+01 -1.00000E+00  1.52669E-01
      21    -1     0     0   502   501  0.000000000E+00  0.000000000E+00  1.047175939E+02  1.047175939E+02  0.000000000E+00  0.00000E+00  9.000E+00
      21    -1     0     0   501   511  0.000000000E+00  0.000000000E+00 -6.901657455E+02  6.901657455E+02  0.000000000E+00  0.00000E+00  9.000E+00
      25     1     1     2     0     0  1.033436054E+02  1.830546278E+02 -2.881072077E+02  3.779148855E+02  1.250000000E+02  0.00000E+00  9.000E+00
      25     1     1     2     0     0 -8.946298084E+01 -2.100689684E+02 -2.513121767E+02  3.618223412E+02  1.250000000E+02  0.00000E+00  9.000E+00
      21     1     1     2   502   511 -1.388062454E+01  2.701434059E+01 -4.602876725E+01  5.514611273E+01  0.000000000E+00  0.00000E+00  9.000E+00
#rwgt            1           1   3.2376545385797699E-002           3      140945           0
</event>
<event>
      5   9999  3.79277E-02  3.20741E+01 -1.00000E+00  1.51050E-01
      21    -1     0     0   502   501  0.000000000E+00  0.000000000E+00  1.163802713E+03  1.163802713E+03  0.000000000E+00  0.00000E+00  9.000E+00
      21    -1     0     0   501   512  0.000000000E+00  0.000000000E+00 -3.222140253E+02  3.222140253E+02  0.000000000E+00  0.00000E+00  9.000E+00
      25     1     1     2     0     0  1.353320046E+01  8.921409583E+01  5.344424161E+02  5.562337625E+02  1.250000000E+02  0.00000E+00  9.000E+00
      25     1     1     2     0     0 -4.502173258E+01 -8.311324851E+01  6.076698155E+02  6.275526856E+02  1.250000000E+02  0.00000E+00  9.000E+00
      21     1     1     2   502   512  3.148853211E+01 -6.100847322E+00 -3.005235438E+02  3.022302903E+02  9.344061824E-06  0.00000E+00  9.000E+00
#rwgt            1           1   1.7215445568481275E-002           3      141217           0
</event>
<event>
      5   9999  3.79277E-02  8.99570E+01 -1.00000E+00  1.25931E-01
      21    -1     0     0   502   501  0.000000000E+00  0.000000000E+00  1.668404184E+03  1.668404184E+03  0.000000000E+00  0.00000E+00  9.000E+00
      -4    -1     0     0     0   502  0.000000000E+00  0.000000000E+00 -8.148723818E+01  8.148723818E+01  0.000000000E+00  0.00000E+00  9.000E+00
      25     1     1     2     0     0  5.086501006E+01 -6.528949743E+01  4.891505403E+01  1.576948009E+02  1.250000000E+02  0.00000E+00  9.000E+00
      25     1     1     2     0     0  3.703335091E+01  8.442436536E+01  1.473113076E+03  1.481278528E+03  1.250000000E+02  0.00000E+00  9.000E+00
      -4     1     1     2     0   501 -8.789836096E+01 -1.913486793E+01  6.488881590E+01  1.109180935E+02  1.651812370E-06  0.00000E+00  9.000E+00
#rwgt            1           1   4.9126512580257388E-002           3      141374           0
</event>
<event>
      5   9999  3.79277E-02  5.84908E+01 -1.00000E+00  1.35297E-01
      21    -1     0     0   511   501  0.000000000E+00  0.000000000E+00  6.511527956E+02  6.511527956E+02  0.000000000E+00  0.00000E+00  9.000E+00
      21    -1     0     0   501   502  0.000000000E+00  0.000000000E+00 -2.880652039E+02  2.880652039E+02  0.000000000E+00  0.00000E+00  9.000E+00
      25     1     1     2     0     0 -1.864856434E+01  3.807835316E+02  2.741353454E+02  4.859208315E+02  1.250000000E+02  0.00000E+00  9.000E+00
      25     1     1     2     0     0 -3.662013701E+01 -3.616382052E+02  6.384982441E+01  3.896473098E+02  1.250000000E+02  0.00000E+00  9.000E+00
      21     1     1     2   511   502  5.526870135E+01 -1.914532636E+01  2.510242186E+01  6.364985824E+01  1.261592536E-06  0.00000E+00  9.000E+00
#rwgt            1           1  0.26379655732312851                3      141529           0
</event>
<event>
      5   9999  3.79277E-02  1.93754E+01 -1.00000E+00  1.67514E-01
      21    -1     0     0   512   501  0.000000000E+00  0.000000000E+00  1.704920876E+02  1.704920876E+02  0.000000000E+00  0.00000E+00  9.000E+00
      21    -1     0     0   501   502  0.000000000E+00  0.000000000E+00 -3.651938966E+02  3.651938966E+02  0.000000000E+00  0.00000E+00  9.000E+00
      25     1     1     2     0     0 -1.685515832E+02  7.078119402E+01 -1.603299981E+02  2.734050510E+02  1.250000000E+02  0.00000E+00  9.000E+00
      25     1     1     2     0     0  1.789814359E+02 -5.445260921E+01 -5.738119548E+01  2.322004363E+02  1.250000000E+02  0.00000E+00  9.000E+00
      21     1     1     2   512   502 -1.042985267E+01 -1.632858481E+01  2.300938462E+01  3.008049682E+01  5.840038640E-07  0.00000E+00  9.000E+00
#rwgt            1           1   4.0921580096911978E-002           3      141717           0
</event>
<event>
      5   9999  3.79277E-02  9.37468E+01 -1.00000E+00  1.25103E-01
      21    -1     0     0   502   511  0.000000000E+00  0.000000000E+00  9.052849228E+01  9.052849228E+01  0.000000000E+00  0.00000E+00  9.000E+00
      21    -1     0     0   501   502  0.000000000E+00  0.000000000E+00 -1.007264813E+03  1.007264813E+03  0.000000000E+00  0.00000E+00  9.000E+00
      25     1     1     2     0     0 -1.582230311E+01 -2.491428992E+01 -8.047753796E+02  8.149598019E+02  1.250000000E+02  0.00000E+00  9.000E+00
      25     1     1     2     0     0 -3.733608850E+01  1.021324954E+02 -6.491110251E+01  1.779423540E+02  1.250000000E+02  0.00000E+00  9.000E+00
      21     1     1     2   501   511  5.315839161E+01 -7.721820548E+01 -4.704983821E+01  1.048911490E+02  2.336015456E-06  0.00000E+00  9.000E+00
#rwgt            1           1   4.1879970255719080E-002           3      141917           0
</event>
<event>
      5   9999  3.79277E-02  6.69151E+01 -1.00000E+00  1.32220E-01
       2    -1     0     0   502     0  0.000000000E+00  0.000000000E+00  9.657400472E+02  9.657400472E+02  0.000000000E+00  0.00000E+00  9.000E+00
      21    -1     0     0   501   502  0.000000000E+00  0.000000000E+00 -1.370333761E+02  1.370333761E+02  0.000000000E+00  0.00000E+00  9.000E+00
      25     1     1     2     0     0 -8.019856051E+01  1.495718997E+02  1.424494244E+02  2.544020456E+02  1.250000000E+02  0.00000E+00  9.000E+00
      25     1     1     2     0     0  1.400684541E+01 -1.397593812E+02  3.203474967E+01  1.907356850E+02  1.250000000E+02  0.00000E+00  9.000E+00
       2     1     1     2   501     0  6.619171510E+01 -9.812518560E+00  6.542224971E+02  6.576356927E+02  7.629394531E-06  0.00000E+00  9.000E+00
#rwgt            1           1   4.9309721166217256E-002           3      142022           0
</event>
<event>
      5   9999  3.79277E-02  1.94675E+01 -1.00000E+00  1.67342E-01
      21    -1     0     0   502   501  0.000000000E+00  0.000000000E+00  2.432449170E+02  2.432449170E+02  0.000000000E+00  0.00000E+00  9.000E+00
      21    -1     0     0   501   511  0.000000000E+00  0.000000000E+00 -2.957782935E+02  2.957782935E+02  0.000000000E+00  0.00000E+00  9.000E+00
      25     1     1     2     0     0  3.613434708E+01  4.321323362E+01 -1.839413145E+00  1.371184088E+02  1.250000000E+02  0.00000E+00  9.000E+00
      25     1     1     2     0     0 -4.785087379E+01 -5.876012423E+01  1.446177592E+02  2.056252771E+02  1.250000000E+02  0.00000E+00  9.000E+00
      21     1     1     2   502   511  1.171652671E+01  1.554689061E+01 -1.953117226E+02  1.962795246E+02  2.697398305E-06  0.00000E+00  9.000E+00
#rwgt            1           1   4.1897452596891066E-002           3      142119           0
</event>
<event>
      5   9999  3.79277E-02  4.92362E+01 -1.00000E+00  1.39458E-01
      21    -1     0     0   512   501  0.000000000E+00  0.000000000E+00  2.814060543E+02  2.814060543E+02  0.000000000E+00  0.00000E+00  9.000E+00
      21    -1     0     0   501   502  0.000000000E+00  0.000000000E+00 -1.240517132E+02  1.240517132E+02  0.000000000E+00  0.00000E+00  9.000E+00
      25     1     1     2     0     0 -5.311438135E+01 -7.190147625E+01  1.315391793E+02  2.022832556E+02  1.250000000E+02  0.00000E+00  9.000E+00
      25     1     1     2     0     0  6.811341504E+01  2.500553590E+01 -5.822196921E+00  1.446499641E+02  1.250000000E+02  0.00000E+00  9.000E+00
      21     1     1     2   512   502 -1.499903369E+01  4.689594036E+01  3.163735876E+01  5.852454786E+01  0.000000000E+00  0.00000E+00  9.000E+00
#rwgt            1           1   5.4018327116896629E-002           3      142320           0
</event>
<event>
      5   9999  3.79277E-02  9.95999E+00 -1.00000E+00  1.95959E-01
      21    -1     0     0   502   501  0.000000000E+00  0.000000000E+00  2.721134602E+02  2.721134602E+02  0.000000000E+00  0.00000E+00  9.000E+00
      21    -1     0     0   501   511  0.000000000E+00  0.000000000E+00 -1.448337898E+02  1.448337898E+02  0.000000000E+00  0.00000E+00  9.000E+00
      25     1     1     2     0     0 -9.308992934E+01 -2.555717036E+01 -2.726231702E+01  1.602720744E+02  1.250000000E+02  0.00000E+00  9.000E+00
      25     1     1     2     0     0  9.731933622E+01  3.457457059E+01  1.721226845E+02  2.364691791E+02  1.250000000E+02  0.00000E+00  9.000E+00
      21     1     1     2   502   511 -4.229406881E+00 -9.017400225E+00 -1.758069707E+01  2.020599660E+01  3.371747881E-07  0.00000E+00  9.000E+00
#rwgt            1           1   3.9485305172333611E-002           3      142370           0
</event>
<event>
      5   9999  3.79277E-02  8.63540E+01 -1.00000E+00  1.26763E-01
      21    -1     0     0   502   512  0.000000000E+00  0.000000000E+00  1.238205567E+02  1.238205567E+02  0.000000000E+00  0.00000E+00  9.000E+00
      21    -1     0     0   501   502  0.000000000E+00  0.000000000E+00 -2.655102085E+03  2.655102085E+03  0.000000000E+00  0.00000E+00  9.000E+00
      25     1     1     2     0     0  1.129625375E+02 -1.006460599E+02 -1.410115812E+03  1.423707051E+03  1.250000000E+02  0.00000E+00  9.000E+00
      25     1     1     2     0     0 -2.909650034E+01  1.212250554E+02 -1.214962055E+03  1.227721433E+03  1.250000000E+02  0.00000E+00  9.000E+00
      21     1     1     2   501   512 -8.386603718E+01 -2.057899546E+01  9.379633861E+01  1.274941582E+02  7.509239077E-06  0.00000E+00  9.000E+00
#rwgt            1           1   5.5468313229151800E-002           3      142673           0
</event>
<event>
      5   9999  3.79277E-02  4.75480E+01 -1.00000E+00  1.40333E-01
      21    -1     0     0   511   501  0.000000000E+00  0.000000000E+00  4.862030735E+01  4.862030735E+01  0.000000000E+00  0.00000E+00  9.000E+00
      21    -1     0     0   501   502  0.000000000E+00  0.000000000E+00 -1.381188673E+03  1.381188673E+03  0.000000000E+00  0.00000E+00  9.000E+00
      25     1     1     2     0     0 -1.109583910E+02 -1.023505276E+02 -1.026816600E+03  1.045353876E+03  1.250000000E+02  0.00000E+00  9.000E+00
      25     1     1     2     0     0  8.618341659E+01  6.176713301E+01 -2.921638368E+02  3.350036829E+02  1.250000000E+02  0.00000E+00  9.000E+00
      21     1     1     2   511   502  2.477497437E+01  4.058339462E+01 -1.358792817E+01  4.945142128E+01  1.105501472E-06  0.00000E+00  9.000E+00
#rwgt            1           1   4.2406574867258177E-002           3      142761           0
</event>
<event>
      5   9999  3.79277E-02  3.34674E+01 -1.00000E+00  1.49812E-01
      21    -1     0     0   502   501  0.000000000E+00  0.000000000E+00  1.656747092E+03  1.656747092E+03  0.000000000E+00  0.00000E+00  9.000E+00
      21    -1     0     0   512   502  0.000000000E+00  0.000000000E+00 -4.186432182E+01  4.186432182E+01  0.000000000E+00  0.00000E+00  9.000E+00
      25     1     1     2     0     0  1.229170716E+02  6.788572299E+01  5.260520858E+02  5.586348314E+02  1.250000000E+02  0.00000E+00  9.000E+00
      25     1     1     2     0     0 -1.550881622E+02 -7.710995212E+01  1.085532381E+03  1.106347067E+03  1.250000000E+02  0.00000E+00  9.000E+00
      21     1     1     2   512   501  3.217109060E+01  9.224229135E+00  3.298303066E+00  3.362951497E+01  5.022376641E-07  0.00000E+00  9.000E+00
#rwgt            1           1   3.2578473393050499E-002           3      142858           0
</event>
<event>
      5   9999  3.79277E-02  4.40414E+01 -1.00000E+00  1.42295E-01
       2    -1     0     0   502     0  0.000000000E+00  0.000000000E+00  3.546882583E+02  3.546882583E+02  0.000000000E+00  0.00000E+00  9.000E+00
      21    -1     0     0   501   502  0.000000000E+00  0.000000000E+00 -1.472600249E+02  1.472600249E+02  0.000000000E+00  0.00000E+00  9.000E+00
      25     1     1     2     0     0 -7.527077809E+01 -8.802437621E+01  8.178355915E+01  1.890172780E+02  1.250000000E+02  0.00000E+00  9.000E+00
      25     1     1     2     0     0  1.016363338E+02  5.274687524E+01 -1.049483065E+01  1.698449842E+02  1.250000000E+02  0.00000E+00  9.000E+00
       2     1     1     2   501     0 -2.636555570E+01  3.527750097E+01  1.361395049E+02  1.430860210E+02  1.907348633E-06  0.00000E+00  9.000E+00
#rwgt            1           1   3.8664750878870988E-002           3      143015           0
</event>
<event>
      5   9999 -3.79277E-02  9.33925E+01 -1.00000E+00  1.25178E-01
      21    -1     0     0   502   511  0.000000000E+00  0.000000000E+00  2.749576948E+02  2.749576948E+02  0.000000000E+00  0.00000E+00  9.000E+00
      21    -1     0     0   501   502  0.000000000E+00  0.000000000E+00 -3.895122199E+02  3.895122199E+02  0.000000000E+00  0.00000E+00  9.000E+00
      25     1     1     2     0     0 -2.675408921E+02 -7.291137513E+01 -8.314852004E-01  3.041708220E+02  1.250000000E+02  0.00000E+00  9.000E+00
      25     1     1     2     0     0  1.761580349E+02  9.218156068E+01 -1.253122174E+02  2.661902425E+02  1.250000000E+02  0.00000E+00  9.000E+00
      21     1     1     2   501   511  9.138285726E+01 -1.927018555E+01  1.158917749E+01  9.410885021E+01  1.831327855E-06  0.00000E+00  9.000E+00
#rwgt            1           1 -0.19980059420197765                3      143117           0
</event>
<event>
      5   9999  3.79277E-02  9.39610E+01 -1.00000E+00  1.25057E-01
      21    -1     0     0   502   501  0.000000000E+00  0.000000000E+00  4.809599895E+02  4.809599895E+02  0.000000000E+00  0.00000E+00  9.000E+00
      21    -1     0     0   501   512  0.000000000E+00  0.000000000E+00 -4.896009120E+02  4.896009120E+02  0.000000000E+00  0.00000E+00  9.000E+00
      25     1     1     2     0     0  2.807026463E+01  5.305316596E+01  5.634381803E+01  1.496736584E+02  1.250000000E+02  0.00000E+00  9.000E+00
      25     1     1     2     0     0 -1.213932560E+02 -4.212200382E+01  3.511581469E+02  3.942684745E+02  1.250000000E+02  0.00000E+00  9.000E+00
      21     1     1     2   502   512  9.332299136E+01 -1.093116214E+01 -4.161428874E+02  4.266187687E+02  5.394796609E-06  0.00000E+00  9.000E+00
#rwgt            1           1   3.9536024694089740E-002           3      143161           0
</event>
<event>
      5   9999  3.79277E-02  1.42367E+01 -1.00000E+00  1.79547E-01
      21    -1     0     0   502   501  0.000000000E+00  0.000000000E+00  1.143717968E+02  1.143717968E+02  0.000000000E+00  0.00000E+00  9.000E+00
      21    -1     0     0   501   511  0.000000000E+00  0.000000000E+00 -5.158698184E+02  5.158698184E+02  0.000000000E+00  0.00000E+00  9.000E+00
      25     1     1     2     0     0  1.511860445E+02  4.123926905E+01 -2.211752761E+02  2.984985764E+02  1.250000000E+02  0.00000E+00  9.000E+00
      25     1     1     2     0     0 -1.606718638E+02 -5.185539049E+01 -7.136808976E+01  2.218621950E+02  1.250000000E+02  0.00000E+00  9.000E+00
      21     1     1     2   502   511  9.485819280E+00  1.061612144E+01 -1.089546558E+02  1.098808437E+02  1.348699152E-06  0.00000E+00  9.000E+00
#rwgt            1           1   3.7003698088356719E-002           3      143279           0
</event>
<event>
      5   9999  3.79277E-02  3.08569E+01 -1.00000E+00  1.52195E-01
      21    -1     0     0   502   501  0.000000000E+00  0.000000000E+00  6.004948880E+02  6.004948880E+02  0.000000000E+00  0.00000E+00  9.000E+00
      21    -1     0     0   512   502  0.000000000E+00  0.000000000E+00 -2.973927990E+02  2.973927990E+02  0.000000000E+00  0.00000E+00  9.000E+00
      25     1     1     2     0     0 -1.813140681E+02  2.428475108E+02 -7.201485054E+01  3.356498823E+02  1.250000000E+02  0.00000E+00  9.000E+00
      25     1     1     2     0     0  1.752601690E+02 -2.731047191E+02  3.944303111E+02  5.258351308E+02  1.250000000E+02  0.00000E+00  9.000E+00
      21     1     1     2   512   501  6.053899158E+00  3.025720831E+01 -1.931337164E+01  3.640267399E+01  4.129530925E-07  0.00000E+00  9.000E+00
#rwgt            1           1   4.0751275072749907E-002           3      143409           0
</event>
<event>
      5   9999  3.79277E-02  1.14424E+02 -1.00000E+00  1.21252E-01
      21    -1     0     0   511   501  0.000000000E+00  0.000000000E+00  1.944484469E+03  1.944484469E+03  0.000000000E+00  0.00000E+00  9.000E+00
      21    -1     0     0   501   502  0.000000000E+00  0.000000000E+00 -6.982880443E+02  6.982880443E+02  0.000000000E+00  0.00000E+00  9.000E+00
      25     1     1     2     0     0  1.647473835E+02  8.109690443E+01 -9.125581619E+01  2.401479383E+02  1.250000000E+02  0.00000E+00  9.000E+00
      25     1     1     2     0     0 -1.512407824E+02 -1.947211085E+02 -4.948110428E+02  5.667918951E+02  1.250000000E+02  0.00000E+00  9.000E+00
      21     1     1     2   511   502 -1.350660106E+01  1.136242040E+02  1.832263284E+03  1.835832680E+03  2.157918644E-05  0.00000E+00  9.000E+00
#rwgt            1           1  0.14454075669420705                3      143590           0
</event>
<event>
      5   9999  3.79277E-02  2.83601E+01 -1.00000E+00  1.54755E-01
      21    -1     0     0   502   501  0.000000000E+00  0.000000000E+00  1.425474314E+03  1.425474314E+03  0.000000000E+00  0.00000E+00  9.000E+00
      21    -1     0     0   512   502  0.000000000E+00  0.000000000E+00 -3.683090681E+01  3.683090681E+01  0.000000000E+00  0.00000E+00  9.000E+00
      25     1     1     2     0     0  2.792320402E+01 -2.931558285E+01  1.505223019E+02  1.998025828E+02  1.250000000E+02  0.00000E+00  9.000E+00
      25     1     1     2     0     0 -1.017034484E+01  5.143192730E+01  1.222758676E+03  1.230248941E+03  1.250000000E+02  0.00000E+00  9.000E+00
      21     1     1     2   512   501 -1.775285918E+01 -2.211634445E+01  1.536242974E+01  3.225369666E+01  5.840038640E-07  0.00000E+00  9.000E+00
#rwgt            1           1   6.3401904929003008E-002           3      143691           0
</event>
<event>
      5   9999  6.93265E-02  1.57840E+01 -1.00000E+00  1.75324E-01
      21    -1     0     0   502   501  0.000000000E+00  0.000000000E+00  3.111917011E+02  3.111917011E+02  0.000000000E+00  0.00000E+00  9.000E+00
      21    -1     0     0   511   502  0.000000000E+00  0.000000000E+00 -7.019037559E+02  7.019037559E+02  0.000000000E+00  0.00000E+00  9.000E+00
      25     1     1     2     0     0  1.943394959E+01 -3.081778909E+02 -5.033732706E+02  6.036231775E+02  1.250000000E+02  0.00000E+00  9.000E+00
      25     1     1     2     0     0 -4.991918064E+00  3.145468317E+02  1.490010522E+02  3.698525951E+02  1.250000000E+02  0.00000E+00  9.000E+00
      21     1     1     2   511   501 -1.444203152E+01 -6.368940718E+00 -3.633983641E+01  3.961968438E+01  0.000000000E+00  0.00000E+00  9.000E+00
#rwgt            1           1   1.3591426696894060                3      143801           0
</event>
<event>
      5   9999  3.79277E-02  2.40545E+01 -1.00000E+00  1.60015E-01
      21    -1     0     0   502   501  0.000000000E+00  0.000000000E+00  9.347897997E+02  9.347897997E+02  0.000000000E+00  0.00000E+00  9.000E+00
      -1    -1     0     0     0   502  0.000000000E+00  0.000000000E+00 -1.888845528E+02  1.888845528E+02  0.000000000E+00  0.00000E+00  9.000E+00
      25     1     1     2     0     0  2.197774076E+01  1.939728173E+02  5.810496972E+02  6.255815099E+02  1.250000000E+02  0.00000E+00  9.000E+00
      25     1     1     2     0     0 -2.310949823E+01 -1.699450037E+02  2.963008210E+02  3.644647167E+02  1.250000000E+02  0.00000E+00  9.000E+00
      -1     1     1     2     0   501  1.131757472E+00 -2.402781358E+01 -1.314452713E+02  1.336281259E+02  3.303624740E-06  0.00000E+00  9.000E+00
#rwgt            1           1   3.7147154985648363E-002           3      144028           0
</event>
<event>
      5   9999  3.79277E-02  3.54533E+01 -1.00000E+00  1.48167E-01
      21    -1     0     0   502   511  0.000000000E+00  0.000000000E+00  1.363306545E+02  1.363306545E+02  0.000000000E+00  0.00000E+00  9.000E+00
      21    -1     0     0   501   502  0.000000000E+00  0.000000000E+00 -2.793870113E+02  2.793870113E+02  0.000000000E+00  0.00000E+00  9.000E+00
      25     1     1     2     0     0  3.716227579E+01 -4.691002991E+01 -1.953252185E+02  2.394964022E+02  1.250000000E+02  0.00000E+00  9.000E+00
      25     1     1     2     0     0 -2.423963880E+01  1.389575507E+01  2.275321658E+01  1.300898188E+02  1.250000000E+02  0.00000E+00  9.000E+00
      21     1     1     2   501   511 -1.292263699E+01  3.301427484E+01  2.951564520E+01  4.613144482E+01  7.539457465E-07  0.00000E+00  9.000E+00
#rwgt            1           1   3.0213887813623740E-002           3      144215           0
</event>
<event>
      5   9999  3.79277E-02  7.60388E+00 -1.00000E+00  2.10597E-01
      21    -1     0     0   502   501  0.000000000E+00  0.000000000E+00  7.879853612E+01  7.879853612E+01  0.000000000E+00  0.00000E+00  9.000E+00
      21    -1     0     0   501   512  0.000000000E+00  0.000000000E+00 -8.014288866E+02  8.014288866E+02  0.000000000E+00  0.00000E+00  9.000E+00
      25     1     1     2     0     0 -1.685249842E+01 -1.459584014E+02 -2.268170152E+02  2.977563098E+02  1.250000000E+02  0.00000E+00  9.000E+00
      25     1     1     2     0     0  1.123945175E+01  1.408288092E+02 -1.622337666E+02  2.488048910E+02  1.250000000E+02  0.00000E+00  9.000E+00
      21     1     1     2   502   512  5.613046666E+00  5.129592239E+00 -3.335795686E+02  3.336662219E+02  3.814697266E-06  0.00000E+00  9.000E+00
#rwgt            1           1   4.5244400726878804E-002           3      144330           0
</event>
<event>
      5   9999  3.79277E-02  1.52423E+01 -1.00000E+00  1.76731E-01
      21    -1     0     0   502   501  0.000000000E+00  0.000000000E+00  2.480621047E+02  2.480621047E+02  0.000000000E+00  0.00000E+00  9.000E+00
      21    -1     0     0   501   511  0.000000000E+00  0.000000000E+00 -3.384595613E+02  3.384595613E+02  0.000000000E+00  0.00000E+00  9.000E+00
      25     1     1     2     0     0 -1.507002588E+02  1.610040973E+02 -5.038382715E+00  2.535414614E+02  1.250000000E+02  0.00000E+00  9.000E+00
      25     1     1     2     0     0  1.354729885E+02 -1.616798495E+02  1.094983872E+00  2.451927881E+02  1.250000000E+02  0.00000E+00  9.000E+00
      21     1     1     2   502   511  1.522727027E+01  6.757522385E-01 -8.645405776E+01  8.778741655E+01  9.536743164E-07  0.00000E+00  9.000E+00
#rwgt            1           1   5.4431917780568183E-002           3      144646           0
</event>
<event>
      5   9999  3.79277E-02  6.16948E+01 -1.00000E+00  1.34060E-01
      21    -1     0     0   502   501  0.000000000E+00  0.000000000E+00  3.725412529E+02  3.725412529E+02  0.000000000E+00  0.00000E+00  9.000E+00
      21    -1     0     0   512   502  0.000000000E+00  0.000000000E+00 -8.176087205E+02  8.176087205E+02  0.000000000E+00  0.00000E+00  9.000E+00
      25     1     1     2     0     0 -8.428135116E+01 -4.444964902E+01  3.067355315E+02  3.446604180E+02  1.250000000E+02  0.00000E+00  9.000E+00
      25     1     1     2     0     0  1.440038191E+02  2.897474618E+01 -1.603460534E+02  2.508236286E+02  1.250000000E+02  0.00000E+00  9.000E+00
      21     1     1     2   512   501 -5.972246790E+01  1.547490284E+01 -5.914569458E+02  5.946659268E+02  7.629394531E-06  0.00000E+00  9.000E+00
#rwgt            1           1   2.9819306293986259E-002           3      144894           0
</event>
<event>
      5   9999  3.79277E-02  4.17189E+01 -1.00000E+00  1.43716E-01
      21    -1     0     0   502   501  0.000000000E+00  0.000000000E+00  7.086522181E+01  7.086522181E+01  0.000000000E+00  0.00000E+00  9.000E+00
      21    -1     0     0   501   511  0.000000000E+00  0.000000000E+00 -1.225177789E+03  1.225177789E+03  0.000000000E+00  0.00000E+00  9.000E+00
      25     1     1     2     0     0 -7.905739806E+00 -1.935814955E+02 -5.112212709E+02  5.608105598E+02  1.250000000E+02  0.00000E+00  9.000E+00
      25     1     1     2     0     0  4.667000455E+01  1.781608138E+02 -2.301065981E+02  3.201459220E+02  1.250000000E+02  0.00000E+00  9.000E+00
      21     1     1     2   502   511 -3.876426474E+01  1.542068170E+01 -4.129846985E+02  4.150865293E+02  7.629394531E-06  0.00000E+00  9.000E+00
#rwgt            1           1   2.7713920951510849E-002           3      145016           0
</event>
<event>
      5   9999  3.79277E-02  4.91406E+01 -1.00000E+00  1.39506E-01
      21    -1     0     0   502   512  0.000000000E+00  0.000000000E+00  1.125813604E+03  1.125813604E+03  0.000000000E+00  0.00000E+00  9.000E+00
      21    -1     0     0   501   502  0.000000000E+00  0.000000000E+00 -4.927135219E+01  4.927135219E+01  0.000000000E+00  0.00000E+00  9.000E+00
      25     1     1     2     0     0 -6.772086453E+01 -7.276752850E+01  3.380914230E+02  3.739144809E+02  1.250000000E+02  0.00000E+00  9.000E+00
      25     1     1     2     0     0  7.825841677E+01  1.207649973E+02  2.720146442E+02  3.321528730E+02  1.250000000E+02  0.00000E+00  9.000E+00
      21     1     1     2   501   512 -1.053755224E+01 -4.799746878E+01  4.664361845E+02  4.690176023E+02  7.629394531E-06  0.00000E+00  9.000E+00
#rwgt            1           1   3.9246958022725500E-002           3      145087           0
</event>
<event>
      5   9999  3.79277E-02  4.22323E+01 -1.00000E+00  1.43392E-01
      21    -1     0     0   502   501  0.000000000E+00  0.000000000E+00  9.138054392E+01  9.138054392E+01  0.000000000E+00  0.00000E+00  9.000E+00
      21    -1     0     0   511   502  0.000000000E+00  0.000000000E+00 -9.181158288E+02  9.181158288E+02  0.000000000E+00  0.00000E+00  9.000E+00
      25     1     1     2     0     0 -4.751817762E+01  3.441800509E+01  2.237299970E+01  1.398861230E+02  1.250000000E+02  0.00000E+00  9.000E+00
      25     1     1     2     0     0  5.526423290E+00 -2.991721391E+01 -7.622372044E+02  7.730175527E+02  1.250000000E+02  0.00000E+00  9.000E+00
      21     1     1     2   511   501  4.199175433E+01 -4.500791179E+00 -8.687108018E+01  9.659269706E+01  1.907348633E-06  0.00000E+00  9.000E+00
#rwgt            1           1   3.6562369340653891E-002           3      145203           0
</event>
<event>
      5   9999  3.79277E-02  5.33156E+01 -1.00000E+00  1.37503E-01
      21    -1     0     0   502   501  0.000000000E+00  0.000000000E+00  2.904844497E+02  2.904844497E+02  0.000000000E+00  0.00000E+00  9.000E+00
      21    -1     0     0   501   512  0.000000000E+00  0.000000000E+00 -2.391167028E+02  2.391167028E+02  0.000000000E+00  0.00000E+00  9.000E+00
      25     1     1     2     0     0  9.013645970E+01 -6.859839840E+01  1.593492690E+02  2.320506651E+02  1.250000000E+02  0.00000E+00  9.000E+00
      25     1     1     2     0     0 -1.365590072E+02  9.481861740E+01 -4.110490750E+01  2.120225131E+02  1.250000000E+02  0.00000E+00  9.000E+00
      21     1     1     2   502   512  4.642254751E+01 -2.622021899E+01 -6.687661458E+01  8.552797425E+01  1.651812370E-06  0.00000E+00  9.000E+00
#rwgt            1           1   4.3356182612169718E-002           3      145417           0
</event>
<event>
      5   9999  3.79277E-02  4.10398E+01 -1.00000E+00  1.44152E-01
      21    -1     0     0   511   501  0.000000000E+00  0.000000000E+00  1.331789432E+02  1.331789432E+02  0.000000000E+00  0.00000E+00  9.000E+00
      21    -1     0     0   501   502  0.000000000E+00  0.000000000E+00 -3.912523167E+02  3.912523167E+02  0.000000000E+00  0.00000E+00  9.000E+00
      25     1     1     2     0     0  1.339758074E+02 -2.939464110E+01 -2.138659820E+02  2.831558231E+02  1.250000000E+02  0.00000E+00  9.000E+00
      25     1     1     2     0     0 -1.308660647E+02  7.031642672E+01 -4.818665709E+01  2.000431970E+02  1.250000000E+02  0.00000E+00  9.000E+00
      21     1     1     2   511   502 -3.109742729E+00 -4.092178562E+01  3.979265571E+00  4.123223972E+01  6.835070217E-07  0.00000E+00  9.000E+00
#rwgt            1           1   4.3248791797537121E-002           3      145597           0
</event>
<event>
      5   9999  3.79277E-02  9.40434E+01 -1.00000E+00  1.25040E-01
      21    -1     0     0   502   501  0.000000000E+00  0.000000000E+00  7.406595835E+02  7.406595835E+02  0.000000000E+00  0.00000E+00  9.000E+00
      21    -1     0     0   512   502  0.000000000E+00  0.000000000E+00 -8.166385493E+01  8.166385493E+01  0.000000000E+00  0.00000E+00  9.000E+00
      25     1     1     2     0     0 -1.319965437E+02 -4.286373549E+01  3.485168187E+02  3.954103695E+02  1.250000000E+02  0.00000E+00  9.000E+00
      25     1     1     2     0     0  8.773151769E+01  1.258382127E+02  2.272480026E+02  3.013282756E+02  1.250000000E+02  0.00000E+00  9.000E+00
      21     1     1     2   512   501  4.426502605E+01 -8.297447721E+01  8.323090725E+01  1.255847934E+02  2.861022949E-06  0.00000E+00  9.000E+00
#rwgt            1           1   3.6966798270876691E-002           3      145711           0
</event>
<event>
      5   9999  3.79277E-02  4.03982E+01 -1.00000E+00  1.44574E-01
      21    -1     0     0   502   511  0.000000000E+00  0.000000000E+00  6.952350855E+02  6.952350855E+02  0.000000000E+00  0.00000E+00  9.000E+00
      21    -1     0     0   501   502  0.000000000E+00  0.000000000E+00 -1.157214767E+02  1.157214767E+02  0.000000000E+00  0.00000E+00  9.000E+00
      25     1     1     2     0     0 -1.179448526E+02 -7.564693710E+01  3.661730543E+01  1.913093683E+02  1.250000000E+02  0.00000E+00  9.000E+00
      25     1     1     2     0     0  7.870396800E+01  6.604659321E+01  1.377756339E+02  2.125172754E+02  1.250000000E+02  0.00000E+00  9.000E+00
      21     1     1     2   501   511  3.924088461E+01  9.600343890E+00  4.051206696E+02  4.071299185E+02  0.000000000E+00  0.00000E+00  9.000E+00
#rwgt            1           1   2.4829712137637471E-002           3      145842           0
</event>
<event>
      5   9999  3.79277E-02  1.39865E+02 -1.00000E+00  1.17611E-01
      21    -1     0     0   512   501  0.000000000E+00  0.000000000E+00  2.577580213E+02  2.577580213E+02  0.000000000E+00  0.00000E+00  9.000E+00
      21    -1     0     0   501   502  0.000000000E+00  0.000000000E+00 -1.428815552E+03  1.428815552E+03  0.000000000E+00  0.00000E+00  9.000E+00
      25     1     1     2     0     0 -1.823944036E+02  1.298510647E+02  1.269609183E+02  2.861347449E+02  1.250000000E+02  0.00000E+00  9.000E+00
      25     1     1     2     0     0  9.655677931E+01 -2.402786448E+02 -1.188520796E+03  1.222809765E+03  1.250000000E+02  0.00000E+00  9.000E+00
      21     1     1     2   512   502  8.583762434E+01  1.104275801E+02 -1.094976531E+02  1.776290636E+02  3.303624740E-06  0.00000E+00  9.000E+00
#rwgt            1           1   7.6632746334926741E-002           3      145954           0
</event>
<event>
      5   9999  3.79277E-02  2.28660E+01 -1.00000E+00  1.61709E-01
      21    -1     0     0   502   511  0.000000000E+00  0.000000000E+00  1.515984780E+02  1.515984780E+02  0.000000000E+00  0.00000E+00  9.000E+00
      21    -1     0     0   501   502  0.000000000E+00  0.000000000E+00 -4.709290106E+02  4.709290106E+02  0.000000000E+00  0.00000E+00  9.000E+00
      25     1     1     2     0     0 -1.434146297E+02  1.163374073E+02 -8.761196040E+01  2.395892401E+02  1.250000000E+02  0.00000E+00  9.000E+00
      25     1     1     2     0     0  1.207746088E+02 -1.131303328E+02 -2.687201425E+02  3.394414432E+02  1.250000000E+02  0.00000E+00  9.000E+00
      21     1     1     2   501   511  2.264002085E+01 -3.207074504E+00  3.700157035E+01  4.349680539E+01  9.536743164E-07  0.00000E+00  9.000E+00
#rwgt            1           1  0.11772265404390195                3      146026           0
</event>
<event>
      5   9999  3.79277E-02  2.13419E+01 -1.00000E+00  1.64075E-01
      21    -1     0     0   502   512  0.000000000E+00  0.000000000E+00  1.957757745E+02  1.957757745E+02  0.000000000E+00  0.00000E+00  9.000E+00
      21    -1     0     0   501   502  0.000000000E+00  0.000000000E+00 -2.858763134E+02  2.858763134E+02  0.000000000E+00  0.00000E+00  9.000E+00
      25     1     1     2     0     0  1.588624847E+02 -2.463119640E+01  1.076346450E+01  2.039236059E+02  1.250000000E+02  0.00000E+00  9.000E+00
      25     1     1     2     0     0 -1.375347066E+02  2.385522985E+01 -1.394914423E+02  2.335973673E+02  1.250000000E+02  0.00000E+00  9.000E+00
      21     1     1     2   501   512 -2.132777802E+01  7.759665444E-01  3.862743897E+01  4.413111466E+01  4.768371582E-07  0.00000E+00  9.000E+00
#rwgt            1           1   4.3176926288155885E-002           3      146210           0
</event>
<event>
      5   9999  3.79277E-02  6.58950E+01 -1.00000E+00  1.32564E-01
      21    -1     0     0   502   501  0.000000000E+00  0.000000000E+00  3.306991635E+01  3.306991635E+01  0.000000000E+00  0.00000E+00  9.000E+00
       2    -1     0     0   501     0  0.000000000E+00  0.000000000E+00 -1.834008349E+03  1.834008349E+03  0.000000000E+00  0.00000E+00  9.000E+00
      25     1     1     2     0     0  3.450910892E+01  9.626515152E+01 -2.573141967E+02  3.037983769E+02  1.250000000E+02  0.00000E+00  9.000E+00
      25     1     1     2     0     0 -8.985467247E+01 -6.050185462E+01 -8.108512265E+02  8.275500276E+02  1.250000000E+02  0.00000E+00  9.000E+00
       2     1     1     2   502     0  5.534556355E+01 -3.576329690E+01 -7.327730094E+02  7.357298608E+02  1.078959322E-05  0.00000E+00  9.000E+00
#rwgt            1           1   5.6114948635239706E-002           3      146510           0
</event>
<event>
      5   9999  3.79277E-02  4.17407E+02 -1.00000E+00  1.01132E-01
      21    -1     0     0   502   501  0.000000000E+00  0.000000000E+00  4.583989474E+02  4.583989474E+02  0.000000000E+00  0.00000E+00  9.000E+00
       1    -1     0     0   501     0  0.000000000E+00  0.000000000E+00 -1.783206524E+03  1.783206524E+03  0.000000000E+00  0.00000E+00  9.000E+00
      25     1     1     2     0     0  3.957070176E+02  1.371621604E+02 -1.746529967E+01  4.374100350E+02  1.250000000E+02  0.00000E+00  9.000E+00
      25     1     1     2     0     0 -6.921798281E+02 -4.309859839E+02 -8.327066311E+02  1.172129330E+03  1.250000000E+02  0.00000E+00  9.000E+00
       1     1     1     2   502     0  2.964728106E+02  2.938238235E+02 -4.746356458E+02  6.320661065E+02  5.394796609E-06  0.00000E+00  9.000E+00
#rwgt            1           1   2.8453286780004385E-002           3      146607           0
</event>
<event>
      5   9999  3.79277E-02  2.08505E+01 -1.00000E+00  1.64890E-01
      21    -1     0     0   502   501  0.000000000E+00  0.000000000E+00  1.296475779E+02  1.296475779E+02  0.000000000E+00  0.00000E+00  9.000E+00
      21    -1     0     0   511   502  0.000000000E+00  0.000000000E+00 -5.824941562E+02  5.824941562E+02  0.000000000E+00  0.00000E+00  9.000E+00
      25     1     1     2     0     0  1.016798285E+02 -6.718055427E+01 -9.452319950E+01  1.985236753E+02  1.250000000E+02  0.00000E+00  9.000E+00
      25     1     1     2     0     0 -1.096368095E+02  4.790804730E+01 -1.947128296E+01  1.741250753E+02  1.250000000E+02  0.00000E+00  9.000E+00
      21     1     1     2   511   501  7.956980951E+00  1.927250696E+01 -3.388520958E+02  3.394929835E+02  3.814697266E-06  0.00000E+00  9.000E+00
#rwgt            1           1   3.7788343915894203E-002           3      146673           0
</event>
<event>
      5   9999  3.79277E-02  2.32763E+01 -1.00000E+00  1.61110E-01
      21    -1     0     0   502   512  0.000000000E+00  0.000000000E+00  1.525545675E+02  1.525545675E+02  0.000000000E+00  0.00000E+00  9.000E+00
      21    -1     0     0   501   502  0.000000000E+00  0.000000000E+00 -6.452296388E+02  6.452296388E+02  0.000000000E+00  0.00000E+00  9.000E+00
      25     1     1     2     0     0  2.395059271E+02 -2.943931534E+00 -6.724534590E+01  2.784217887E+02  1.250000000E+02  0.00000E+00  9.000E+00
      25     1     1     2     0     0 -2.256345237E+02 -1.574756882E+01 -4.233503396E+02  4.959933813E+02  1.250000000E+02  0.00000E+00  9.000E+00
      21     1     1     2   501   512 -1.387140341E+01  1.869150035E+01 -2.079385828E+00  2.336903643E+01  7.777207107E-07  0.00000E+00  9.000E+00
#rwgt            1           1   3.1903092173792655E-002           3      146836           0
</event>
<event>
      5   9999 -3.79277E-02  1.61431E+01 -1.00000E+00  1.74431E-01
      21    -1     0     0   502   501  0.000000000E+00  0.000000000E+00  2.410745870E+02  2.410745870E+02  0.000000000E+00  0.00000E+00  9.000E+00
      21    -1     0     0   501   511  0.000000000E+00  0.000000000E+00 -3.709606935E+02  3.709606935E+02  0.000000000E+00  0.00000E+00  9.000E+00
      25     1     1     2     0     0 -2.272815051E+01 -6.393105121E+01  2.011833056E+02  2.463807431E+02  1.250000000E+02  0.00000E+00  9.000E+00
      25     1     1     2     0     0  1.156186729E+01  5.227282739E+01 -3.138981561E+02  3.420865061E+02  1.250000000E+02  0.00000E+00  9.000E+00
      21     1     1     2   502   511  1.116628322E+01  1.165822382E+01 -1.717125601E+01  2.356803123E+01  2.384185791E-07  0.00000E+00  9.000E+00
#rwgt            1           1  -3.3496269026172011E-002           3      147185           0
</event>
<event>
      5   9999  3.79277E-02  3.98631E+01 -1.00000E+00  1.44933E-01
      21    -1     0     0   502   512  0.000000000E+00  0.000000000E+00  2.771031114E+02  2.771031114E+02  0.000000000E+00  0.00000E+00  9.000E+00
      21    -1     0     0   501   502  0.000000000E+00  0.000000000E+00 -2.671068035E+02  2.671068035E+02  0.000000000E+00  0.00000E+00  9.000E+00
      25     1     1     2     0     0 -1.527235142E+02  1.049068140E+02 -1.153980351E+02  2.515385018E+02  1.250000000E+02  0.00000E+00  9.000E+00
      25     1     1     2     0     0  1.241019640E+02 -1.326534217E+02  8.616798702E+01  2.367449043E+02  1.250000000E+02  0.00000E+00  9.000E+00
      21     1     1     2   501   512  2.862155015E+01  2.774660761E+01  3.922635595E+01  5.592650864E+01  6.743495762E-07  0.00000E+00  9.000E+00
#rwgt            1           1   3.2172880977444439E-002           3      147439           0
</event>
<event>
      5   9999  3.79277E-02  2.76099E+02 -1.00000E+00  1.06777E-01
       5    -1     0     0   502     0  0.000000000E+00  0.000000000E+00  4.207645317E+02  4.207645317E+02  0.000000000E+00  0.00000E+00  9.000E+00
      21    -1     0     0   501   502  0.000000000E+00  0.000000000E+00 -9.370455399E+02  9.370455399E+02  0.000000000E+00  0.00000E+00  9.000E+00
      25     1     1     2     0     0 -7.806395840E+01 -2.702700060E+02 -5.026184311E+02  5.893981210E+02  1.250000000E+02  0.00000E+00  9.000E+00
      25     1     1     2     0     0 -1.036371785E+02  6.238715015E+01 -3.149229777E+02  3.597697919E+02  1.250000000E+02  0.00000E+00  9.000E+00
       5     1     1     2   501     0  1.817011369E+02  2.078828558E+02  3.012604006E+02  4.086421587E+02  3.814697266E-06  0.00000E+00  9.000E+00
#rwgt            1           1   3.4296924570622667E-002           3      147679           0
</event>
<event>
      5   9999  3.79277E-02  1.28112E+02 -1.00000E+00  1.19175E-01
      21    -1     0     0   502   501  0.000000000E+00  0.000000000E+00  6.390928864E+02  6.390928864E+02  0.000000000E+00  0.00000E+00  9.000E+00
      21    -1     0     0   501   511  0.000000000E+00  0.000000000E+00 -1.780399782E+02  1.780399782E+02  0.000000000E+00  0.00000E+00  9.000E+00
      25     1     1     2     0     0  7.963093446E+01 -2.379494292E+02  2.174712502E+02  3.547953794E+02  1.250000000E+02  0.00000E+00  9.000E+00
      25     1     1     2     0     0 -1.672121937E+02  1.444501772E+02  2.110990141E+02  3.301720236E+02  1.250000000E+02  0.00000E+00  9.000E+00
      21     1     1     2   502   511  8.758125924E+01  9.349925197E+01  3.248264388E+01  1.321654616E+02  2.286830675E-06  0.00000E+00  9.000E+00
#rwgt            1           1   4.6961962341972113E-002           3      147873           0
</event>
<event>
      5   9999  3.79277E-02  1.69268E+02  7.55638E-03  1.14351E-01
      -1    -1     0     0     0   501  0.000000000E+00  0.000000000E+00  4.167809065E+01  4.167809065E+01  0.000000000E+00  0.00000E+00  9.000E+00
       1    -1     0     0   502     0  0.000000000E+00  0.000000000E+00 -1.402206546E+03  1.402206546E+03  0.000000000E+00  0.00000E+00  9.000E+00
      25     1     1     2     0     0  5.392486036E+01  2.617250625E-01 -4.448644762E+02  4.652282894E+02  1.250000000E+02  0.00000E+00  9.000E+00
      25     1     1     2     0     0  1.073609469E+02  5.110395776E+01 -3.911416882E+02  4.274983131E+02  1.250000000E+02  0.00000E+00  9.000E+00
      21     1     1     2   502   501 -1.612858072E+02 -5.136568282E+01 -5.245222914E+02  5.511580347E+02  7.629394531E-06  0.00000E+00  9.000E+00
#rwgt            3           5   1.3220711614958470E-003           3      147968           0
</event>
<event>
      5   9999  3.79277E-02  2.40778E+02 -1.00000E+00  1.08791E-01
      21    -1     0     0   502   501  0.000000000E+00  0.000000000E+00  1.406885913E+02  1.406885913E+02  0.000000000E+00  0.00000E+00  9.000E+00
      21    -1     0     0   511   502  0.000000000E+00  0.000000000E+00 -1.455875643E+03  1.455875643E+03  0.000000000E+00  0.00000E+00  9.000E+00
      25     1     1     2     0     0  9.472336782E+01  2.281899783E+02 -1.730904610E+02  3.265401817E+02  1.250000000E+02  0.00000E+00  9.000E+00
      25     1     1     2     0     0  4.125447200E+01 -2.948438590E+01 -3.823444552E+01  1.402074652E+02  1.250000000E+02  0.00000E+00  9.000E+00
      21     1     1     2   511   501 -1.359778398E+02 -1.987055924E+02 -1.103862145E+03  1.129816587E+03  1.525878906E-05  0.00000E+00  9.000E+00
#rwgt            1           1   4.1102041611561897E-002           3      148002           0
</event>
<event>
      5   9999  3.79277E-02  5.28439E+01 -1.00000E+00  1.37718E-01
      21    -1     0     0   502   501  0.000000000E+00  0.000000000E+00  1.042649757E+03  1.042649757E+03  0.000000000E+00  0.00000E+00  9.000E+00
      21    -1     0     0   501   512  0.000000000E+00  0.000000000E+00 -4.031549985E+02  4.031549985E+02  0.000000000E+00  0.00000E+00  9.000E+00
      25     1     1     2     0     0 -1.574630893E+02 -1.504164137E+02  6.135952243E+02  6.629810112E+02  1.250000000E+02  0.00000E+00  9.000E+00
      25     1     1     2     0     0  1.229958250E+02  1.904724237E+02  3.606317907E+02  4.439459490E+02  1.250000000E+02  0.00000E+00  9.000E+00
      21     1     1     2   502   512  3.446726437E+01 -4.005601006E+01 -3.347322567E+02  3.388777950E+02  8.529922400E-06  0.00000E+00  9.000E+00
#rwgt            1           1   3.8819751391001821E-002           3      148080           0
</event>
<event>
      5   9999  3.79277E-02  3.04143E+01 -1.00000E+00  1.52627E-01
      21    -1     0     0   502   511  0.000000000E+00  0.000000000E+00  9.599965687E+01  9.599965687E+01  0.000000000E+00  0.00000E+00  9.000E+00
      21    -1     0     0   501   502  0.000000000E+00  0.000000000E+00 -1.280229324E+03  1.280229324E+03  0.000000000E+00  0.00000E+00  9.000E+00
      25     1     1     2     0     0  5.441555960E+01 -6.396597140E+01 -1.982422830E+01  1.518904166E+02  1.250000000E+02  0.00000E+00  9.000E+00
      25     1     1     2     0     0 -4.361311946E+01  9.239725127E+01 -1.179421154E+03  1.190419512E+03  1.250000000E+02  0.00000E+00  9.000E+00
      21     1     1     2   501   511 -1.080244013E+01 -2.843127987E+01  1.501571530E+01  3.391905208E+01  1.261592536E-06  0.00000E+00  9.000E+00
#rwgt            1           1   4.3959980888847026E-002           3      148221           0
</event>
<event>
      5   9999 -3.79277E-02  1.07600E+02 -1.00000E+00  1.22414E-01
      21    -1     0     0   502   501  0.000000000E+00  0.000000000E+00  5.066462893E+02  5.066462893E+02  0.000000000E+00  0.00000E+00  9.000E+00
       2    -1     0     0   501     0  0.000000000E+00  0.000000000E+00 -4.029333893E+02  4.029333893E+02  0.000000000E+00  0.00000E+00  9.000E+00
      25     1     1     2     0     0 -3.485417625E+02  7.433612398E+01  2.746157407E+02  4.669539855E+02  1.250000000E+02  0.00000E+00  9.000E+00
      25     1     1     2     0     0  2.507714105E+02 -2.940644928E+01 -5.990637750E+01  2.880361325E+02  1.250000000E+02  0.00000E+00  9.000E+00
       2     1     1     2   502     0  9.777035199E+01 -4.492967470E+01 -1.109964632E+02  1.545895606E+02  0.000000000E+00  0.00000E+00  9.000E+00
#rwgt            1           1 -0.24960370704325391                3      148408           0
</event>
<event>
      5   9999  3.79277E-02  1.03517E+02 -1.00000E+00  1.23157E-01
      21    -1     0     0   502   501  0.000000000E+00  0.000000000E+00  1.528008851E+02  1.528008851E+02  0.000000000E+00  0.00000E+00  9.000E+00
      21    -1     0     0   511   502  0.000000000E+00  0.000000000E+00 -6.200413859E+02  6.200413859E+02  0.000000000E+00  0.00000E+00  9.000E+00
      25     1     1     2     0     0  6.433950101E+01  5.158078613E+01 -1.327604001E+02  2.001261421E+02  1.250000000E+02  0.00000E+00  9.000E+00
      25     1     1     2     0     0 -1.360819118E+02 -1.262049010E+02 -1.240751631E+00  2.237688611E+02  1.250000000E+02  0.00000E+00  9.000E+00
      21     1     1     2   511   501  7.174241077E+01  7.462411483E+01 -3.332393490E+02  3.489472679E+02  5.394796609E-06  0.00000E+00  9.000E+00
#rwgt            2          11   1.3047866827788537E-003           3      148605           0
</event>
<event>
      5   9999  3.79277E-02  4.86768E+01 -1.00000E+00  1.39743E-01
      21    -1     0     0   502   501  0.000000000E+00  0.000000000E+00  1.480239611E+02  1.480239611E+02  0.000000000E+00  0.00000E+00  9.000E+00
      21    -1     0     0   501   512  0.000000000E+00  0.000000000E+00 -2.829994577E+02  2.829994577E+02  0.000000000E+00  0.00000E+00  9.000E+00
      25     1     1     2     0     0  9.600492119E+01 -3.041679853E+01 -1.674793162E+01  1.613927500E+02  1.250000000E+02  0.00000E+00  9.000E+00
      25     1     1     2     0     0 -1.144431974E+02  7.546628388E+01 -6.279322481E+01  1.958580979E+02  1.250000000E+02  0.00000E+00  9.000E+00
      21     1     1     2   502   512  1.843827616E+01 -4.504948535E+01 -5.543434011E+01  7.377257093E+01  6.743495762E-07  0.00000E+00  9.000E+00
#rwgt            1           1   3.5441468070025718E-002           3      148790           0
</event>
<event>
      5   9999  3.79277E-02  1.24527E+02 -1.00000E+00  1.19690E-01
      21    -1     0     0   502   501  0.000000000E+00  0.000000000E+00  1.157309087E+03  1.157309087E+03  0.000000000E+00  0.00000E+00  9.000E+00
      21    -1     0     0   511   502  0.000000000E+00  0.000000000E+00 -8.072006693E+01  8.072006693E+01  0.000000000E+00  0.00000E+00  9.000E+00
      25     1     1     2     0     0  6.493547985E+01 -6.100678408E+01  1.423992716E+02  2.093824176E+02  1.250000000E+02  0.00000E+00  9.000E+00
      25     1     1     2     0     0  1.800351159E+01  1.538941958E+02  8.620382632E+02  8.847273688E+02  1.250000000E+02  0.00000E+00  9.000E+00
      21     1     1     2   511   501 -8.293899145E+01 -9.288741176E+01  7.215148561E+01  1.439193679E+02  1.907348633E-06  0.00000E+00  9.000E+00
#rwgt            1           1   2.7482432801918179E-002           3      148906           0
</event>
<event>
      5   9999  3.79277E-02  3.06928E+01 -1.00000E+00  1.52354E-01
      21    -1     0     0   502   501  0.000000000E+00  0.000000000E+00  4.996397922E+02  4.996397922E+02  0.000000000E+00  0.00000E+00  9.000E+00
      21    -1     0     0   512   502  0.000000000E+00  0.000000000E+00 -6.381177043E+01  6.381177043E+01  0.000000000E+00  0.00000E+00  9.000E+00
      25     1     1     2     0     0  3.501434407E+01  2.516334685E+01  6.245688830E+01  1.462363197E+02  1.250000000E+02  0.00000E+00  9.000E+00
      25     1     1     2     0     0 -4.253613611E+01  4.593543048E+00  3.604735230E+02  3.839226280E+02  1.250000000E+02  0.00000E+00  9.000E+00
      21     1     1     2   512   501  7.521792041E+00 -2.975688989E+01  1.289761052E+01  3.329261493E+01  7.725644944E-07  0.00000E+00  9.000E+00
#rwgt            1           1   5.5856654518906687E-002           3      148988           0
</event>
<event>
      5   9999  3.79277E-02  7.40100E+01 -1.00000E+00  1.30007E-01
      21    -1     0     0   502   501  0.000000000E+00  0.000000000E+00  5.424370292E+01  5.424370292E+01  0.000000000E+00  0.00000E+00  9.000E+00
      21    -1     0     0   501   511  0.000000000E+00  0.000000000E+00 -9.411724181E+02  9.411724181E+02  0.000000000E+00  0.00000E+00  9.000E+00
      25     1     1     2     0     0 -8.704432520E+01 -8.035588364E+01 -1.852660730E+02  2.529472284E+02  1.250000000E+02  0.00000E+00  9.000E+00
      25     1     1     2     0     0  1.096668378E+02  9.888189369E+00 -5.291273841E+02  5.547300066E+02  1.250000000E+02  0.00000E+00  9.000E+00
      21     1     1     2   502   511 -2.262251265E+01  7.046769427E+01 -1.725352581E+02  1.877388860E+02  3.303624740E-06  0.00000E+00  9.000E+00
#rwgt            1           1   4.4288340626946497E-002           3      149090           0
</event>
<event>
      5   9999  3.79277E-02  1.23512E+02 -1.00000E+00  1.19839E-01
      21    -1     0     0   502   501  0.000000000E+00  0.000000000E+00  9.926046574E+02  9.926046574E+02  0.000000000E+00  0.00000E+00  9.000E+00
      21    -1     0     0   512   502  0.000000000E+00  0.000000000E+00 -1.799815267E+02  1.799815267E+02  0.000000000E+00  0.00000E+00  9.000E+00
      25     1     1     2     0     0 -2.391229282E+02  1.077306457E+02  7.389940447E+02  7.940546990E+02  1.250000000E+02  0.00000E+00  9.000E+00
      25     1     1     2     0     0  2.056580383E+02  1.116153859E+01  8.260719785E+01  2.546934585E+02  1.250000000E+02  0.00000E+00  9.000E+00
      21     1     1     2   512   501  3.346488999E+01 -1.188921843E+02 -8.978111867E+00  1.238380267E+02  1.364412682E-06  0.00000E+00  9.000E+00
#rwgt            1           1   4.0025387672602886E-002           3      149212           0
</event>
<event>
      5   9999  3.79277E-02  1.60110E+01 -1.00000E+00  1.74756E-01
      21    -1     0     0   511   501  0.000000000E+00  0.000000000E+00  1.233808172E+03  1.233808172E+03  0.000000000E+00  0.00000E+00  9.000E+00
      21    -1     0     0   501   502  0.000000000E+00  0.000000000E+00 -1.462702554E+02  1.462702554E+02  0.000000000E+00  0.00000E+00  9.000E+00
      25     1     1     2     0     0  5.295107653E+01 -1.808042532E+02  1.960156936E+02  2.992342671E+02  1.250000000E+02  0.00000E+00  9.000E+00
      25     1     1     2     0     0 -6.426973522E+01  1.694799269E+02  3.354817613E+01  2.227207323E+02  1.250000000E+02  0.00000E+00  9.000E+00
      21     1     1     2   511   502  1.131865870E+01  1.132432632E+01  8.579740472E+02  8.581234282E+02  1.078959322E-05  0.00000E+00  9.000E+00
#rwgt            2          11   6.9038134448221999E-004           3      149397           0
</event>
<event>
      5   9999  3.79277E-02  2.62458E+02 -1.00000E+00  1.07513E-01
      21    -1     0     0   502   501  0.000000000E+00  0.000000000E+00  3.728842483E+02  3.728842483E+02  0.000000000E+00  0.00000E+00  9.000E+00
      21    -1     0     0   512   502  0.000000000E+00  0.000000000E+00 -1.617845671E+03  1.617845671E+03  0.000000000E+00  0.00000E+00  9.000E+00
      25     1     1     2     0     0  3.469917849E+02  2.838968888E+02  1.141211106E+02  4.792174560E+02  1.250000000E+02  0.00000E+00  9.000E+00
      25     1     1     2     0     0 -2.259767120E+02 -5.100278340E+01 -2.214405357E+02  3.439878910E+02  1.250000000E+02  0.00000E+00  9.000E+00
      21     1     1     2   512   501 -1.210150729E+02 -2.328941054E+02 -1.137641998E+03  1.167524573E+03  0.000000000E+00  0.00000E+00  9.000E+00
#rwgt            1           1  0.35774434369579788                3      149552           0
</event>
<event>
      5   9999  3.79277E-02  6.85253E+01 -1.00000E+00  1.31691E-01
      21    -1     0     0   502   501  0.000000000E+00  0.000000000E+00  1.572823139E+02  1.572823139E+02  0.000000000E+00  0.00000E+00  9.000E+00
      21    -1     0     0   501   511  0.000000000E+00  0.000000000E+00 -4.616165587E+02  4.616165587E+02  0.000000000E+00  0.00000E+00  9.000E+00
      25     1     1     2     0     0 -3.076025440E+01 -1.518591669E+02 -1.563219022E+02  2.531184247E+02  1.250000000E+02  0.00000E+00  9.000E+00
      25     1     1     2     0     0  6.614659954E+00  2.159895947E+02 -6.466393371E+01  2.578792024E+02  1.250000000E+02  0.00000E+00  9.000E+00
      21     1     1     2   502   511  2.414559445E+01 -6.413042779E+01 -8.334840895E+01  1.079012455E+02  1.907348633E-06  0.00000E+00  9.000E+00
#rwgt            1           1   3.8636819826962966E-002           3      149630           0
</event>
<event>
      5   9999  3.79277E-02  5.04315E+01 -1.00000E+00  1.38863E-01
      21    -1     0     0   502   501  0.000000000E+00  0.000000000E+00  4.145985480E+02  4.145985480E+02  0.000000000E+00  0.00000E+00  9.000E+00
      -1    -1     0     0     0   502  0.000000000E+00  0.000000000E+00 -4.008851053E+02  4.008851053E+02  0.000000000E+00  0.00000E+00  9.000E+00
      25     1     1     2     0     0  2.992906689E+02  1.271511427E+01  9.880148094E+01  3.392982630E+02  1.250000000E+02  0.00000E+00  9.000E+00
      25     1     1     2     0     0 -3.386484833E+02 -4.424757654E+01 -1.504966563E+02  3.935922850E+02  1.250000000E+02  0.00000E+00  9.000E+00
      -1     1     1     2     0   501  3.935781431E+01  3.153246227E+01  6.540861811E+01  8.259310532E+01  1.651812370E-06  0.00000E+00  9.000E+00
#rwgt            1           1   4.1625647211858179E-002           3      149915           0
</event>
<event>
      5   9999  3.79277E-02  4.97433E+01 -1.00000E+00  1.39203E-01
       2    -1     0     0   502     0  0.000000000E+00  0.000000000E+00  3.472950222E+03  3.472950222E+03  0.000000000E+00  0.00000E+00  9.000E+00
      21    -1     0     0   501   502  0.000000000E+00  0.000000000E+00 -2.546760103E+01  2.546760103E+01  0.000000000E+00  0.00000E+00  9.000E+00
      25     1     1     2     0     0 -1.166746430E+02  1.123682725E+01  3.322467958E+02  3.738344178E+02  1.250000000E+02  0.00000E+00  9.000E+00
      25     1     1     2     0     0  1.155691590E+02 -6.096784948E+01  2.755193636E+03  2.761121200E+03  1.250000000E+02  0.00000E+00  9.000E+00
       2     1     1     2   501     0  1.105483984E+00  4.973102223E+01  3.600421885E+02  3.634622046E+02  5.394796609E-06  0.00000E+00  9.000E+00
#rwgt            1           1   2.8718484858673905E-002           3      150069           0
</event>
<event>
      5   9999  3.79277E-02  1.26470E+02 -1.00000E+00  1.19408E-01
       2    -1     0     0   502     0  0.000000000E+00  0.000000000E+00  2.574347421E+03  2.574347421E+03  0.000000000E+00  0.00000E+00  9.000E+00
      21    -1     0     0   501   502  0.000000000E+00  0.000000000E+00 -1.751965221E+02  1.751965221E+02  0.000000000E+00  0.00000E+00  9.000E+00
      25     1     1     2     0     0  2.048876113E+02  3.862258338E+01 -9.226428077E+00  2.432709687E+02  1.250000000E+02  0.00000E+00  9.000E+00
      25     1     1     2     0     0 -9.744039718E+01 -1.053289535E+02  1.446978251E+02  2.390633390E+02  1.250000000E+02  0.00000E+00  9.000E+00
       2     1     1     2   501     0 -1.074472142E+02  6.670637011E+01  2.263679502E+03  2.267209636E+03  0.000000000E+00  0.00000E+00  9.000E+00
#rwgt            1           1   3.5060624570918159E-002           3      150194           0
</event>
<event>
      5   9999 -3.79277E-02  1.28234E+02 -1.00000E+00  1.19157E-01
       2    -1     0     0   502     0  0.000000000E+00  0.000000000E+00  3.335700695E+02  3.335700695E+02  0.000000000E+00  0.00000E+00  9.000E+00
      21    -1     0     0   501   502  0.000000000E+00  0.000000000E+00 -5.499648343E+02  5.499648343E+02  0.000000000E+00  0.00000E+00  9.000E+00
      25     1     1     2     0     0  9.057016303E+01  1.880157699E+02 -4.350251582E+02  4.984222832E+02  1.250000000E+02  0.00000E+00  9.000E+00
      25     1     1     2     0     0 -1.117893379E+02 -6.154917492E+01  7.837430243E+01  1.950709827E+02  1.250000000E+02  0.00000E+00  9.000E+00
       2     1     1     2   501     0  2.121917488E+01 -1.264665950E+02  1.402560910E+02  1.900416378E+02  2.697398305E-06  0.00000E+00  9.000E+00
#rwgt            1           1  -1.9964880536758576E-002           3      150296           0
</event>
<event>
      5   9999  3.79277E-02  1.21074E+02 -1.00000E+00  1.20204E-01
       2    -1     0     0   502     0  0.000000000E+00  0.000000000E+00  1.638461410E+03  1.638461410E+03  0.000000000E+00  0.00000E+00  9.000E+00
      21    -1     0     0   501   502  0.000000000E+00  0.000000000E+00 -9.962254357E+02  9.962254357E+02  0.000000000E+00  0.00000E+00  9.000E+00
      25     1     1     2     0     0  8.352817239E+01  2.340175399E+02 -7.346737361E+02  7.855645506E+02  1.250000000E+02  0.00000E+00  9.000E+00
      25     1     1     2     0     0 -1.857468436E+02 -1.691304060E+02 -1.494890942E+02  3.179291956E+02  1.250000000E+02  0.00000E+00  9.000E+00
       2     1     1     2   501     0  1.022186712E+02 -6.488713383E+01  1.526398805E+03  1.531193099E+03  0.000000000E+00  0.00000E+00  9.000E+00
#rwgt            1           1   3.7940427632107941E-002           3      150496           0
</event>
<event>
      5   9999  3.79277E-02  7.43723E+01 -1.00000E+00  1.29902E-01
      21    -1     0     0   511   501  0.000000000E+00  0.000000000E+00  1.363469127E+03  1.363469127E+03  0.000000000E+00  0.00000E+00  9.000E+00
      21    -1     0     0   501   502  0.000000000E+00  0.000000000E+00 -6.979864207E+01  6.979864207E+01  0.000000000E+00  0.00000E+00  9.000E+00
      25     1     1     2     0     0  8.263567391E+01  8.445665898E+01  9.876441504E+01  1.983456365E+02  1.250000000E+02  0.00000E+00  9.000E+00
      25     1     1     2     0     0 -1.162894193E+02 -1.507791085E+02  7.494205669E+02  7.832711885E+02  1.250000000E+02  0.00000E+00  9.000E+00
      21     1     1     2   511   502  3.365374541E+01  6.632244954E+01  4.454855026E+02  4.516509437E+02  0.000000000E+00  0.00000E+00  9.000E+00
#rwgt            1           1   3.7321127960280601E-002           3      150588           0
</event>
<event>
      5   9999 -3.79277E-02  5.91667E+01 -1.00000E+00  1.35029E-01
      21    -1     0     0   512   501  0.000000000E+00  0.000000000E+00  8.351526551E+02  8.351526551E+02  0.000000000E+00  0.00000E+00  9.000E+00
      21    -1     0     0   501   502  0.000000000E+00  0.000000000E+00 -1.741590949E+02  1.741590949E+02  0.000000000E+00  0.00000E+00  9.000E+00
      25     1     1     2     0     0  3.073452909E+02  9.875921365E+01  1.300687370E+02  3.698072288E+02  1.250000000E+02  0.00000E+00  9.000E+00
      25     1     1     2     0     0 -2.540422169E+02 -7.307877742E+01  4.767656853E+02  5.592928341E+02  1.250000000E+02  0.00000E+00  9.000E+00
      21     1     1     2   512   502 -5.330307404E+01 -2.568043623E+01  5.415913801E+01  8.021168704E+01  1.168007728E-06  0.00000E+00  9.000E+00
#rwgt            1           1  -2.8151276972880373E-002           3      150664           0
</event>
<event>
      5   9999  3.79277E-02  7.89814E+01 -1.00000E+00  1.28619E-01
      21    -1     0     0   502   501  0.000000000E+00  0.000000000E+00  1.187073678E+03  1.187073678E+03  0.000000000E+00  0.00000E+00  9.000E+00
      21    -1     0     0   501   511  0.000000000E+00  0.000000000E+00 -5.982372337E+01  5.982372337E+01  0.000000000E+00  0.00000E+00  9.000E+00
      25     1     1     2     0     0 -5.185952184E+01  2.082296752E+02  4.518458607E+02  5.155954707E+02  1.250000000E+02  0.00000E+00  9.000E+00
      25     1     1     2     0     0  1.098795901E+01 -1.406458131E+02  5.645902237E+02  5.952218920E+02  1.250000000E+02  0.00000E+00  9.000E+00
      21     1     1     2   502   511  4.087156284E+01 -6.758386211E+01  1.108138700E+02  1.360800384E+02  1.907348633E-06  0.00000E+00  9.000E+00
#rwgt            1           1   3.6911550671300176E-002           3      150821           0
</event>
<event>
      5   9999  3.79277E-02  4.87446E+01 -1.00000E+00  1.39709E-01
      21    -1     0     0   502   501  0.000000000E+00  0.000000000E+00  1.204975978E+02  1.204975978E+02  0.000000000E+00  0.00000E+00  9.000E+00
       2    -1     0     0   501     0  0.000000000E+00  0.000000000E+00 -3.344307504E+03  3.344307504E+03  0.000000000E+00  0.00000E+00  9.000E+00
      25     1     1     2     0     0  2.249580254E+02  1.430544583E+02 -5.307690017E+02  6.069690473E+02  1.250000000E+02  0.00000E+00  9.000E+00
      25     1     1     2     0     0 -2.068743239E+02 -9.778840024E+01 -1.246841321E+02  2.890167641E+02  1.250000000E+02  0.00000E+00  9.000E+00
       2     1     1     2   502     0 -1.808370155E+01 -4.526605809E+01 -2.568356773E+03  2.568819291E+03  3.051757812E-05  0.00000E+00  9.000E+00
#rwgt            1           1   3.4737693949783578E-002           3      150955           0
</event>
<event>
      5   9999  3.79277E-02  1.28407E+01 -1.00000E+00  1.83988E-01
      21    -1     0     0   502   501  0.000000000E+00  0.000000000E+00  3.937413974E+02  3.937413974E+02  0.000000000E+00  0.00000E+00  9.000E+00
      21    -1     0     0   501   511  0.000000000E+00  0.000000000E+00 -9.520146796E+01  9.520146796E+01  0.000000000E+00  0.00000E+00  9.000E+00
      25     1     1     2     0     0 -9.810520114E+01 -5.776987483E+01  2.470172720E+02  2.993401436E+02  1.250000000E+02  0.00000E+00  9.000E+00
      25     1     1     2     0     0  1.027523394E+02  4.579960316E+01  5.379366859E+01  1.765627528E+02  1.250000000E+02  0.00000E+00  9.000E+00
      21     1     1     2   502   511 -4.647138253E+00  1.197027167E+01 -2.271011130E+00  1.303996892E+01  6.664001875E-08  0.00000E+00  9.000E+00
#rwgt            1           1   4.6683263375249438E-002           3      151077           0
</event>
<event>
      5   9999  3.79277E-02  6.96349E+01 -1.00000E+00  1.31336E-01
       2    -1     0     0   502     0  0.000000000E+00  0.000000000E+00  2.237528007E+03  2.237528007E+03  0.000000000E+00  0.00000E+00  9.000E+00
      21    -1     0     0   501   502  0.000000000E+00  0.000000000E+00 -2.759834752E+02  2.759834752E+02  0.000000000E+00  0.00000E+00  9.000E+00
      25     1     1     2     0     0  6.142691501E+01  1.133979277E+02 -7.158046512E+01  1.933419739E+02  1.250000000E+02  0.00000E+00  9.000E+00
      25     1     1     2     0     0 -1.306461279E+02 -1.209950602E+02 -6.016010013E+01  2.257265004E+02  1.250000000E+02  0.00000E+00  9.000E+00
       2     1     1     2   501     0  6.921921287E+01  7.597132503E+00  2.093285097E+03  2.094443008E+03  3.051757812E-05  0.00000E+00  9.000E+00
#rwgt            1           1   3.5304572954925235E-002           3      151308           0
</event>
<event>
      5   9999  3.79277E-02  1.89246E+01 -1.00000E+00  1.68374E-01
      21    -1     0     0   502   501  0.000000000E+00  0.000000000E+00  4.232399792E+02  4.232399792E+02  0.000000000E+00  0.00000E+00  9.000E+00
      -1    -1     0     0     0   502  0.000000000E+00  0.000000000E+00 -3.764573431E+02  3.764573431E+02  0.000000000E+00  0.00000E+00  9.000E+00
      25     1     1     2     0     0 -7.286270727E+01  2.150665357E+01 -2.128284010E+02  2.582487919E+02  1.250000000E+02  0.00000E+00  9.000E+00
      25     1     1     2     0     0  6.090499294E+01 -6.838495749E+00  3.877163861E+02  4.119528847E+02  1.250000000E+02  0.00000E+00  9.000E+00
      -1     1     1     2     0   501  1.195771433E+01 -1.466815782E+01 -1.281053490E+02  1.294956456E+02  0.000000000E+00  0.00000E+00  9.000E+00
#rwgt            1           1   6.0570907065773186E-002           3      151373           0
</event>
<event>
      5   9999  3.79277E-02  7.57170E+01 -1.00000E+00  1.29517E-01
      21    -1     0     0   502   501  0.000000000E+00  0.000000000E+00  5.980138630E+01  5.980138630E+01  0.000000000E+00  0.00000E+00  9.000E+00
       2    -1     0     0   501     0  0.000000000E+00  0.000000000E+00 -3.349916854E+03  3.349916854E+03  0.000000000E+00  0.00000E+00  9.000E+00
      25     1     1     2     0     0 -1.906757243E+02  3.125479928E+01 -4.648910193E+02  5.187318711E+02  1.250000000E+02  0.00000E+00  9.000E+00
      25     1     1     2     0     0  1.754726862E+02  4.292017185E+01 -3.411607837E+02  4.057690046E+02  1.250000000E+02  0.00000E+00  9.000E+00
       2     1     1     2   502     0  1.520303810E+01 -7.417497113E+01 -2.484063665E+03  2.485217365E+03  0.000000000E+00  0.00000E+00  9.000E+00
#rwgt            1           1   4.7288631210143151E-002           3      151518           0
</event>
<event>
      5   9999  3.79277E-02  2.64595E+02 -1.00000E+00  1.07395E-01
      21    -1     0     0   502   501  0.000000000E+00  0.000000000E+00  1.108448592E+03  1.108448592E+03  0.000000000E+00  0.00000E+00  9.000E+00
      21    -1     0     0   511   502  0.000000000E+00  0.000000000E+00 -3.218350513E+02  3.218350513E+02  0.000000000E+00  0.00000E+00  9.000E+00
      25     1     1     2     0     0  1.958525075E+02  1.894346541E+02  2.467778511E+02  3.882885534E+02  1.250000000E+02  0.00000E+00  9.000E+00
      25     1     1     2     0     0 -1.861776256E+02 -4.538527835E+02  5.849446773E+02  7.735824021E+02  1.250000000E+02  0.00000E+00  9.000E+00
      21     1     1     2   511   501 -9.674881836E+00  2.644181294E+02 -4.510898730E+01  2.684126882E+02  5.621827184E-06  0.00000E+00  9.000E+00
#rwgt            2          11   1.8312029474687236E-003           3      151737           0
</event>
<event>
      5   9999 -3.79277E-02  2.00015E+01 -1.00000E+00  1.66366E-01
      21    -1     0     0   502   501  0.000000000E+00  0.000000000E+00  1.527038129E+02  1.527038129E+02  0.000000000E+00  0.00000E+00  9.000E+00
      21    -1     0     0   501   512  0.000000000E+00  0.000000000E+00 -4.911198712E+02  4.911198712E+02  0.000000000E+00  0.00000E+00  9.000E+00
      25     1     1     2     0     0  8.931603268E+01  1.051080746E+02  5.327066077E+01  1.936177273E+02  1.250000000E+02  0.00000E+00  9.000E+00
      25     1     1     2     0     0 -9.534526592E+01 -1.241791954E+02 -3.696261648E+02  4.204279891E+02  1.250000000E+02  0.00000E+00  9.000E+00
      21     1     1     2   502   512  6.029233245E+00  1.907112088E+01 -2.206055431E+01  2.977796772E+01  3.371747881E-07  0.00000E+00  9.000E+00
#rwgt            1           1 -0.27187378736102580                3      151772           0
</event>
<event>
      5   9999  3.79277E-02  2.09454E+01 -1.00000E+00  1.64731E-01
      21    -1     0     0   502   501  0.000000000E+00  0.000000000E+00  1.035264766E+02  1.035264766E+02  0.000000000E+00  0.00000E+00  9.000E+00
      21    -1     0     0   511   502  0.000000000E+00  0.000000000E+00 -5.596342211E+02  5.596342211E+02  0.000000000E+00  0.00000E+00  9.000E+00
      25     1     1     2     0     0 -1.067272076E+02 -4.450962050E+01 -2.661090134E+02  3.159284890E+02  1.250000000E+02  0.00000E+00  9.000E+00
      25     1     1     2     0     0  1.228313454E+02  5.790238620E+01 -3.135538040E+01  1.872121407E+02  1.250000000E+02  0.00000E+00  9.000E+00
      21     1     1     2   511   501 -1.610413777E+01 -1.339276570E+01 -1.586433507E+02  1.600200680E+02  0.000000000E+00  0.00000E+00  9.000E+00
#rwgt            1           1   4.4873490415744711E-002           3      151967           0
</event>
<event>
      5   9999  3.79277E-02  7.12945E+01 -1.00000E+00  1.30819E-01
      -5    -1     0     0     0   501  0.000000000E+00  0.000000000E+00  1.052097907E+02  1.052097907E+02  0.000000000E+00  0.00000E+00  9.000E+00
      21    -1     0     0   501   502  0.000000000E+00  0.000000000E+00 -8.723682780E+02  8.723682780E+02  0.000000000E+00  0.00000E+00  9.000E+00
      25     1     1     2     0     0  2.040875027E+02  1.797892627E+01 -2.761692957E+02  3.658817165E+02  1.250000000E+02  0.00000E+00  9.000E+00
      25     1     1     2     0     0 -2.513706647E+02 -7.133816167E+01 -3.552307115E+02  4.583559783E+02  1.250000000E+02  0.00000E+00  9.000E+00
      -5     1     1     2     0   502  4.728316209E+01  5.335923540E+01 -1.357584800E+02  1.533403741E+02  0.000000000E+00  0.00000E+00  9.000E+00
#rwgt            1           1   2.4023112038786685E-002           3      152102           0
</event>
<event>
      5   9999  3.79277E-02  6.51908E+01 -1.00000E+00  1.32806E-01
      21    -1     0     0   502   511  0.000000000E+00  0.000000000E+00  3.139900756E+02  3.139900756E+02  0.000000000E+00  0.00000E+00  9.000E+00
      21    -1     0     0   501   502  0.000000000E+00  0.000000000E+00 -8.069866778E+02  8.069866778E+02  0.000000000E+00  0.00000E+00  9.000E+00
      25     1     1     2     0     0 -2.264314595E+02  2.198771087E+02 -6.068975155E+02  6.953896341E+02  1.250000000E+02  0.00000E+00  9.000E+00
      25     1     1     2     0     0  1.659077020E+02 -2.440994178E+02  3.378402138E+01  3.222983889E+02  1.250000000E+02  0.00000E+00  9.000E+00
      21     1     1     2   501   511  6.052375750E+01  2.422230907E+01  8.011689190E+01  1.032887305E+02  9.536743164E-07  0.00000E+00  9.000E+00
#rwgt            1           1   4.5525312346253559E-002           3      152193           0
</event>
<event>
      5   9999  3.79277E-02  1.43450E+01 -1.00000E+00  1.79230E-01
      21    -1     0     0   512   501  0.000000000E+00  0.000000000E+00  2.710279720E+02  2.710279720E+02  0.000000000E+00  0.00000E+00  9.000E+00
      21    -1     0     0   501   502  0.000000000E+00  0.000000000E+00 -2.290121490E+02  2.290121490E+02  0.000000000E+00  0.00000E+00  9.000E+00
      25     1     1     2     0     0 -8.218204297E+01 -1.959656963E+01  1.187459417E+02  1.919987302E+02  1.250000000E+02  0.00000E+00  9.000E+00
      25     1     1     2     0     0  7.278816154E+01  3.043792997E+01 -1.633153263E+02  2.202759176E+02  1.250000000E+02  0.00000E+00  9.000E+00
      21     1     1     2   512   502  9.393881430E+00 -1.084136034E+01  8.658520771E+01  8.776547326E+01  1.348699152E-06  0.00000E+00  9.000E+00
#rwgt            1           1   3.6148677832222406E-002           3      152391           0
</event>
<event>
      5   9999  3.79277E-02  3.46477E+01 -1.00000E+00  1.48818E-01
      21    -1     0     0   511   501  0.000000000E+00  0.000000000E+00  8.124924376E+01  8.124924376E+01  0.000000000E+00  0.00000E+00  9.000E+00
      21    -1     0     0   501   502  0.000000000E+00  0.000000000E+00 -7.399772207E+02  7.399772207E+02  0.000000000E+00  0.00000E+00  9.000E+00
      25     1     1     2     0     0  1.321779150E+02  9.583745328E+01 -3.866720780E+02  4.379453328E+02  1.250000000E+02  0.00000E+00  9.000E+00
      25     1     1     2     0     0 -1.644123367E+02 -1.085418838E+02 -2.512036572E+02  3.428425796E+02  1.250000000E+02  0.00000E+00  9.000E+00
      21     1     1     2   511   502  3.223442175E+01  1.270443050E+01 -2.085224170E+01  4.043855195E+01  3.371747881E-07  0.00000E+00  9.000E+00
#rwgt            1           1   4.0359204890613065E-002           3      152612           0
</event>
<event>
      5   9999  3.79277E-02  5.63652E+01 -1.00000E+00  1.36170E-01
      21    -1     0     0   502   501  0.000000000E+00  0.000000000E+00  5.617981111E+02  5.617981111E+02  0.000000000E+00  0.00000E+00  9.000E+00
      21    -1     0     0   512   502  0.000000000E+00  0.000000000E+00 -1.451670467E+02  1.451670467E+02  0.000000000E+00  0.00000E+00  9.000E+00
      25     1     1     2     0     0 -1.304798278E+02 -1.480767026E+02  4.411746740E+01  2.377457597E+02  1.250000000E+02  0.00000E+00  9.000E+00
      25     1     1     2     0     0  7.523353958E+01  1.592519918E+02  3.436754343E+02  4.059052679E+02  1.250000000E+02  0.00000E+00  9.000E+00
      21     1     1     2   512   501  5.524628826E+01 -1.117528926E+01  2.883816272E+01  6.331413022E+01  3.371747881E-07  0.00000E+00  9.000E+00
#rwgt            1           1   3.9238632648745039E-002           3      152833           0
</event>
<event>
      5   9999  3.79277E-02  3.39566E+01 -1.00000E+00  1.49394E-01
      21    -1     0     0   502   501  0.000000000E+00  0.000000000E+00  9.175741390E+01  9.175741390E+01  0.000000000E+00  0.00000E+00  9.000E+00
      21    -1     0     0   501   511  0.000000000E+00  0.000000000E+00 -1.886865466E+03  1.886865466E+03  0.000000000E+00  0.00000E+00  9.000E+00
      25     1     1     2     0     0 -3.123004405E+02 -2.069355481E+02 -7.363758885E+02  8.356005837E+02  1.250000000E+02  0.00000E+00  9.000E+00
      25     1     1     2     0     0  2.920741715E+02  2.342109506E+02 -9.393316012E+02  1.018887113E+03  1.250000000E+02  0.00000E+00  9.000E+00
      21     1     1     2   502   511  2.022626904E+01 -2.727540253E+01 -1.194005623E+02  1.241351837E+02  1.348699152E-06  0.00000E+00  9.000E+00
#rwgt            1           1   4.7122985370584541E-002           3      153063           0
</event>
<event>
      5   9999  3.79277E-02  5.06311E+01 -1.00000E+00  1.38765E-01
      21    -1     0     0   512   501  0.000000000E+00  0.000000000E+00  2.304147642E+02  2.304147642E+02  0.000000000E+00  0.00000E+00  9.000E+00
      21    -1     0     0   501   502  0.000000000E+00  0.000000000E+00 -6.159187654E+02  6.159187654E+02  0.000000000E+00  0.00000E+00  9.000E+00
      25     1     1     2     0     0  1.197456242E+02  9.270957897E+01 -5.263291806E+01  2.032961008E+02  1.250000000E+02  0.00000E+00  9.000E+00
      25     1     1     2     0     0 -6.918883500E+01 -8.996755624E+01 -4.686447030E+02  4.981306191E+02  1.250000000E+02  0.00000E+00  9.000E+00
      21     1     1     2   512   502 -5.055678917E+01 -2.742022723E+00  1.357736198E+02  1.449068096E+02  1.907348633E-06  0.00000E+00  9.000E+00
#rwgt            1           1   4.1120085368768669E-002           3      153292           0
</event>
<event>
      5   9999  3.79277E-02  1.14895E+02 -1.00000E+00  1.21175E-01
      21    -1     0     0   502   511  0.000000000E+00  0.000000000E+00  1.375451002E+03  1.375451002E+03  0.000000000E+00  0.00000E+00  9.000E+00
      21    -1     0     0   501   502  0.000000000E+00  0.000000000E+00 -9.829071312E+02  9.829071312E+02  0.000000000E+00  0.00000E+00  9.000E+00
      25     1     1     2     0     0  3.357898279E+02  5.082770606E+02  1.011543633E+03  1.187411429E+03  1.250000000E+02  0.00000E+00  9.000E+00
      25     1     1     2     0     0 -4.205651040E+02 -5.858278450E+02 -7.135283439E+02  1.022162887E+03  1.250000000E+02  0.00000E+00  9.000E+00
      21     1     1     2   501   511  8.477527607E+01  7.755078443E+01  9.452858144E+01  1.487838174E+02  1.348699152E-06  0.00000E+00  9.000E+00
#rwgt            1           1   1.8766458215238599E-003           3      153418           0
</event>
<event>
      5   9999  3.79277E-02  5.04983E+01 -1.00000E+00  1.38830E-01
      21    -1     0     0   502   512  0.000000000E+00  0.000000000E+00  2.864405696E+02  2.864405696E+02  0.000000000E+00  0.00000E+00  9.000E+00
      21    -1     0     0   501   502  0.000000000E+00  0.000000000E+00 -1.345308505E+02  1.345308505E+02  0.000000000E+00  0.00000E+00  9.000E+00
      25     1     1     2     0     0  8.695123254E+01 -5.874205044E+01  1.151927481E+02  1.997636467E+02  1.250000000E+02  0.00000E+00  9.000E+00
      25     1     1     2     0     0 -9.940829356E+01  9.804369015E+00  2.172615310E+00  1.600245442E+02  1.250000000E+02  0.00000E+00  9.000E+00
      21     1     1     2   501   512  1.245706101E+01  4.893768142E+01  3.454435568E+01  6.118322925E+01  1.066240300E-06  0.00000E+00  9.000E+00
#rwgt            1           1   4.3790156362382940E-002           3      153560           0
</event>
<event>
      5   9999  3.79277E-02  3.81126E+01 -1.00000E+00  1.46154E-01
      21    -1     0     0   511   501  0.000000000E+00  0.000000000E+00  1.120108083E+02  1.120108083E+02  0.000000000E+00  0.00000E+00  9.000E+00
      21    -1     0     0   501   502  0.000000000E+00  0.000000000E+00 -4.670575891E+02  4.670575891E+02  0.000000000E+00  0.00000E+00  9.000E+00
      25     1     1     2     0     0  1.036650759E+02  1.055863914E+02 -1.378811708E+02  2.377628047E+02  1.250000000E+02  0.00000E+00  9.000E+00
      25     1     1     2     0     0 -1.237062238E+02 -1.380043433E+02 -1.980908292E+02  2.986861316E+02  1.250000000E+02  0.00000E+00  9.000E+00
      21     1     1     2   511   502  2.004114786E+01  3.241795184E+01 -1.907478073E+01  4.261946115E+01  3.371747881E-07  0.00000E+00  9.000E+00
#rwgt            1           1   4.3921026270421756E-002           3      153658           0
</event>
<event>
      5   9999  3.79277E-02  9.21583E+01  7.55638E-03  1.25444E-01
       1    -1     0     0   501     0  0.000000000E+00  0.000000000E+00  1.635464285E+02  1.635464285E+02  0.000000000E+00  0.00000E+00  9.000E+00
      -1    -1     0     0     0   502  0.000000000E+00  0.000000000E+00 -3.247154108E+02  3.247154108E+02  0.000000000E+00  0.00000E+00  9.000E+00
      25     1     1     2     0     0  1.469740908E+00 -9.606367633E+01 -7.641494168E+00  1.578410038E+02  1.250000000E+02  0.00000E+00  9.000E+00
      25     1     1     2     0     0 -8.717767750E+01  1.299355488E+02 -1.000598400E+02  2.238753356E+02  1.250000000E+02  0.00000E+00  9.000E+00
      21     1     1     2   501   502  8.570793659E+01 -3.387187250E+01 -5.346764817E+01  1.065454999E+02  1.168007728E-06  0.00000E+00  9.000E+00
#rwgt            3           6   2.1429705846731688E-005           3      153750           0
</event>
<event>
      5   9999  3.79277E-02  1.02547E+02 -1.00000E+00  1.23339E-01
      21    -1     0     0   511   501  0.000000000E+00  0.000000000E+00  1.202389849E+02  1.202389849E+02  0.000000000E+00  0.00000E+00  9.000E+00
      21    -1     0     0   501   502  0.000000000E+00  0.000000000E+00 -7.451523830E+02  7.451523830E+02  0.000000000E+00  0.00000E+00  9.000E+00
      25     1     1     2     0     0  7.755828865E+01 -1.164298476E+02 -5.891230194E+02  6.182735070E+02  1.250000000E+02  0.00000E+00  9.000E+00
      25     1     1     2     0     0  6.602128029E+00  5.783845424E+01 -4.266500520E+01  1.443404917E+02  1.250000000E+02  0.00000E+00  9.000E+00
      21     1     1     2   511   502 -8.416041668E+01  5.859139340E+01  6.874626545E+00  1.027773691E+02  2.352685256E-06  0.00000E+00  9.000E+00
#rwgt            1           1   3.9654420601556349E-002           3      153964           0
</event>
<event>
      5   9999  3.79277E-02  4.45653E+02 -1.00000E+00  1.00293E-01
       1    -1     0     0   502     0  0.000000000E+00  0.000000000E+00  1.261167140E+03  1.261167140E+03  0.000000000E+00  0.00000E+00  9.000E+00
      21    -1     0     0   501   502  0.000000000E+00  0.000000000E+00 -3.964223237E+02  3.964223237E+02  0.000000000E+00  0.00000E+00  9.000E+00
      25     1     1     2     0     0 -1.521202227E+02  2.237792671E+02  1.041065819E+02  3.157228261E+02  1.250000000E+02  0.00000E+00  9.000E+00
      25     1     1     2     0     0 -1.898871156E+01 -6.352749731E+02  3.518769482E+02  7.371412682E+02  1.250000000E+02  0.00000E+00  9.000E+00
       1     1     1     2   501     0  1.711089342E+02  4.114957060E+02  4.087612864E+02  6.047253697E+02  7.629394531E-06  0.00000E+00  9.000E+00
#rwgt            2          17   5.6915140863516089E-005           3      154133           0
</event>
<event>
      5   9999  3.79277E-02  1.88439E+01 -1.00000E+00  1.68531E-01
      21    -1     0     0   502   511  0.000000000E+00  0.000000000E+00  2.349333736E+02  2.349333736E+02  0.000000000E+00  0.00000E+00  9.000E+00
      21    -1     0     0   501   502  0.000000000E+00  0.000000000E+00 -1.889089966E+02  1.889089966E+02  0.000000000E+00  0.00000E+00  9.000E+00
      25     1     1     2     0     0  8.096062575E+01 -8.972640223E+01  6.103952587E+01  1.842722820E+02  1.250000000E+02  0.00000E+00  9.000E+00
      25     1     1     2     0     0 -7.521519095E+01  7.177975529E+01 -7.327654609E+01  1.783370697E+02  1.250000000E+02  0.00000E+00  9.000E+00
      21     1     1     2   501   511 -5.745434805E+00  1.794664694E+01  5.826139721E+01  6.123301856E+01  6.743495762E-07  0.00000E+00  9.000E+00
#rwgt            1           1   4.7388891424000525E-002           3      154272           0
</event>
<event>
      5   9999  3.79277E-02  3.71564E+01 -1.00000E+00  1.46855E-01
      21    -1     0     0   502   501  0.000000000E+00  0.000000000E+00  4.911785393E+01  4.911785393E+01  0.000000000E+00  0.00000E+00  9.000E+00
      -1    -1     0     0     0   502  0.000000000E+00  0.000000000E+00 -8.268842840E+02  8.268842840E+02  0.000000000E+00  0.00000E+00  9.000E+00
      25     1     1     2     0     0  4.613916878E+01  1.354383435E+02 -4.410362034E+02  4.802190130E+02  1.250000000E+02  0.00000E+00  9.000E+00
      25     1     1     2     0     0 -4.074145985E+01 -9.867614046E+01 -2.295005751E+02  2.822983550E+02  1.250000000E+02  0.00000E+00  9.000E+00
      -1     1     1     2     0   501 -5.397708933E+00 -3.676220299E+01 -1.072296516E+02  1.134847700E+02  0.000000000E+00  0.00000E+00  9.000E+00
#rwgt            1           1   3.7050483412324586E-002           3      154439           0
</event>
<event>
      5   9999  3.79277E-02  2.26843E+01 -1.00000E+00  1.61979E-01
      21    -1     0     0   502   501  0.000000000E+00  0.000000000E+00  3.070324363E+02  3.070324363E+02  0.000000000E+00  0.00000E+00  9.000E+00
      21    -1     0     0   511   502  0.000000000E+00  0.000000000E+00 -3.848780668E+02  3.848780668E+02  0.000000000E+00  0.00000E+00  9.000E+00
      25     1     1     2     0     0 -5.463251472E+01 -2.034169352E+02 -7.505317135E+01  2.561662345E+02  1.250000000E+02  0.00000E+00  9.000E+00
      25     1     1     2     0     0  6.364041092E+01  2.242360125E+02  1.344048648E+02  2.966842747E+02  1.250000000E+02  0.00000E+00  9.000E+00
      21     1     1     2   511   501 -9.007896199E+00 -2.081907727E+01 -1.371973240E+02  1.390599938E+02  2.697398305E-06  0.00000E+00  9.000E+00
#rwgt            1           1   4.7430198445950249E-002           3      154600           0
</event>
<event>
      5   9999  3.79277E-02  1.76073E+01 -1.00000E+00  1.71068E-01
      21    -1     0     0   502   512  0.000000000E+00  0.000000000E+00  2.905617027E+02  2.905617027E+02  0.000000000E+00  0.00000E+00  9.000E+00
      21    -1     0     0   501   502  0.000000000E+00  0.000000000E+00 -2.216932257E+02  2.216932257E+02  0.000000000E+00  0.00000E+00  9.000E+00
      25     1     1     2     0     0  7.645226931E+01  9.302291254E+01 -1.373233398E+02  2.213163153E+02  1.250000000E+02  0.00000E+00  9.000E+00
      25     1     1     2     0     0 -9.213569754E+01 -1.010258383E+02  1.990972536E+02  2.719557375E+02  1.250000000E+02  0.00000E+00  9.000E+00
      21     1     1     2   501   512  1.568342823E+01  8.002925740E+00  7.094563160E+00  1.898287565E+01  1.884864366E-07  0.00000E+00  9.000E+00
#rwgt            1           1   2.4130472490042510E-002           3      154843           0
</event>
<event>
      5   9999  3.79277E-02  7.98221E+01 -1.00000E+00  1.28396E-01
      21    -1     0     0   502   511  0.000000000E+00  0.000000000E+00  3.673393730E+02  3.673393730E+02  0.000000000E+00  0.00000E+00  9.000E+00
      21    -1     0     0   501   502  0.000000000E+00  0.000000000E+00 -1.356368150E+02  1.356368150E+02  0.000000000E+00  0.00000E+00  9.000E+00
      25     1     1     2     0     0  6.187291252E+01 -4.494719966E+01  2.368800659E+02  2.785420501E+02  1.250000000E+02  0.00000E+00  9.000E+00
      25     1     1     2     0     0 -8.416282102E+00 -1.433149711E+01 -4.668554881E+01  1.344647392E+02  1.250000000E+02  0.00000E+00  9.000E+00
      21     1     1     2   501   511 -5.345663042E+01  5.927869677E+01  4.150804086E+01  8.996939859E+01  1.066240300E-06  0.00000E+00  9.000E+00
#rwgt            1           1   4.0177596956267596E-002           3      155150           0
</event>
<event>
      5   9999  3.79277E-02  6.39990E+01 -1.00000E+00  1.33223E-01
      21    -1     0     0   502   501  0.000000000E+00  0.000000000E+00  3.853095678E+02  3.853095678E+02  0.000000000E+00  0.00000E+00  9.000E+00
      21    -1     0     0   501   512  0.000000000E+00  0.000000000E+00 -1.524262747E+02  1.524262747E+02  0.000000000E+00  0.00000E+00  9.000E+00
      25     1     1     2     0     0 -1.088400697E+02 -5.047051923E+01  1.751465045E+02  2.463630089E+02  1.250000000E+02  0.00000E+00  9.000E+00
      25     1     1     2     0     0  1.720166096E+02  6.069779124E+01  5.166580246E+01  2.270865275E+02  1.250000000E+02  0.00000E+00  9.000E+00
      21     1     1     2   502   512 -6.317653983E+01 -1.022727200E+01  6.070986132E+00  6.428630609E+01  1.666799957E-06  0.00000E+00  9.000E+00
#rwgt            1           1   4.3432613220009866E-002           3      155225           0
</event>
<event>
      5   9999  3.79277E-02  5.00795E+01 -1.00000E+00  1.39036E-01
      21    -1     0     0   502   511  0.000000000E+00  0.000000000E+00  3.183435167E+03  3.183435167E+03  0.000000000E+00  0.00000E+00  9.000E+00
      21    -1     0     0   501   502  0.000000000E+00  0.000000000E+00 -1.676465782E+01  1.676465782E+01  0.000000000E+00  0.00000E+00  9.000E+00
      25     1     1     2     0     0 -1.067172411E+02  1.666331711E+01  5.305238440E+02  5.556498760E+02  1.250000000E+02  0.00000E+00  9.000E+00
      25     1     1     2     0     0  7.385499860E+01 -5.445261380E+01  1.697268166E+03  1.704336784E+03  1.250000000E+02  0.00000E+00  9.000E+00
      21     1     1     2   501   511  3.286224247E+01  3.778929670E+01  9.388784990E+02  9.402131641E+02  1.525878906E-05  0.00000E+00  9.000E+00
#rwgt            1           1   7.7792079758410584E-002           3      155412           0
</event>
<event>
      5   9999  3.79277E-02  1.05430E+02 -1.00000E+00  1.22804E-01
      21    -1     0     0   512   501  0.000000000E+00  0.000000000E+00  9.079679064E+02  9.079679064E+02  0.000000000E+00  0.00000E+00  9.000E+00
      21    -1     0     0   501   502  0.000000000E+00  0.000000000E+00 -3.148913550E+02  3.148913550E+02  0.000000000E+00  0.00000E+00  9.000E+00
      25     1     1     2     0     0  8.401594506E+01  1.928631183E+02 -5.401385389E+01  2.505940100E+02  1.250000000E+02  0.00000E+00  9.000E+00
      25     1     1     2     0     0 -2.053316510E+01 -2.770375463E+02 -1.193613578E+01  3.048587940E+02  1.250000000E+02  0.00000E+00  9.000E+00
      21     1     1     2   512   502 -6.348277996E+01  8.417442801E+01  6.590265410E+02  6.674064574E+02  1.525878906E-05  0.00000E+00  9.000E+00
#rwgt            1           1   4.4966279833610755E-002           3      155624           0
</event>
<event>
      5   9999  3.79277E-02  1.87205E+01 -1.00000E+00  1.68773E-01
      21    -1     0     0   502   501  0.000000000E+00  0.000000000E+00  4.095475949E+02  4.095475949E+02  0.000000000E+00  0.00000E+00  9.000E+00
      21    -1     0     0   501   511  0.000000000E+00  0.000000000E+00 -1.997942198E+02  1.997942198E+02  0.000000000E+00  0.00000E+00  9.000E+00
      25     1     1     2     0     0 -2.222779086E+02 -9.258926862E+01  8.487258082E+01  2.842685285E+02  1.250000000E+02  0.00000E+00  9.000E+00
      25     1     1     2     0     0  2.149068521E+02  1.097975866E+02  1.353545354E+02  3.036219942E+02  1.250000000E+02  0.00000E+00  9.000E+00
      21     1     1     2   502   511  7.371056444E+00 -1.720831800E+01 -1.047374106E+01  2.145129211E+01  2.384185791E-07  0.00000E+00  9.000E+00
#rwgt            1           1   4.0500961783346875E-002           3      155851           0
</event>
<event>
      5   9999  3.79277E-02  8.23994E+00 -1.00000E+00  2.06007E-01
       2    -1     0     0   502     0  0.000000000E+00  0.000000000E+00  2.496016412E+02  2.496016412E+02  0.000000000E+00  0.00000E+00  9.000E+00
      21    -1     0     0   501   502  0.000000000E+00  0.000000000E+00 -4.180660157E+02  4.180660157E+02  0.000000000E+00  0.00000E+00  9.000E+00
      25     1     1     2     0     0 -1.204936272E+02  1.455554212E+02 -8.638057968E+01  2.424699969E+02  1.250000000E+02  0.00000E+00  9.000E+00
      25     1     1     2     0     0  1.252221145E+02 -1.388072385E+02 -2.036266938E+02  3.033757700E+02  1.250000000E+02  0.00000E+00  9.000E+00
       2     1     1     2   501     0 -4.728487272E+00 -6.748182734E+00  1.215428991E+02  1.218218900E+02  2.336015456E-06  0.00000E+00  9.000E+00
#rwgt            1           1   3.7895375333566815E-002           3      156053           0
</event>
<event>
      5   9999  3.79277E-02  6.01944E+01 -1.00000E+00  1.34628E-01
      21    -1     0     0   502   511  0.000000000E+00  0.000000000E+00  1.375381822E+02  1.375381822E+02  0.000000000E+00  0.00000E+00  9.000E+00
      21    -1     0     0   501   502  0.000000000E+00  0.000000000E+00 -4.856446031E+02  4.856446031E+02  0.000000000E+00  0.00000E+00  9.000E+00
      25     1     1     2     0     0  9.214239203E+01  4.981173351E+01 -3.364336886E+02  3.738770600E+02  1.250000000E+02  0.00000E+00  9.000E+00
      25     1     1     2     0     0 -1.353789199E+02 -7.931266823E+00  1.153382316E+01  1.847928192E+02  1.250000000E+02  0.00000E+00  9.000E+00
      21     1     1     2   501   511  4.323652788E+01 -4.188046669E+01 -2.320655555E+01  6.451290610E+01  3.371747881E-07  0.00000E+00  9.000E+00
#rwgt            1           1   2.5309631242182218E-002           3      156353           0
</event>
<event>
      5   9999  3.79277E-02  4.85907E+01 -1.00000E+00  1.39788E-01
      21    -1     0     0   502   501  0.000000000E+00  0.000000000E+00  3.974818204E+02  3.974818204E+02  0.000000000E+00  0.00000E+00  9.000E+00
      21    -1     0     0   501   512  0.000000000E+00  0.000000000E+00 -1.648215250E+02  1.648215250E+02  0.000000000E+00  0.00000E+00  9.000E+00
      25     1     1     2     0     0  6.588020454E+01  9.902893208E+01  2.771134048E+02  3.264410665E+02  1.250000000E+02  0.00000E+00  9.000E+00
      25     1     1     2     0     0 -2.890111467E+01 -1.305503533E+02 -3.452173215E+01  1.862670641E+02  1.250000000E+02  0.00000E+00  9.000E+00
      21     1     1     2   502   512 -3.697908987E+01  3.152142123E+01 -9.931377198E+00  4.959521486E+01  7.996802250E-07  0.00000E+00  9.000E+00
#rwgt            1           1   2.4995584817867088E-002           3      156485           0
</event>
<event>
      5   9999  3.79277E-02  1.85609E+02 -1.00000E+00  1.12842E-01
      21    -1     0     0   502   501  0.000000000E+00  0.000000000E+00  2.010149769E+02  2.010149769E+02  0.000000000E+00  0.00000E+00  9.000E+00
       1    -1     0     0   501     0  0.000000000E+00  0.000000000E+00 -1.599313724E+03  1.599313724E+03  0.000000000E+00  0.00000E+00  9.000E+00
      25     1     1     2     0     0  8.473028516E+01 -2.876261961E+02 -5.492320389E+02  6.381135341E+02  1.250000000E+02  0.00000E+00  9.000E+00
      25     1     1     2     0     0 -2.573552191E+02  3.558259031E+02 -2.209246035E+02  5.072242724E+02  1.250000000E+02  0.00000E+00  9.000E+00
       1     1     1     2   502     0  1.726249339E+02 -6.819970705E+01 -6.281421045E+02  6.549908940E+02  0.000000000E+00  0.00000E+00  9.000E+00
#rwgt            1           1   2.3050719074063770E-002           3      156656           0
</event>
<event>
      5   9999  3.79277E-02  1.79955E+01 -1.00000E+00  1.70245E-01
      21    -1     0     0   502   501  0.000000000E+00  0.000000000E+00  1.565407626E+02  1.565407626E+02  0.000000000E+00  0.00000E+00  9.000E+00
      21    -1     0     0   511   502  0.000000000E+00  0.000000000E+00 -2.361178556E+02  2.361178556E+02  0.000000000E+00  0.00000E+00  9.000E+00
      25     1     1     2     0     0 -2.607269343E+01  1.031107391E+01  9.668005594E+01  1.604934167E+02  1.250000000E+02  0.00000E+00  9.000E+00
      25     1     1     2     0     0  4.376816684E+01 -7.038948804E+00 -1.487069652E+02  1.992585274E+02  1.250000000E+02  0.00000E+00  9.000E+00
      21     1     1     2   511   501 -1.769547341E+01 -3.272125104E+00 -2.755018372E+01  3.290667417E+01  5.840038640E-07  0.00000E+00  9.000E+00
#rwgt            1           1   5.5990134124226992E-003           3      156744           0
</event>
<event>
      5   9999  3.79277E-02  2.89112E+01 -1.00000E+00  1.54163E-01
      21    -1     0     0   502   501  0.000000000E+00  0.000000000E+00  4.873575442E+02  4.873575442E+02  0.000000000E+00  0.00000E+00  9.000E+00
      21    -1     0     0   512   502  0.000000000E+00  0.000000000E+00 -1.256120584E+02  1.256120584E+02  0.000000000E+00  0.00000E+00  9.000E+00
      25     1     1     2     0     0 -1.146508500E+02 -6.987284673E+01  3.135616694E+02  3.632808179E+02  1.250000000E+02  0.00000E+00  9.000E+00
      25     1     1     2     0     0  8.755532549E+01  7.995687449E+01  9.343127029E+01  1.959934669E+02  1.250000000E+02  0.00000E+00  9.000E+00
      21     1     1     2   512   501  2.709552455E+01 -1.008402776E+01 -4.524745386E+01  5.369531774E+01  0.000000000E+00  0.00000E+00  9.000E+00
#rwgt            1           1   3.9958716818891467E-002           3      157095           0
</event>
<event>
      5   9999  3.79277E-02  5.27506E+00 -1.00000E+00  2.34523E-01
      21    -1     0     0   502   501  0.000000000E+00  0.000000000E+00  9.580314138E+01  9.580314138E+01  0.000000000E+00  0.00000E+00  9.000E+00
       2    -1     0     0   501     0  0.000000000E+00  0.000000000E+00 -1.416302037E+03  1.416302037E+03  0.000000000E+00  0.00000E+00  9.000E+00
      25     1     1     2     0     0 -3.298532026E+01 -1.075024722E+02 -2.037772522E+01  1.693666572E+02  1.250000000E+02  0.00000E+00  9.000E+00
      25     1     1     2     0     0  2.820924515E+01  1.052629638E+02 -3.014546979E+02  3.440581171E+02  1.250000000E+02  0.00000E+00  9.000E+00
       2     1     1     2   502     0  4.776075108E+00  2.239508390E+00 -9.986664728E+02  9.986804044E+02  0.000000000E+00  0.00000E+00  9.000E+00
#rwgt            1           1   4.2406332675338998E-002           3      157240           0
</event>
<event>
      5   9999  3.79277E-02  7.60210E+01 -1.00000E+00  1.29431E-01
       1    -1     0     0   502     0  0.000000000E+00  0.000000000E+00  1.172394241E+03  1.172394241E+03  0.000000000E+00  0.00000E+00  9.000E+00
      21    -1     0     0   501   502  0.000000000E+00  0.000000000E+00 -1.105432622E+02  1.105432622E+02  0.000000000E+00  0.00000E+00  9.000E+00
      25     1     1     2     0     0 -5.920373931E+00 -5.674073745E+01  3.460413583E+02  3.723226877E+02  1.250000000E+02  0.00000E+00  9.000E+00
      25     1     1     2     0     0  5.589093055E+01 -5.492122060E-01 -4.643651437E+01  1.445871627E+02  1.250000000E+02  0.00000E+00  9.000E+00
       1     1     1     2   501     0 -4.997055662E+01  5.728994966E+01  7.622461349E+02  7.660276530E+02  1.078959322E-05  0.00000E+00  9.000E+00
#rwgt            1           1   4.1987098291250843E-002           3      157585           0
</event>
<event>
      5   9999  3.79277E-02  4.21789E+01 -1.00000E+00  1.43426E-01
       2    -1     0     0   502     0  0.000000000E+00  0.000000000E+00  3.196077144E+03  3.196077144E+03  0.000000000E+00  0.00000E+00  9.000E+00
      21    -1     0     0   501   502  0.000000000E+00  0.000000000E+00 -1.776464459E+02  1.776464459E+02  0.000000000E+00  0.00000E+00  9.000E+00
      25     1     1     2     0     0 -4.389267368E+01  1.108131587E+02 -1.086188019E+01  1.730580925E+02  1.250000000E+02  0.00000E+00  9.000E+00
      25     1     1     2     0     0  7.525646950E+00 -1.321790633E+02  1.135502635E+01  1.824332118E+02  1.250000000E+02  0.00000E+00  9.000E+00
       2     1     1     2   501     0  3.636702673E+01  2.136590458E+01  3.017937552E+03  3.018232285E+03  0.000000000E+00  0.00000E+00  9.000E+00
#rwgt            1           1   4.7762902677309371E-002           3      157668           0
</event>
<event>
      5   9999  3.79277E-02  3.29182E+01 -1.00000E+00  1.50291E-01
      21    -1     0     0   511   501  0.000000000E+00  0.000000000E+00  1.008320546E+03  1.008320546E+03  0.000000000E+00  0.00000E+00  9.000E+00
      21    -1     0     0   501   502  0.000000000E+00  0.000000000E+00 -1.750639926E+03  1.750639926E+03  0.000000000E+00  0.00000E+00  9.000E+00
      25     1     1     2     0     0 -1.383813241E+02 -8.027972375E+01 -8.741121858E+02  8.973802641E+02  1.250000000E+02  0.00000E+00  9.000E+00
      25     1     1     2     0     0  1.711909221E+02  8.295182033E+01 -8.496364664E+02  8.795990344E+02  1.250000000E+02  0.00000E+00  9.000E+00
      21     1     1     2   511   502 -3.280959797E+01 -2.672096582E+00  9.814292721E+02  9.819811739E+02  2.412626389E-05  0.00000E+00  9.000E+00
#rwgt            1           1   2.7773273878216972E-002           3      157813           0
</event>
<event>
      5   9999  3.79277E-02  3.80368E+01 -1.00000E+00  1.46209E-01
      21    -1     0     0   512   501  0.000000000E+00  0.000000000E+00  1.661059151E+02  1.661059151E+02  0.000000000E+00  0.00000E+00  9.000E+00
      21    -1     0     0   501   502  0.000000000E+00  0.000000000E+00 -7.078416775E+02  7.078416775E+02  0.000000000E+00  0.00000E+00  9.000E+00
      25     1     1     2     0     0  1.178247900E+02  2.442099602E+02 -3.724742703E+02  4.773712055E+02  1.250000000E+02  0.00000E+00  9.000E+00
      25     1     1     2     0     0 -8.858660746E+01 -2.685395523E+02 -1.790844536E+02  3.572916452E+02  1.250000000E+02  0.00000E+00  9.000E+00
      21     1     1     2   512   502 -2.923818257E+01  2.432959213E+01  9.822961469E+00  3.928474189E+01  9.233911863E-07  0.00000E+00  9.000E+00
#rwgt            1           1   3.0629226603488761E-002           3      158045           0
</event>
<event>
      5   9999  3.79277E-02  1.34292E+02 -1.00000E+00  1.18330E-01
       2    -1     0     0   502     0  0.000000000E+00  0.000000000E+00  5.404136145E+02  5.404136145E+02  0.000000000E+00  0.00000E+00  9.000E+00
      21    -1     0     0   501   502  0.000000000E+00  0.000000000E+00 -2.106280730E+02  2.106280730E+02  0.000000000E+00  0.00000E+00  9.000E+00
      25     1     1     2     0     0 -1.101068337E+02 -2.597903343E+02  8.824872021E+01  3.209787676E+02  1.250000000E+02  0.00000E+00  9.000E+00
      25     1     1     2     0     0  4.893995079E+00  1.763358340E+02  1.120532286E+02  2.435142780E+02  1.250000000E+02  0.00000E+00  9.000E+00
       2     1     1     2   501     0  1.052128386E+02  8.345450034E+01  1.294835927E+02  1.865486419E+02  2.697398305E-06  0.00000E+00  9.000E+00
#rwgt            1           1   3.5123245144930003E-002           3      158201           0
</event>
<event>
      5   9999  3.79277E-02  1.89009E+02 -1.00000E+00  1.12549E-01
      21    -1     0     0   502   511  0.000000000E+00  0.000000000E+00  4.172119107E+02  4.172119107E+02  0.000000000E+00  0.00000E+00  9.000E+00
      21    -1     0     0   501   502  0.000000000E+00  0.000000000E+00 -8.685910436E+02  8.685910436E+02  0.000000000E+00  0.00000E+00  9.000E+00
      25     1     1     2     0     0  7.802070824E+01  7.284671677E+00 -7.066829636E+01  1.635827175E+02  1.250000000E+02  0.00000E+00  9.000E+00
      25     1     1     2     0     0 -2.668533913E+02 -1.543592706E+01 -6.952397795E+02  7.552697209E+02  1.250000000E+02  0.00000E+00  9.000E+00
      21     1     1     2   501   511  1.888326831E+02  8.151255383E+00  3.145289429E+02  3.669505159E+02  6.607249480E-06  0.00000E+00  9.000E+00
#rwgt            1           1   4.0135841331964239E-002           3      158259           0
</event>
<event>
      5   9999  3.79277E-02  1.42533E+02 -1.00000E+00  1.17279E-01
      21    -1     0     0   502   501  0.000000000E+00  0.000000000E+00  1.305375370E+02  1.305375370E+02  0.000000000E+00  0.00000E+00  9.000E+00
      21    -1     0     0   512   502  0.000000000E+00  0.000000000E+00 -7.710691524E+02  7.710691524E+02  0.000000000E+00  0.00000E+00  9.000E+00
      25     1     1     2     0     0 -2.164012062E+02 -1.363763770E+02 -2.953473321E+02  4.102231647E+02  1.250000000E+02  0.00000E+00  9.000E+00
      25     1     1     2     0     0  8.521879051E+01  8.063755546E+01 -7.754438993E+01  1.881562915E+02  1.250000000E+02  0.00000E+00  9.000E+00
      21     1     1     2   512   501  1.311824157E+02  5.573882151E+01 -2.676398934E+02  3.032272332E+02  0.000000000E+00  0.00000E+00  9.000E+00
#rwgt            2          11   1.8545061429113695E-003           3      158335           0
</event>
<event>
      5   9999  3.79277E-02  2.45905E+01 -1.00000E+00  1.59290E-01
      21    -1     0     0   511   501  0.000000000E+00  0.000000000E+00  1.901876848E+03  1.901876848E+03  0.000000000E+00  0.00000E+00  9.000E+00
      21    -1     0     0   501   502  0.000000000E+00  0.000000000E+00 -5.523814539E+01  5.523814539E+01  0.000000000E+00  0.00000E+00  9.000E+00
      25     1     1     2     0     0 -7.711062521E+01 -6.853397628E+01  1.054441115E+02  1.933556699E+02  1.250000000E+02  0.00000E+00  9.000E+00
      25     1     1     2     0     0  9.639351321E+01  5.327405091E+01  6.112355188E+02  6.335327089E+02  1.250000000E+02  0.00000E+00  9.000E+00
      21     1     1     2   511   502 -1.928288800E+01  1.525992537E+01  1.129959072E+03  1.130226615E+03  1.525878906E-05  0.00000E+00  9.000E+00
#rwgt            1           1   5.3862987298713694E-003           3      158655           0
</event>
<event>
      5   9999  3.79277E-02  1.27450E+01 -1.00000E+00  1.84319E-01
      21    -1     0     0   512   501  0.000000000E+00  0.000000000E+00  5.390748568E+02  5.390748568E+02  0.000000000E+00  0.00000E+00  9.000E+00
      21    -1     0     0   501   502  0.000000000E+00  0.000000000E+00 -3.913332692E+02  3.913332692E+02  0.000000000E+00  0.00000E+00  9.000E+00
      25     1     1     2     0     0  2.776066459E+01  9.691522493E+00 -3.147633951E+02  3.399493713E+02  1.250000000E+02  0.00000E+00  9.000E+00
      25     1     1     2     0     0 -4.015764209E+01 -1.264947724E+01  4.190073083E+00  1.319666708E+02  1.250000000E+02  0.00000E+00  9.000E+00
      21     1     1     2   512   502  1.239697749E+01  2.957954748E+00  4.583149097E+02  4.584920839E+02  5.394796609E-06  0.00000E+00  9.000E+00
#rwgt            1           1   4.6651937411643876E-002           3      158831           0
</event>
<event>
      5   9999  3.79277E-02  6.98035E+01 -1.00000E+00  1.31283E-01
      21    -1     0     0   502   511  0.000000000E+00  0.000000000E+00  5.959650426E+02  5.959650426E+02  0.000000000E+00  0.00000E+00  9.000E+00
      21    -1     0     0   501   502  0.000000000E+00  0.000000000E+00 -5.659790070E+02  5.659790070E+02  0.000000000E+00  0.00000E+00  9.000E+00
      25     1     1     2     0     0 -1.643983187E+02  2.461686782E+02 -1.991671539E+02  3.780454741E+02  1.250000000E+02  0.00000E+00  9.000E+00
      25     1     1     2     0     0  1.035622951E+02 -2.119414638E+02 -2.097332740E+02  3.394957721E+02  1.250000000E+02  0.00000E+00  9.000E+00
      21     1     1     2   501   511  6.083602355E+01 -3.422721439E+01  4.388864634E+02  4.444028034E+02  7.629394531E-06  0.00000E+00  9.000E+00
#rwgt            1           1   3.5178613921065367E-002           3      159160           0
</event>
<event>
      5   9999  3.79277E-02  1.00242E+02 -1.00000E+00  1.23781E-01
      21    -1     0     0   502   501  0.000000000E+00  0.000000000E+00  6.010447271E+02  6.010447271E+02  0.000000000E+00  0.00000E+00  9.000E+00
      21    -1     0     0   512   502  0.000000000E+00  0.000000000E+00 -1.841397825E+02  1.841397825E+02  0.000000000E+00  0.00000E+00  9.000E+00
      25     1     1     2     0     0  2.136817613E+02  4.382635236E+01  3.785944118E+02  4.544660306E+02  1.250000000E+02  0.00000E+00  9.000E+00
      25     1     1     2     0     0 -1.135558620E+02 -3.899951281E+01  1.119508724E+02  2.063344218E+02  1.250000000E+02  0.00000E+00  9.000E+00
      21     1     1     2   512   501 -1.001258993E+02 -4.826839543E+00 -7.364033958E+01  1.243840572E+02  2.697398305E-06  0.00000E+00  9.000E+00
#rwgt            1           1   4.2105474987897420E-002           3      159271           0
</event>
<event>
      5   9999  3.79277E-02  1.77910E+01 -1.00000E+00  1.70675E-01
      21    -1     0     0   502   501  0.000000000E+00  0.000000000E+00  1.390618444E+02  1.390618444E+02  0.000000000E+00  0.00000E+00  9.000E+00
       3    -1     0     0   501     0  0.000000000E+00  0.000000000E+00 -9.086872806E+02  9.086872806E+02  0.000000000E+00  0.00000E+00  9.000E+00
      25     1     1     2     0     0  4.159990553E+01  9.391029423E+01  3.667576686E+01  1.658909503E+02  1.250000000E+02  0.00000E+00  9.000E+00
      25     1     1     2     0     0 -2.381005906E+01 -9.371088466E+01 -1.281137749E+02  2.034374305E+02  1.250000000E+02  0.00000E+00  9.000E+00
       3     1     1     2   502     0 -1.778984647E+01 -1.994095785E-01 -6.781874282E+02  6.784207442E+02  1.321449896E-05  0.00000E+00  9.000E+00
#rwgt            1           1   4.3436368098690663E-002           3      159351           0
</event>
<event>
      5   9999  3.79277E-02  2.59272E+01 -1.00000E+00  1.57575E-01
      21    -1     0     0   502   501  0.000000000E+00  0.000000000E+00  7.456148578E+01  7.456148578E+01  0.000000000E+00  0.00000E+00  9.000E+00
      21    -1     0     0   511   502  0.000000000E+00  0.000000000E+00 -9.976968341E+02  9.976968341E+02  0.000000000E+00  0.00000E+00  9.000E+00
      25     1     1     2     0     0 -2.999846617E+01  7.652831552E+01 -7.861077312E+02  8.002167557E+02  1.250000000E+02  0.00000E+00  9.000E+00
      25     1     1     2     0     0  5.207207316E+01 -6.292778574E+01 -1.820770978E+01  1.504258213E+02  1.250000000E+02  0.00000E+00  9.000E+00
      21     1     1     2   511   501 -2.207360699E+01 -1.360052977E+01 -1.188199074E+02  1.216157429E+02  2.336015456E-06  0.00000E+00  9.000E+00
#rwgt            1           1   4.2897899248501542E-002           3      159522           0
</event>
<event>
      5   9999  3.79277E-02  2.20919E+01 -1.00000E+00  1.62882E-01
       2    -1     0     0   502     0  0.000000000E+00  0.000000000E+00  1.315051230E+03  1.315051230E+03  0.000000000E+00  0.00000E+00  9.000E+00
      21    -1     0     0   501   502  0.000000000E+00  0.000000000E+00 -7.413897726E+01  7.413897726E+01  0.000000000E+00  0.00000E+00  9.000E+00
      25     1     1     2     0     0  1.090676166E+02  2.140538330E+01  4.840811124E+02  5.121654604E+02  1.250000000E+02  0.00000E+00  9.000E+00
      25     1     1     2     0     0 -8.768382862E+01 -2.695375143E+01  4.036272437E+01  1.602158171E+02  1.250000000E+02  0.00000E+00  9.000E+00
       2     1     1     2   501     0 -2.138378798E+01  5.548368131E+00  7.164684158E+02  7.168089297E+02  0.000000000E+00  0.00000E+00  9.000E+00
#rwgt            1           1   4.1834210445707780E-002           3      159637           0
</event>
<event>
      5   9999  3.79277E-02  4.52642E+01 -1.00000E+00  1.41587E-01
      21    -1     0     0   502   511  0.000000000E+00  0.000000000E+00  1.129561448E+03  1.129561448E+03  0.000000000E+00  0.00000E+00  9.000E+00
      21    -1     0     0   501   502  0.000000000E+00  0.000000000E+00 -1.028832519E+03  1.028832519E+03  0.000000000E+00  0.00000E+00  9.000E+00
      25     1     1     2     0     0 -1.183273212E+02  1.116887883E+02 -6.773973038E+02  7.077908219E+02  1.250000000E+02  0.00000E+00  9.000E+00
      25     1     1     2     0     0  1.584210745E+02 -1.326969157E+02 -2.923283439E+02  3.791919948E+02  1.250000000E+02  0.00000E+00  9.000E+00
      21     1     1     2   501   511 -4.009375324E+01  2.100812736E+01  1.070454577E+03  1.071411150E+03  0.000000000E+00  0.00000E+00  9.000E+00
#rwgt            1           1   3.1509393578610517E-002           3      159776           0
</event>
<event>
      5   9999  3.79277E-02  2.80992E+01 -1.00000E+00  1.55041E-01
      21    -1     0     0   502   501  0.000000000E+00  0.000000000E+00  7.467424810E+01  7.467424810E+01  0.000000000E+00  0.00000E+00  9.000E+00
      21    -1     0     0   501   512  0.000000000E+00  0.000000000E+00 -1.367871749E+03  1.367871749E+03  0.000000000E+00  0.00000E+00  9.000E+00
      25     1     1     2     0     0  1.468646948E+02  9.320471243E+01 -2.470544729E+02  3.269820631E+02  1.250000000E+02  0.00000E+00  9.000E+00
      25     1     1     2     0     0 -1.190250070E+02 -9.701497446E+01 -2.499314700E+02  3.188567033E+02  1.250000000E+02  0.00000E+00  9.000E+00
      21     1     1     2   502   512 -2.783968778E+01  3.810262023E+00 -7.962115577E+02  7.967072303E+02  0.000000000E+00  0.00000E+00  9.000E+00
#rwgt            1           1   5.0154852230356067E-002           3      159882           0
</event>
<event>
      5   9999  3.79277E-02  3.73871E+01 -1.00000E+00  1.46683E-01
      21    -1     0     0   511   501  0.000000000E+00  0.000000000E+00  6.269507696E+01  6.269507696E+01  0.000000000E+00  0.00000E+00  9.000E+00
      21    -1     0     0   501   502  0.000000000E+00  0.000000000E+00 -7.351375861E+02  7.351375861E+02  0.000000000E+00  0.00000E+00  9.000E+00
      25     1     1     2     0     0 -6.021111578E+00  1.220787756E+02 -3.715237822E+02  4.106024866E+02  1.250000000E+02  0.00000E+00  9.000E+00
      25     1     1     2     0     0 -2.581945995E-01 -1.589347392E+02 -2.766128725E+02  3.426368328E+02  1.250000000E+02  0.00000E+00  9.000E+00
      21     1     1     2   511   502  6.279306177E+00  3.685596357E+01 -2.430585441E+01  4.459334363E+01  3.371747881E-07  0.00000E+00  9.000E+00
#rwgt            1           1   3.7271685969902359E-002           3      160023           0
</event>
<event>
      5   9999  3.79277E-02  3.73772E+01 -1.00000E+00  1.46691E-01
      21    -1     0     0   502   501  0.000000000E+00  0.000000000E+00  4.127866490E+02  4.127866490E+02  0.000000000E+00  0.00000E+00  9.000E+00
      21    -1     0     0   501   512  0.000000000E+00  0.000000000E+00 -3.309876685E+02  3.309876685E+02  0.000000000E+00  0.00000E+00  9.000E+00
      25     1     1     2     0     0  1.595083665E+02  8.753310426E+01  1.754591051E+02  2.819855686E+02  1.250000000E+02  0.00000E+00  9.000E+00
      25     1     1     2     0     0 -1.639569492E+02 -5.042154378E+01  1.207182402E+02  2.441763846E+02  1.250000000E+02  0.00000E+00  9.000E+00
      21     1     1     2   502   512  4.448582648E+00 -3.711156049E+01 -2.143783648E+02  2.176123643E+02  0.000000000E+00  0.00000E+00  9.000E+00
#rwgt            1           1   1.7566410547041850E-002           3      160131           0
</event>
<event>
      5   9999  3.79277E-02  9.50192E+01 -1.00000E+00  1.24834E-01
       2    -1     0     0   502     0  0.000000000E+00  0.000000000E+00  3.434742224E+02  3.434742224E+02  0.000000000E+00  0.00000E+00  9.000E+00
      21    -1     0     0   501   502  0.000000000E+00  0.000000000E+00 -1.922385544E+03  1.922385544E+03  0.000000000E+00  0.00000E+00  9.000E+00
      25     1     1     2     0     0  2.165751085E+02  2.429112560E+02 -6.268468496E+02  7.172674737E+02  1.250000000E+02  0.00000E+00  9.000E+00
      25     1     1     2     0     0 -1.539027982E+02 -3.143314054E+02 -1.214181441E+03  1.269784185E+03  1.250000000E+02  0.00000E+00  9.000E+00
       2     1     1     2   501     0 -6.267231037E+01  7.142014941E+01  2.621169685E+02  2.788081086E+02  5.394796609E-06  0.00000E+00  9.000E+00
#rwgt            1           1   3.9021652087597461E-002           3      160304           0
</event>
<event>
      5   9999  3.79277E-02  9.63784E+01 -1.00000E+00  1.24553E-01
      21    -1     0     0   502   501  0.000000000E+00  0.000000000E+00  1.066054943E+03  1.066054943E+03  0.000000000E+00  0.00000E+00  9.000E+00
       2    -1     0     0   501     0  0.000000000E+00  0.000000000E+00 -2.102513347E+02  2.102513347E+02  0.000000000E+00  0.00000E+00  9.000E+00
      25     1     1     2     0     0  2.576191394E+01  1.949595369E+02  6.896809302E+02  7.279819247E+02  1.250000000E+02  0.00000E+00  9.000E+00
      25     1     1     2     0     0 -5.874625857E+01 -1.044010712E+02  3.216897906E+02  3.653218142E+02  1.250000000E+02  0.00000E+00  9.000E+00
       2     1     1     2   502     0  3.298434463E+01 -9.055846567E+01 -1.555671125E+02  1.830025387E+02  3.303624740E-06  0.00000E+00  9.000E+00
#rwgt            1           1   3.3484174025819533E-002           3      160401           0
</event>
<event>
      5   9999  3.79277E-02  3.58864E+02 -1.00000E+00  1.03124E-01
      21    -1     0     0   502   501  0.000000000E+00  0.000000000E+00  3.293153035E+02  3.293153035E+02  0.000000000E+00  0.00000E+00  9.000E+00
      21    -1     0     0   501   511  0.000000000E+00  0.000000000E+00 -1.879698642E+03  1.879698642E+03  0.000000000E+00  0.00000E+00  9.000E+00
      25     1     1     2     0     0  4.601817714E+02  1.678067558E+02 -4.912244573E+02  7.048778883E+02  1.250000000E+02  0.00000E+00  9.000E+00
      25     1     1     2     0     0 -1.036600375E+02 -1.268761798E+02  1.421646485E+02  2.503572561E+02  1.250000000E+02  0.00000E+00  9.000E+00
      21     1     1     2   502   511 -3.565217339E+02 -4.093057603E+01 -1.201323530E+03  1.253778801E+03  2.157918644E-05  0.00000E+00  9.000E+00
#rwgt            2          11   4.7964013556355575E-004           3      160782           0
</event>
<event>
      5   9999  3.79277E-02  1.41707E+01 -1.00000E+00  1.79743E-01
      21    -1     0     0   502   501  0.000000000E+00  0.000000000E+00  4.501721174E+01  4.501721174E+01  0.000000000E+00  0.00000E+00  9.000E+00
      21    -1     0     0   512   502  0.000000000E+00  0.000000000E+00 -8.559559028E+02  8.559559028E+02  0.000000000E+00  0.00000E+00  9.000E+00
      25     1     1     2     0     0  1.370736182E+02 -1.609255265E+01 -4.103147239E+02  4.505899685E+02  1.250000000E+02  0.00000E+00  9.000E+00
      25     1     1     2     0     0 -1.350413584E+02  2.068378108E+00 -3.253665221E+02  3.738031840E+02  1.250000000E+02  0.00000E+00  9.000E+00
      21     1     1     2   512   501 -2.032259757E+00  1.402417454E+01 -7.525744508E+01  7.657996208E+01  9.536743164E-07  0.00000E+00  9.000E+00
#rwgt            1           1   4.9276837132603848E-002           3      160832           0
</event>
<event>
      5   9999  3.79277E-02  8.58980E+00 -1.00000E+00  2.03712E-01
      21    -1     0     0   502   501  0.000000000E+00  0.000000000E+00  1.048281711E+02  1.048281711E+02  0.000000000E+00  0.00000E+00  9.000E+00
      21    -1     0     0   501   511  0.000000000E+00  0.000000000E+00 -5.902553052E+02  5.902553052E+02  0.000000000E+00  0.00000E+00  9.000E+00
      25     1     1     2     0     0  4.603053141E+01  1.412048433E+02 -3.294067637E+02  3.823498837E+02  1.250000000E+02  0.00000E+00  9.000E+00
      25     1     1     2     0     0 -5.017051746E+01 -1.487311374E+02 -5.056582127E+01  2.069297812E+02  1.250000000E+02  0.00000E+00  9.000E+00
      21     1     1     2   502   511  4.139986054E+00  7.526294096E+00 -1.054545491E+02  1.058038115E+02  1.907348633E-06  0.00000E+00  9.000E+00
#rwgt            1           1   3.0248261384327006E-002           3      161082           0
</event>
<event>
      5   9999  3.79277E-02  7.72949E+00 -1.00000E+00  2.09643E-01
      21    -1     0     0   512   501  0.000000000E+00  0.000000000E+00  8.285740669E+01  8.285740669E+01  0.000000000E+00  0.00000E+00  9.000E+00
      21    -1     0     0   501   502  0.000000000E+00  0.000000000E+00 -5.272820051E+02  5.272820051E+02  0.000000000E+00  0.00000E+00  9.000E+00
      25     1     1     2     0     0  3.317397290E+01 -9.416700823E+01 -3.327364932E+01  1.634015718E+02  1.250000000E+02  0.00000E+00  9.000E+00
      25     1     1     2     0     0 -3.463333643E+01  8.657653332E+01 -4.103292955E+02  4.389647991E+02  1.250000000E+02  0.00000E+00  9.000E+00
      21     1     1     2   512   502  1.459363535E+00  7.590474907E+00 -8.216536617E-01  7.773040974E+00  1.320246245E-07  0.00000E+00  9.000E+00
#rwgt            1           1   3.4465665720648901E-002           3      161333           0
</event>
<event>
      5   9999  3.79277E-02  1.13895E+02 -1.00000E+00  1.21339E-01
      21    -1     0     0   511   501  0.000000000E+00  0.000000000E+00  8.488307293E+01  8.488307293E+01  0.000000000E+00  0.00000E+00  9.000E+00
      21    -1     0     0   501   502  0.000000000E+00  0.000000000E+00 -9.348627590E+02  9.348627590E+02  0.000000000E+00  0.00000E+00  9.000E+00
      25     1     1     2     0     0 -2.539311654E+01  7.731427810E+01 -1.195081754E+02  1.911269524E+02  1.250000000E+02  0.00000E+00  9.000E+00
      25     1     1     2     0     0  6.293216421E+01 -1.848453466E+02 -6.473561906E+02  6.876214780E+02  1.250000000E+02  0.00000E+00  9.000E+00
      21     1     1     2   511   502 -3.753904767E+01  1.075310685E+02 -8.311532007E+01  1.409974015E+02  3.814697266E-06  0.00000E+00  9.000E+00
#rwgt            1           1   4.1227192584095067E-002           3      161729           0
</event>
<event>
      5   9999  3.79277E-02  4.64078E+01 -1.00000E+00  1.40948E-01
      21    -1     0     0   502   501  0.000000000E+00  0.000000000E+00  8.314848328E+02  8.314848328E+02  0.000000000E+00  0.00000E+00  9.000E+00
      21    -1     0     0   501   512  0.000000000E+00  0.000000000E+00 -7.415431417E+01  7.415431417E+01  0.000000000E+00  0.00000E+00  9.000E+00
      25     1     1     2     0     0 -1.605922951E+02 -5.583740995E+01  1.996484735E+02  2.905033813E+02  1.250000000E+02  0.00000E+00  9.000E+00
      25     1     1     2     0     0  1.159047208E+02  4.331922682E+01  5.356041288E+02  5.637439512E+02  1.250000000E+02  0.00000E+00  9.000E+00
      21     1     1     2   502   512  4.468757427E+01  1.251818313E+01  2.207791638E+01  5.139181447E+01  2.384185791E-07  0.00000E+00  9.000E+00
#rwgt            1           1   4.1052748664833251E-002           3      161767           0
</event>
<event>
      5   9999  3.79277E-02  3.41658E+01 -1.00000E+00  1.49218E-01
      21    -1     0     0   502   501  0.000000000E+00  0.000000000E+00  1.036436530E+03  1.036436530E+03  0.000000000E+00  0.00000E+00  9.000E+00
      21    -1     0     0   501   511  0.000000000E+00  0.000000000E+00 -1.036108113E+02  1.036108113E+02  0.000000000E+00  0.00000E+00  9.000E+00
      25     1     1     2     0     0 -1.565128304E+02 -7.945922776E+01  4.775426215E+01  2.207158909E+02  1.250000000E+02  0.00000E+00  9.000E+00
      25     1     1     2     0     0  1.445784788E+02  4.744555300E+01  8.400001070E+02  8.627741285E+02  1.250000000E+02  0.00000E+00  9.000E+00
      21     1     1     2   502   511  1.193435158E+01  3.201367476E+01  4.507134950E+01  5.655732194E+01  9.536743164E-07  0.00000E+00  9.000E+00
#rwgt            1           1   4.4160921389710339E-002           3      161841           0
</event>
<event>
      5   9999  3.79277E-02  2.50143E+01 -1.00000E+00  1.58732E-01
      21    -1     0     0   502   501  0.000000000E+00  0.000000000E+00  8.020601488E+02  8.020601488E+02  0.000000000E+00  0.00000E+00  9.000E+00
      21    -1     0     0   501   512  0.000000000E+00  0.000000000E+00 -9.337288899E+02  9.337288899E+02  0.000000000E+00  0.00000E+00  9.000E+00
      25     1     1     2     0     0  7.382180362E+01  1.762428785E+02  4.169703582E+02  4.753950889E+02  1.250000000E+02  0.00000E+00  9.000E+00
      25     1     1     2     0     0 -4.939305795E+01 -1.708621005E+02  3.224825318E+02  3.889132485E+02  1.250000000E+02  0.00000E+00  9.000E+00
      21     1     1     2   502   512 -2.442874567E+01 -5.380777933E+00 -8.711216312E+02  8.714807013E+02  1.078959322E-05  0.00000E+00  9.000E+00
#rwgt            1           1   1.6946799188431248E-002           3      161976           0
</event>
<event>
      5   9999  3.79277E-02  8.87782E+01 -1.00000E+00  1.26198E-01
      21    -1     0     0   502   501  0.000000000E+00  0.000000000E+00  5.993892945E+02  5.993892945E+02  0.000000000E+00  0.00000E+00  9.000E+00
      21    -1     0     0   501   511  0.000000000E+00  0.000000000E+00 -2.252724991E+02  2.252724991E+02  0.000000000E+00  0.00000E+00  9.000E+00
      25     1     1     2     0     0 -4.910403662E+01 -2.992505700E+01  4.864249315E+02  5.055105631E+02  1.250000000E+02  0.00000E+00  9.000E+00
      25     1     1     2     0     0  2.951506535E+01  1.165151703E+02  3.231482569E+00  1.734426893E+02  1.250000000E+02  0.00000E+00  9.000E+00
      21     1     1     2   502   511  1.958897128E+01 -8.659011329E+01 -1.155396186E+02  1.457085412E+02  1.907348633E-06  0.00000E+00  9.000E+00
#rwgt            2          11   1.6805858909613189E-003           3      162153           0
</event>
<event>
      5   9999  3.79277E-02  4.00917E+01 -1.00000E+00  1.44778E-01
      21    -1     0     0   502   501  0.000000000E+00  0.000000000E+00  3.146726656E+01  3.146726656E+01  0.000000000E+00  0.00000E+00  9.000E+00
      21    -1     0     0   501   512  0.000000000E+00  0.000000000E+00 -2.087635047E+03  2.087635047E+03  0.000000000E+00  0.00000E+00  9.000E+00
      25     1     1     2     0     0  3.600079834E+01  1.012784210E+02 -1.206456146E+03  1.217667774E+03  1.250000000E+02  0.00000E+00  9.000E+00
      25     1     1     2     0     0  3.709407070E+00 -9.576065682E+01 -2.206690930E+02  2.711156796E+02  1.250000000E+02  0.00000E+00  9.000E+00
      21     1     1     2   502   512 -3.971020540E+01 -5.517764176E+00 -6.290425415E+02  6.303188599E+02  7.629394531E-06  0.00000E+00  9.000E+00
#rwgt            1           1   1.4297567331090721E-002           3      162218           0
</event>
<event>
      5   9999  3.79277E-02  1.89338E+01 -1.00000E+00  1.68356E-01
      21    -1     0     0   502   501  0.000000000E+00  0.000000000E+00  8.173010704E+02  8.173010704E+02  0.000000000E+00  0.00000E+00  9.000E+00
      21    -1     0     0   511   502  0.000000000E+00  0.000000000E+00 -9.801660458E+01  9.801660458E+01  0.000000000E+00  0.00000E+00  9.000E+00
      25     1     1     2     0     0  2.025042876E+02 -6.310788424E+01  2.264135152E+02  3.344826922E+02  1.250000000E+02  0.00000E+00  9.000E+00
      25     1     1     2     0     0 -2.093450043E+02  4.545306398E+01  5.019145651E+02  5.598522506E+02  1.250000000E+02  0.00000E+00  9.000E+00
      21     1     1     2   511   501  6.840716753E+00  1.765482026E+01 -9.043614485E+00  2.098273212E+01  5.196212463E-07  0.00000E+00  9.000E+00
#rwgt            1           1   4.4467588816967211E-002           3      162484           0
</event>
<event>
      5   9999  3.79277E-02  2.02466E+02 -1.00000E+00  1.11455E-01
      21    -1     0     0   502   501  0.000000000E+00  0.000000000E+00  1.335369521E+02  1.335369521E+02  0.000000000E+00  0.00000E+00  9.000E+00
      21    -1     0     0   512   502  0.000000000E+00  0.000000000E+00 -9.991482572E+02  9.991482572E+02  0.000000000E+00  0.00000E+00  9.000E+00
      25     1     1     2     0     0  2.605145351E+01  2.259818741E+02 -6.193655824E+02  6.715543242E+02  1.250000000E+02  0.00000E+00  9.000E+00
      25     1     1     2     0     0 -2.109855708E+01 -2.357609798E+01  1.588132950E+01  1.299161196E+02  1.250000000E+02  0.00000E+00  9.000E+00
      21     1     1     2   512   501 -4.952896428E+00 -2.024057762E+02 -2.621270522E+02  3.312147655E+02  0.000000000E+00  0.00000E+00  9.000E+00
#rwgt            1           1   2.6522577864814517E-002           3      162658           0
</event>
<event>
      5   9999  3.79277E-02  1.51276E+02 -1.00000E+00  1.16248E-01
      21    -1     0     0   502   501  0.000000000E+00  0.000000000E+00  8.930543295E+01  8.930543295E+01  0.000000000E+00  0.00000E+00  9.000E+00
      21    -1     0     0   511   502  0.000000000E+00  0.000000000E+00 -8.572481188E+02  8.572481188E+02  0.000000000E+00  0.00000E+00  9.000E+00
      25     1     1     2     0     0 -1.649139019E+02 -1.576943235E+01 -4.065234432E+02  4.564335438E+02  1.250000000E+02  0.00000E+00  9.000E+00
      25     1     1     2     0     0  1.816009130E+01 -2.094211356E+01 -3.878621675E+01  1.337824041E+02  1.250000000E+02  0.00000E+00  9.000E+00
      21     1     1     2   511   501  1.467538106E+02  3.671154590E+01 -3.226330259E+02  3.563376039E+02  6.607249480E-06  0.00000E+00  9.000E+00
#rwgt            1           1   3.7468951013280835E-002           3      162690           0
</event>
<event>
      5   9999  3.79277E-02  6.58083E+01 -1.00000E+00  1.32593E-01
      21    -1     0     0   502   512  0.000000000E+00  0.000000000E+00  1.362487309E+02  1.362487309E+02  0.000000000E+00  0.00000E+00  9.000E+00
      21    -1     0     0   501   502  0.000000000E+00  0.000000000E+00 -6.778792447E+02  6.778792447E+02  0.000000000E+00  0.00000E+00  9.000E+00
      25     1     1     2     0     0  1.646134852E+02 -4.602825054E+01 -4.927622190E+02  5.363355329E+02  1.250000000E+02  0.00000E+00  9.000E+00
      25     1     1     2     0     0 -1.623999956E+02 -1.974276863E+01 -2.332924406E+01  2.072022903E+02  1.250000000E+02  0.00000E+00  9.000E+00
      21     1     1     2   501   512 -2.213489524E+00  6.577101918E+01 -2.553905077E+01  7.059015238E+01  8.259061849E-07  0.00000E+00  9.000E+00
#rwgt            2          11   3.2750397159910069E-003           3      162792           0
</event>
<event>
      5   9999  3.79277E-02  2.60112E+01 -1.00000E+00  1.57472E-01
      21    -1     0     0   502   501  0.000000000E+00  0.000000000E+00  1.789281454E+03  1.789281454E+03  0.000000000E+00  0.00000E+00  9.000E+00
      21    -1     0     0   501   511  0.000000000E+00  0.000000000E+00 -3.691015920E+01  3.691015920E+01  0.000000000E+00  0.00000E+00  9.000E+00
      25     1     1     2     0     0  2.308727758E+01 -1.040340740E+02  2.419923828E+02  2.924746558E+02  1.250000000E+02  0.00000E+00  9.000E+00
      25     1     1     2     0     0  2.454886996E+00  1.089514942E+02  1.493567419E+03  1.502745850E+03  1.250000000E+02  0.00000E+00  9.000E+00
      21     1     1     2   502   511 -2.554216458E+01 -4.917420239E+00  1.681149279E+01  3.097110723E+01  3.371747881E-07  0.00000E+00  9.000E+00
#rwgt            1           1   4.1377820405148813E-002           3      162992           0
</event>
<event>
      5   9999  3.79277E-02  9.49653E+01 -1.00000E+00  1.24845E-01
      21    -1     0     0   502   501  0.000000000E+00  0.000000000E+00  6.062113758E+02  6.062113758E+02  0.000000000E+00  0.00000E+00  9.000E+00
       1    -1     0     0   501     0  0.000000000E+00  0.000000000E+00 -5.553332347E+02  5.553332347E+02  0.000000000E+00  0.00000E+00  9.000E+00
      25     1     1     2     0     0 -1.380243508E+02  1.894522523E+01  4.789250734E+02  5.142021673E+02  1.250000000E+02  0.00000E+00  9.000E+00
      25     1     1     2     0     0  1.093617159E+02  7.159132725E+01  2.666919870E+01  1.828156153E+02  1.250000000E+02  0.00000E+00  9.000E+00
       1     1     1     2   502     0  2.866263488E+01 -9.053655248E+01 -4.547161310E+02  4.645268278E+02  5.394796609E-06  0.00000E+00  9.000E+00
#rwgt            1           1   4.6446015745852991E-002           3      163106           0
</event>
<event>
      5   9999  3.79277E-02  3.65969E+01 -1.00000E+00  1.47276E-01
      21    -1     0     0   511   501  0.000000000E+00  0.000000000E+00  3.798272776E+02  3.798272776E+02  0.000000000E+00  0.00000E+00  9.000E+00
      21    -1     0     0   501   502  0.000000000E+00  0.000000000E+00 -1.295042051E+02  1.295042051E+02  0.000000000E+00  0.00000E+00  9.000E+00
      25     1     1     2     0     0 -3.872163400E+01  7.304849661E+01  2.432904305E+02  2.857458335E+02  1.250000000E+02  0.00000E+00  9.000E+00
      25     1     1     2     0     0  7.176197714E+00 -9.160161956E+01 -4.356743568E+01  1.611380649E+02  1.250000000E+02  0.00000E+00  9.000E+00
      21     1     1     2   511   502  3.154543629E+01  1.855312295E+01  5.060007760E+01  6.244758422E+01  6.743495762E-07  0.00000E+00  9.000E+00
#rwgt            1           1   4.1803052740283418E-002           3      163200           0
</event>
<event>
      5   9999  3.79277E-02  2.84887E+01 -1.00000E+00  1.54616E-01
      21    -1     0     0   512   501  0.000000000E+00  0.000000000E+00  3.675905188E+02  3.675905188E+02  0.000000000E+00  0.00000E+00  9.000E+00
      21    -1     0     0   501   502  0.000000000E+00  0.000000000E+00 -2.006369074E+02  2.006369074E+02  0.000000000E+00  0.00000E+00  9.000E+00
      25     1     1     2     0     0 -1.851194051E+01 -1.401060981E+02 -1.024136981E+02  2.146764454E+02  1.250000000E+02  0.00000E+00  9.000E+00
      25     1     1     2     0     0 -9.947291136E+00  1.414011087E+02  1.848560345E+02  2.643671228E+02  1.250000000E+02  0.00000E+00  9.000E+00
      21     1     1     2   512   502  2.845923165E+01 -1.295010586E+00  8.451127504E+01  8.918385800E+01  1.348699152E-06  0.00000E+00  9.000E+00
#rwgt            1           1   4.1610580149606231E-002           3      163320           0
</event>
<event>
      5   9999  3.79277E-02  5.63485E+01 -1.00000E+00  1.36177E-01
      21    -1     0     0   502   501  0.000000000E+00  0.000000000E+00  1.092628837E+03  1.092628837E+03  0.000000000E+00  0.00000E+00  9.000E+00
      -4    -1     0     0     0   502  0.000000000E+00  0.000000000E+00 -4.761999444E+01  4.761999444E+01  0.000000000E+00  0.00000E+00  9.000E+00
      25     1     1     2     0     0  3.030593556E+01 -1.443122419E+02  6.077257215E+02  6.377303705E+02  1.250000000E+02  0.00000E+00  9.000E+00
      25     1     1     2     0     0 -7.634406774E+01  1.118216023E+02  3.791425456E+02  4.215525558E+02  1.250000000E+02  0.00000E+00  9.000E+00
      -4     1     1     2     0   501  4.603813218E+01  3.249063966E+01  5.814057549E+01  8.096590516E+01  9.536743164E-07  0.00000E+00  9.000E+00
#rwgt            1           1   3.3780777659057758E-002           3      163497           0
</event>
<event>
      5   9999  3.79277E-02  1.01051E+01 -1.00000E+00  1.95234E-01
      21    -1     0     0   502   501  0.000000000E+00  0.000000000E+00  1.723531801E+03  1.723531801E+03  0.000000000E+00  0.00000E+00  9.000E+00
      21    -1     0     0   511   502  0.000000000E+00  0.000000000E+00 -1.675061061E+02  1.675061061E+02  0.000000000E+00  0.00000E+00  9.000E+00
      25     1     1     2     0     0  1.621365253E+02  2.199111143E+02  7.284242628E+02  7.879568882E+02  1.250000000E+02  0.00000E+00  9.000E+00
      25     1     1     2     0     0 -1.589942884E+02 -2.295152082E+02  9.408753382E+02  9.893572744E+02  1.250000000E+02  0.00000E+00  9.000E+00
      21     1     1     2   511   501 -3.142236952E+00  9.604093897E+00 -1.132739060E+02  1.137237445E+02  3.303624740E-06  0.00000E+00  9.000E+00
#rwgt            1           1   4.0213186133902672E-002           3      163626           0
</event>
<event>
      5   9999  3.79277E-02  1.27594E+02 -1.00000E+00  1.19248E-01
      21    -1     0     0   502   501  0.000000000E+00  0.000000000E+00  1.947085112E+02  1.947085112E+02  0.000000000E+00  0.00000E+00  9.000E+00
      21    -1     0     0   512   502  0.000000000E+00  0.000000000E+00 -5.380420091E+02  5.380420091E+02  0.000000000E+00  0.00000E+00  9.000E+00
      25     1     1     2     0     0  1.230455457E+02 -1.299260753E+02  4.429280770E+01  2.227281845E+02  1.250000000E+02  0.00000E+00  9.000E+00
      25     1     1     2     0     0  3.943587511E+00  1.175192129E+02 -1.082873578E+02  2.029223229E+02  1.250000000E+02  0.00000E+00  9.000E+00
      21     1     1     2   512   501 -1.269891332E+02  1.240686242E+01 -2.793389478E+02  3.071000129E+02  5.394796609E-06  0.00000E+00  9.000E+00
#rwgt            1           1   2.9454489573483757E-002           3      163891           0
</event>
<event>
      5   9999  3.79277E-02  1.71318E+01 -1.00000E+00  1.72114E-01
      21    -1     0     0   502   501  0.000000000E+00  0.000000000E+00  7.094478038E+02  7.094478038E+02  0.000000000E+00  0.00000E+00  9.000E+00
      21    -1     0     0   511   502  0.000000000E+00  0.000000000E+00 -1.341973627E+02  1.341973627E+02  0.000000000E+00  0.00000E+00  9.000E+00
      25     1     1     2     0     0 -3.677484984E+00 -2.577829510E+02  4.161905693E+02  5.052773136E+02  1.250000000E+02  0.00000E+00  9.000E+00
      25     1     1     2     0     0 -1.171031034E+01  2.502519552E+02  1.573128251E+02  3.211471585E+02  1.250000000E+02  0.00000E+00  9.000E+00
      21     1     1     2   511   501  1.538779532E+01  7.530995771E+00  1.747046708E+00  1.722069436E+01  4.292982903E-07  0.00000E+00  9.000E+00
#rwgt            1           1   1.9388462309596805E-002           3      164002           0
</event>
<event>
      5   9999  3.79277E-02  5.86568E+01 -1.00000E+00  1.35231E-01
      21    -1     0     0   502   501  0.000000000E+00  0.000000000E+00  2.451205332E+02  2.451205332E+02  0.000000000E+00  0.00000E+00  9.000E+00
      21    -1     0     0   512   502  0.000000000E+00  0.000000000E+00 -2.890776235E+02  2.890776235E+02  0.000000000E+00  0.00000E+00  9.000E+00
      25     1     1     2     0     0  1.566069536E+02 -8.735570789E+01 -4.855229143E+01  2.239175799E+02  1.250000000E+02  0.00000E+00  9.000E+00
      25     1     1     2     0     0 -2.087423537E+02  6.047607996E+01  1.288293255E+01  2.510412246E+02  1.250000000E+02  0.00000E+00  9.000E+00
      21     1     1     2   512   501  5.213540019E+01  2.687962793E+01 -8.287731418E+00  5.923935214E+01  8.172577143E-07  0.00000E+00  9.000E+00
#rwgt            1           1   1.8700560162661271E-002           3      164273           0
</event>
<event>
      5   9999  3.79277E-02  5.43195E+01 -1.00000E+00  1.37053E-01
      21    -1     0     0   502   511  0.000000000E+00  0.000000000E+00  9.555834018E+01  9.555834018E+01  0.000000000E+00  0.00000E+00  9.000E+00
      21    -1     0     0   501   502  0.000000000E+00  0.000000000E+00 -1.163347439E+03  1.163347439E+03  0.000000000E+00  0.00000E+00  9.000E+00
      25     1     1     2     0     0  7.223985384E+01  7.399048290E+00 -1.037125323E+03  1.047151984E+03  1.250000000E+02  0.00000E+00  9.000E+00
      25     1     1     2     0     0 -6.684049500E+01  4.665145774E+01  3.010562547E-01  1.492283516E+02  1.250000000E+02  0.00000E+00  9.000E+00
      21     1     1     2   501   511 -5.399358841E+00 -5.405050603E+01 -3.096483254E+01  6.252544388E+01  1.430511475E-06  0.00000E+00  9.000E+00
#rwgt            1           1   5.5378537029193937E-002           3      164362           0
</event>
<event>
      5   9999  3.79277E-02  1.08228E+01 -1.00000E+00  1.91869E-01
      21    -1     0     0   512   501  0.000000000E+00  0.000000000E+00  1.536571607E+03  1.536571607E+03  0.000000000E+00  0.00000E+00  9.000E+00
      21    -1     0     0   501   502  0.000000000E+00  0.000000000E+00 -9.441084490E+01  9.441084490E+01  0.000000000E+00  0.00000E+00  9.000E+00
      25     1     1     2     0     0 -1.705135341E+02  5.417199507E+01  3.392052647E+02  4.033542883E+02  1.250000000E+02  0.00000E+00  9.000E+00
      25     1     1     2     0     0  1.698668333E+02 -6.497550600E+01  1.331062115E+02  2.577184917E+02  1.250000000E+02  0.00000E+00  9.000E+00
      21     1     1     2   512   502  6.467007302E-01  1.080351093E+01  9.698492855E+02  9.699096714E+02  1.868812365E-05  0.00000E+00  9.000E+00
#rwgt            1           1   4.3812425382847228E-002           3      164521           0
</event>
<event>
      5   9999  3.79277E-02  2.47482E+01 -1.00000E+00  1.59081E-01
      21    -1     0     0   502   501  0.000000000E+00  0.000000000E+00  7.410456395E+02  7.410456395E+02  0.000000000E+00  0.00000E+00  9.000E+00
      21    -1     0     0   511   502  0.000000000E+00  0.000000000E+00 -4.136236854E+01  4.136236854E+01  0.000000000E+00  0.00000E+00  9.000E+00
      25     1     1     2     0     0  2.622349600E-02  5.589791961E+01  5.252519348E+02  5.428067549E+02  1.250000000E+02  0.00000E+00  9.000E+00
      25     1     1     2     0     0  2.470485625E+01 -5.681847742E+01  1.476345816E+02  2.031246883E+02  1.250000000E+02  0.00000E+00  9.000E+00
      21     1     1     2   511   501 -2.473107975E+01  9.205578144E-01  2.679675450E+01  3.647656486E+01  0.000000000E+00  0.00000E+00  9.000E+00
#rwgt            1           1   6.9863874083904251E-002           3      164747           0
</event>
<event>
      5   9999  3.79277E-02  1.00738E+02 -1.00000E+00  1.23685E-01
      21    -1     0     0   502   501  0.000000000E+00  0.000000000E+00  8.916571576E+02  8.916571576E+02  0.000000000E+00  0.00000E+00  9.000E+00
      21    -1     0     0   501   512  0.000000000E+00  0.000000000E+00 -1.734389781E+02  1.734389781E+02  0.000000000E+00  0.00000E+00  9.000E+00
      25     1     1     2     0     0 -1.112935171E+02 -1.420809056E+02  7.693642739E+02  8.000747569E+02  1.250000000E+02  0.00000E+00  9.000E+00
      25     1     1     2     0     0  5.684343570E+01  5.732679719E+01  6.519504660E+00  1.489464394E+02  1.250000000E+02  0.00000E+00  9.000E+00
      21     1     1     2   502   512  5.445008142E+01  8.475410840E+01 -5.766559905E+01  1.160749395E+02  9.536743164E-07  0.00000E+00  9.000E+00
#rwgt            1           1   3.4460972271711708E-002           3      164882           0
</event>
<event>
      5   9999  3.79277E-02  1.12332E+02 -1.00000E+00  1.21598E-01
      -1    -1     0     0     0   501  0.000000000E+00  0.000000000E+00  2.334792995E+02  2.334792995E+02  0.000000000E+00  0.00000E+00  9.000E+00
      21    -1     0     0   501   502  0.000000000E+00  0.000000000E+00 -3.929100095E+02  3.929100095E+02  0.000000000E+00  0.00000E+00  9.000E+00
      25     1     1     2     0     0  5.476274282E+01  1.719765942E+02 -1.199918248E+02  2.501958133E+02  1.250000000E+02  0.00000E+00  9.000E+00
      25     1     1     2     0     0  5.323227552E+01 -1.410659844E+02 -1.272946421E+02  2.335855582E+02  1.250000000E+02  0.00000E+00  9.000E+00
      -1     1     1     2     0   502 -1.079950183E+02 -3.091060982E+01  8.785575694E+01  1.426079374E+02  3.015782986E-06  0.00000E+00  9.000E+00
#rwgt            1           1   3.6087750737098981E-002           3      164967           0
</event>
<event>
      5   9999  3.79277E-02  4.35566E+01 -1.00000E+00  1.42583E-01
       2    -1     0     0   502     0  0.000000000E+00  0.000000000E+00  2.479582872E+03  2.479582872E+03  0.000000000E+00  0.00000E+00  9.000E+00
      21    -1     0     0   501   502  0.000000000E+00  0.000000000E+00 -2.296880912E+02  2.296880912E+02  0.000000000E+00  0.00000E+00  9.000E+00
      25     1     1     2     0     0 -7.024994116E+01  1.666556542E+02  1.146242169E+02  2.479372348E+02  1.250000000E+02  0.00000E+00  9.000E+00
      25     1     1     2     0     0  3.697344486E+01 -1.947599342E+02 -7.848440989E+01  2.471502988E+02  1.250000000E+02  0.00000E+00  9.000E+00
       2     1     1     2   501     0  3.327649630E+01  2.810428000E+01  2.213754974E+03  2.214183430E+03  0.000000000E+00  0.00000E+00  9.000E+00
#rwgt            1           1   3.1533901008155479E-002           3      165024           0
</event>
<event>
      5   9999  3.79277E-02  3.64372E+01 -1.00000E+00  1.47398E-01
      21    -1     0     0   511   501  0.000000000E+00  0.000000000E+00  3.305320987E+01  3.305320987E+01  0.000000000E+00  0.00000E+00  9.000E+00
      21    -1     0     0   501   502  0.000000000E+00  0.000000000E+00 -1.466460376E+03  1.466460376E+03  0.000000000E+00  0.00000E+00  9.000E+00
      25     1     1     2     0     0 -1.270285484E+02 -6.583231312E+01 -9.418566058E+02  9.608272537E+02  1.250000000E+02  0.00000E+00  9.000E+00
      25     1     1     2     0     0  1.298753967E+02  2.950653960E+01 -3.862896683E+02  4.272972763E+02  1.250000000E+02  0.00000E+00  9.000E+00
      21     1     1     2   511   502 -2.846848273E+00  3.632577352E+01 -1.052608921E+02  1.113890559E+02  1.348699152E-06  0.00000E+00  9.000E+00
#rwgt            1           1   2.8166126235791279E-002           3      165186           0
</event>
<event>
      5   9999  4.33979E-02  7.20858E+01 -1.00000E+00  1.30578E-01
      21    -1     0     0   502   512  0.000000000E+00  0.000000000E+00  2.191236366E+02  2.191236366E+02  0.000000000E+00  0.00000E+00  9.000E+00
      21    -1     0     0   501   502  0.000000000E+00  0.000000000E+00 -9.658208762E+02  9.658208762E+02  0.000000000E+00  0.00000E+00  9.000E+00
      25     1     1     2     0     0 -3.835016657E+02  2.520938911E+01 -5.025248906E+02  6.448761948E+02  1.250000000E+02  0.00000E+00  9.000E+00
      25     1     1     2     0     0  3.554836532E+02 -9.162737173E+01 -2.591798561E+02  4.664369204E+02  1.250000000E+02  0.00000E+00  9.000E+00
      21     1     1     2   501   512  2.801801258E+01  6.641798262E+01  1.500750710E+01  7.363139761E+01  1.294944345E-06  0.00000E+00  9.000E+00
#rwgt            1           1  0.45277374529210146                3      165324           0
</event>
<event>
      5   9999  3.79277E-02  4.05655E+01 -1.00000E+00  1.44463E-01
      21    -1     0     0   502   511  0.000000000E+00  0.000000000E+00  5.103172485E+02  5.103172485E+02  0.000000000E+00  0.00000E+00  9.000E+00
      21    -1     0     0   501   502  0.000000000E+00  0.000000000E+00 -3.469740122E+02  3.469740122E+02  0.000000000E+00  0.00000E+00  9.000E+00
      25     1     1     2     0     0  1.926431517E+02  3.904924622E+00 -9.294834443E+00  2.298652350E+02  1.250000000E+02  0.00000E+00  9.000E+00
      25     1     1     2     0     0 -2.217120524E+02  2.438917729E+01 -1.538645504E+02  2.984130795E+02  1.250000000E+02  0.00000E+00  9.000E+00
      21     1     1     2   501   511  2.906890068E+01 -2.829410192E+01  3.265026211E+02  3.290129462E+02  3.814697266E-06  0.00000E+00  9.000E+00
#rwgt            1           1   3.7420335078524936E-002           3      165425           0
</event>
<event>
      5   9999  3.79277E-02  1.69337E+01 -1.00000E+00  1.72562E-01
       2    -1     0     0   502     0  0.000000000E+00  0.000000000E+00  1.316782975E+03  1.316782975E+03  0.000000000E+00  0.00000E+00  9.000E+00
      21    -1     0     0   501   502  0.000000000E+00  0.000000000E+00 -1.085733598E+02  1.085733598E+02  0.000000000E+00  0.00000E+00  9.000E+00
      25     1     1     2     0     0  8.069073335E+01 -3.598315705E+00  2.491763435E+02  2.902374760E+02  1.250000000E+02  0.00000E+00  9.000E+00
      25     1     1     2     0     0 -6.770854509E+01  1.447089272E+01 -2.994262854E+01  1.459979959E+02  1.250000000E+02  0.00000E+00  9.000E+00
       2     1     1     2   501     0 -1.298218826E+01 -1.087257701E+01  9.889759000E+02  9.891208627E+02  1.525878906E-05  0.00000E+00  9.000E+00
#rwgt            1           1   3.9742039818701808E-002           3      165531           0
</event>
<event>
      5   9999 -3.79277E-02  1.06498E+01 -1.00000E+00  1.92649E-01
      21    -1     0     0   502   501  0.000000000E+00  0.000000000E+00  9.459822277E+02  9.459822277E+02  0.000000000E+00  0.00000E+00  9.000E+00
      21    -1     0     0   501   511  0.000000000E+00  0.000000000E+00 -4.346731322E+01  4.346731322E+01  0.000000000E+00  0.00000E+00  9.000E+00
      25     1     1     2     0     0 -8.088494082E+01 -6.863238985E+01  1.718792049E+02  2.375294501E+02  1.250000000E+02  0.00000E+00  9.000E+00
      25     1     1     2     0     0  8.039903974E+01  5.799367348E+01  7.174334352E+02  7.349578258E+02  1.250000000E+02  0.00000E+00  9.000E+00
      21     1     1     2   502   511  4.859010880E-01  1.063871637E+01  1.320227442E+01  1.696226505E+01  3.769728732E-07  0.00000E+00  9.000E+00
#rwgt            1           1  -2.2174078134384892E-002           3      165663           0
</event>
<event>
      5   9999  3.79277E-02  1.82209E+01 -1.00000E+00  1.69778E-01
      21    -1     0     0   502   501  0.000000000E+00  0.000000000E+00  2.286672479E+02  2.286672479E+02  0.000000000E+00  0.00000E+00  9.000E+00
      21    -1     0     0   512   502  0.000000000E+00  0.000000000E+00 -3.716555280E+03  3.716555280E+03  0.000000000E+00  0.00000E+00  9.000E+00
      25     1     1     2     0     0  3.446609064E+02  1.466980148E+02 -4.537632323E+02  6.015293168E+02  1.250000000E+02  0.00000E+00  9.000E+00
      25     1     1     2     0     0 -3.527652400E+02 -1.303786878E+02 -9.897735207E+01  4.084892080E+02  1.250000000E+02  0.00000E+00  9.000E+00
      21     1     1     2   512   501  8.104333633E+00 -1.631932704E+01 -2.935147447E+03  2.935204003E+03  4.315837288E-05  0.00000E+00  9.000E+00
#rwgt            1           1   3.3458354156015953E-002           3      165941           0
</event>
<event>
      5   9999  3.79277E-02  6.58671E+01 -1.00000E+00  1.32573E-01
      21    -1     0     0   502   501  0.000000000E+00  0.000000000E+00  5.865013689E+02  5.865013689E+02  0.000000000E+00  0.00000E+00  9.000E+00
      21    -1     0     0   511   502  0.000000000E+00  0.000000000E+00 -1.847704975E+02  1.847704975E+02  0.000000000E+00  0.00000E+00  9.000E+00
      25     1     1     2     0     0  3.150816744E+01  2.266459383E+02  2.534516187E+02  3.636260015E+02  1.250000000E+02  0.00000E+00  9.000E+00
      25     1     1     2     0     0  2.850495267E+01 -2.537918495E+02  1.779216102E+02  3.354160619E+02  1.250000000E+02  0.00000E+00  9.000E+00
      21     1     1     2   511   501 -6.001312012E+01  2.714591120E+01 -2.964235755E+01  7.222980300E+01  1.118282261E-06  0.00000E+00  9.000E+00
#rwgt            1           1   2.9300486557009914E-002           3      166247           0
</event>
<event>
      5   9999  3.79277E-02  1.75596E+01 -1.00000E+00  1.71171E-01
      21    -1     0     0   502   501  0.000000000E+00  0.000000000E+00  1.157444487E+02  1.157444487E+02  0.000000000E+00  0.00000E+00  9.000E+00
       1    -1     0     0   501     0  0.000000000E+00  0.000000000E+00 -2.672952793E+03  2.672952793E+03  0.000000000E+00  0.00000E+00  9.000E+00
      25     1     1     2     0     0 -7.134051341E+01 -7.713636279E+00  4.816246893E+01  1.519657608E+02  1.250000000E+02  0.00000E+00  9.000E+00
      25     1     1     2     0     0  7.532781251E+01  2.481449536E+01 -3.345148885E+02  3.658076669E+02  1.250000000E+02  0.00000E+00  9.000E+00
       1     1     1     2   502     0 -3.987299103E+00 -1.710085908E+01 -2.270855925E+03  2.270923814E+03  3.051757812E-05  0.00000E+00  9.000E+00
#rwgt            1           1   3.7094344248156511E-002           3      166442           0
</event>
<event>
      5   9999  3.79277E-02  3.19959E+01 -1.00000E+00  1.51122E-01
      21    -1     0     0   502   501  0.000000000E+00  0.000000000E+00  1.878721591E+02  1.878721591E+02  0.000000000E+00  0.00000E+00  9.000E+00
      21    -1     0     0   511   502  0.000000000E+00  0.000000000E+00 -3.654683793E+02  3.654683793E+02  0.000000000E+00  0.00000E+00  9.000E+00
      25     1     1     2     0     0  1.289521419E+02  1.444781406E+02 -1.865865305E+02  2.965503690E+02  1.250000000E+02  0.00000E+00  9.000E+00
      25     1     1     2     0     0 -1.341399325E+02 -1.129056441E+02  3.156878023E+01  2.176299470E+02  1.250000000E+02  0.00000E+00  9.000E+00
      21     1     1     2   511   501  5.187790675E+00 -3.157249657E+01 -2.257846986E+01  3.916022233E+01  8.259061849E-07  0.00000E+00  9.000E+00
#rwgt            2          11   2.9891260388251783E-003           3      166620           0
</event>
<event>
      5   9999  3.79277E-02  6.55365E+01 -1.00000E+00  1.32686E-01
      21    -1     0     0   512   501  0.000000000E+00  0.000000000E+00  1.727045015E+02  1.727045015E+02  0.000000000E+00  0.00000E+00  9.000E+00
      21    -1     0     0   501   502  0.000000000E+00  0.000000000E+00 -4.988811839E+02  4.988811839E+02  0.000000000E+00  0.00000E+00  9.000E+00
      25     1     1     2     0     0 -2.454415315E+02  6.593635885E+01 -1.785147458E+02  3.347859962E+02  1.250000000E+02  0.00000E+00  9.000E+00
      25     1     1     2     0     0  1.807271535E+02 -5.558821285E+01 -1.489933545E+02  2.712496509E+02  1.250000000E+02  0.00000E+00  9.000E+00
      21     1     1     2   512   502  6.471437801E+01 -1.034814600E+01  1.331417937E+00  6.555003830E+01  6.928639375E-07  0.00000E+00  9.000E+00
#rwgt            1           1   3.4044833403208172E-002           3      166715           0
</event>
<event>
      5   9999  3.79277E-02  5.26721E+01 -1.00000E+00  1.37798E-01
      21    -1     0     0   502   511  0.000000000E+00  0.000000000E+00  2.061672611E+02  2.061672611E+02  0.000000000E+00  0.00000E+00  9.000E+00
      21    -1     0     0   501   502  0.000000000E+00  0.000000000E+00 -1.907268034E+02  1.907268034E+02  0.000000000E+00  0.00000E+00  9.000E+00
      25     1     1     2     0     0  1.005424208E+02  9.498035030E+01  9.632865485E+00  1.866757548E+02  1.250000000E+02  0.00000E+00  9.000E+00
      25     1     1     2     0     0 -6.008190771E+01 -6.125658684E+01 -1.749587379E+01  1.526214620E+02  1.250000000E+02  0.00000E+00  9.000E+00
      21     1     1     2   501   511 -4.046051308E+01 -3.372376345E+01  2.330346599E+01  5.759684772E+01  5.840038640E-07  0.00000E+00  9.000E+00
#rwgt            1           1   3.6934298911222137E-002           3      166834           0
</event>
<event>
      5   9999  3.79277E-02  3.83330E+01 -1.00000E+00  1.45996E-01
      21    -1     0     0   502   501  0.000000000E+00  0.000000000E+00  9.263304746E+02  9.263304746E+02  0.000000000E+00  0.00000E+00  9.000E+00
      21    -1     0     0   501   512  0.000000000E+00  0.000000000E+00 -1.325286114E+02  1.325286114E+02  0.000000000E+00  0.00000E+00  9.000E+00
      25     1     1     2     0     0  4.177031028E+01  2.664297316E+01 -1.871915793E+01  1.357571866E+02  1.250000000E+02  0.00000E+00  9.000E+00
      25     1     1     2     0     0 -3.830552271E+01  1.153315376E+01  8.555017257E+02  8.655105599E+02  1.250000000E+02  0.00000E+00  9.000E+00
      21     1     1     2   502   512 -3.464787572E+00 -3.817612692E+01 -4.298070460E+01  5.759133952E+01  1.784161275E-06  0.00000E+00  9.000E+00
#rwgt            1           1   4.5459021175651190E-002           3      166938           0
</event>
<event>
      5   9999  3.79277E-02  7.89889E+01 -1.00000E+00  1.28617E-01
      21    -1     0     0   502   501  0.000000000E+00  0.000000000E+00  2.159441162E+02  2.159441162E+02  0.000000000E+00  0.00000E+00  9.000E+00
      21    -1     0     0   501   511  0.000000000E+00  0.000000000E+00 -2.525978359E+02  2.525978359E+02  0.000000000E+00  0.00000E+00  9.000E+00
      25     1     1     2     0     0  5.214378722E+01 -2.367229849E+01  1.008697843E+02  1.705258504E+02  1.250000000E+02  0.00000E+00  9.000E+00
      25     1     1     2     0     0 -1.274702157E+02 -1.009590654E-01 -6.272107237E+01  1.892289592E+02  1.250000000E+02  0.00000E+00  9.000E+00
      21     1     1     2   502   511  7.532642848E+01  2.377325755E+01 -7.480243160E+01  1.087871425E+02  1.907348633E-06  0.00000E+00  9.000E+00
#rwgt            1           1   5.0964020864157626E-002           3      167146           0
</event>
<event>
      5   9999  3.79277E-02  4.76480E+01 -1.00000E+00  1.40280E-01
      21    -1     0     0   512   501  0.000000000E+00  0.000000000E+00  4.469078341E+02  4.469078341E+02  0.000000000E+00  0.00000E+00  9.000E+00
      21    -1     0     0   501   502  0.000000000E+00  0.000000000E+00 -2.057523209E+02  2.057523209E+02  0.000000000E+00  0.00000E+00  9.000E+00
      25     1     1     2     0     0 -1.600599046E+02 -2.195207199E+01 -2.399644819E+01  2.056742474E+02  1.250000000E+02  0.00000E+00  9.000E+00
      25     1     1     2     0     0  1.372978155E+02  6.381161358E+01  2.011941944E+01  1.973636319E+02  1.250000000E+02  0.00000E+00  9.000E+00
      21     1     1     2   512   502  2.276208912E+01 -4.185954159E+01  2.450325419E+02  2.496222757E+02  0.000000000E+00  0.00000E+00  9.000E+00
#rwgt            1           1   3.3307002867497923E-002           3      167203           0
</event>
<event>
      5   9999  3.79277E-02  5.44785E+01 -1.00000E+00  1.36983E-01
      21    -1     0     0   502   501  0.000000000E+00  0.000000000E+00  2.522152061E+03  2.522152061E+03  0.000000000E+00  0.00000E+00  9.000E+00
      21    -1     0     0   501   511  0.000000000E+00  0.000000000E+00 -2.154341150E+01  2.154341150E+01  0.000000000E+00  0.00000E+00  9.000E+00
      25     1     1     2     0     0  1.331598714E+02 -1.000766331E+02  8.912574130E+02  9.152658958E+02  1.250000000E+02  0.00000E+00  9.000E+00
      25     1     1     2     0     0 -1.053429988E+02  5.323508542E+01  1.447102214E+03  1.457278607E+03  1.250000000E+02  0.00000E+00  9.000E+00
      21     1     1     2   502   511 -2.781687264E+01  4.684154767E+01  1.622490225E+02  1.711509693E+02  2.697398305E-06  0.00000E+00  9.000E+00
#rwgt            1           1   6.8470301739834274E-002           3      167311           0
</event>
<event>
      5   9999  3.79277E-02  3.00537E+01 -1.00000E+00  1.52986E-01
      21    -1     0     0   502   501  0.000000000E+00  0.000000000E+00  4.587480782E+02  4.587480782E+02  0.000000000E+00  0.00000E+00  9.000E+00
      21    -1     0     0   501   512  0.000000000E+00  0.000000000E+00 -1.515359966E+02  1.515359966E+02  0.000000000E+00  0.00000E+00  9.000E+00
      25     1     1     2     0     0 -3.979161866E+01  5.051899636E+01  3.287476588E+02  3.575409977E+02  1.250000000E+02  0.00000E+00  9.000E+00
      25     1     1     2     0     0  6.876467651E+01 -4.253220479E+01  6.402713284E+01  1.620556785E+02  1.250000000E+02  0.00000E+00  9.000E+00
      21     1     1     2   502   512 -2.897305785E+01 -7.986791576E+00 -8.556270998E+01  9.068739857E+01  9.536743164E-07  0.00000E+00  9.000E+00
#rwgt            1           1   3.1247218084586498E-002           3      167357           0
</event>
<event>
      5   9999  3.79277E-02  3.60933E+01 -1.00000E+00  1.47664E-01
      21    -1     0     0   502   501  0.000000000E+00  0.000000000E+00  3.282107330E+01  3.282107330E+01  0.000000000E+00  0.00000E+00  9.000E+00
       2    -1     0     0   501     0  0.000000000E+00  0.000000000E+00 -2.307670815E+03  2.307670815E+03  0.000000000E+00  0.00000E+00  9.000E+00
      25     1     1     2     0     0  4.116661732E+00 -1.130360432E+02 -2.290673737E+02  2.844133536E+02  1.250000000E+02  0.00000E+00  9.000E+00
      25     1     1     2     0     0  1.223929190E+01  8.086135141E+01 -1.162337946E+03  1.171897119E+03  1.250000000E+02  0.00000E+00  9.000E+00
       2     1     1     2   502     0 -1.635595363E+01  3.217469182E+01 -8.834444226E+02  8.841814157E+02  1.078959322E-05  0.00000E+00  9.000E+00
#rwgt            1           1   2.9380398032805066E-002           3      167512           0
</event>
<event>
      5   9999  3.79277E-02  3.67904E+01 -1.00000E+00  1.47130E-01
      21    -1     0     0   511   501  0.000000000E+00  0.000000000E+00  4.766613342E+02  4.766613342E+02  0.000000000E+00  0.00000E+00  9.000E+00
      21    -1     0     0   501   502  0.000000000E+00  0.000000000E+00 -1.283316901E+02  1.283316901E+02  0.000000000E+00  0.00000E+00  9.000E+00
      25     1     1     2     0     0 -3.149083050E+01  9.130272739E+01  3.116568645E+02  3.494035798E+02  1.250000000E+02  0.00000E+00  9.000E+00
      25     1     1     2     0     0  6.810644020E+01 -9.488458535E+01 -3.537314693E+01  1.746935353E+02  1.250000000E+02  0.00000E+00  9.000E+00
      21     1     1     2   511   502 -3.661560970E+01  3.581857961E+00  7.204592657E+01  8.089590914E+01  1.651812370E-06  0.00000E+00  9.000E+00
#rwgt            1           1   5.1585100072414070E-002           3      167636           0
</event>
<event>
      5   9999  3.79277E-02  1.48842E+02 -1.00000E+00  1.16527E-01
      21    -1     0     0   502   501  0.000000000E+00  0.000000000E+00  2.141133253E+02  2.141133253E+02  0.000000000E+00  0.00000E+00  9.000E+00
      21    -1     0     0   501   512  0.000000000E+00  0.000000000E+00 -1.077244748E+03  1.077244748E+03  0.000000000E+00  0.00000E+00  9.000E+00
      25     1     1     2     0     0  1.956509795E+02 -1.695395195E+02 -2.421723824E+02  3.758928268E+02  1.250000000E+02  0.00000E+00  9.000E+00
      25     1     1     2     0     0 -7.437749137E+01  2.558334462E+02 -1.847862381E+01  2.948715364E+02  1.250000000E+02  0.00000E+00  9.000E+00
      21     1     1     2   502   512 -1.212734881E+02 -8.629392672E+01 -6.024804164E+02  6.205937100E+02  1.321449896E-05  0.00000E+00  9.000E+00
#rwgt            1           1   2.9710277522699457E-002           3      167724           0
</event>
<event>
      5   9999  3.79277E-02  6.61454E+01 -1.00000E+00  1.32479E-01
      21    -1     0     0   511   501  0.000000000E+00  0.000000000E+00  2.450381845E+02  2.450381845E+02  0.000000000E+00  0.00000E+00  9.000E+00
      21    -1     0     0   501   502  0.000000000E+00  0.000000000E+00 -3.699042660E+02  3.699042660E+02  0.000000000E+00  0.00000E+00  9.000E+00
      25     1     1     2     0     0 -1.972513446E+02 -9.420201779E+01 -2.040506206E+02  3.241045647E+02  1.250000000E+02  0.00000E+00  9.000E+00
      25     1     1     2     0     0  1.593682957E+02  3.997942149E+01  3.046266167E+01  2.086853650E+02  1.250000000E+02  0.00000E+00  9.000E+00
      21     1     1     2   511   502  3.788304899E+01  5.422259629E+01  4.872187735E+01  8.215252085E+01  9.536743164E-07  0.00000E+00  9.000E+00
#rwgt            1           1   1.8754381751151083E-002           3      167828           0
</event>
<event>
      5   9999  3.79277E-02  3.87818E+01 -1.00000E+00  1.45678E-01
      21    -1     0     0   502   501  0.000000000E+00  0.000000000E+00  9.488883735E+02  9.488883735E+02  0.000000000E+00  0.00000E+00  9.000E+00
      21    -1     0     0   512   502  0.000000000E+00  0.000000000E+00 -5.119546001E+01  5.119546001E+01  0.000000000E+00  0.00000E+00  9.000E+00
      25     1     1     2     0     0  7.432779101E+01  8.634839301E+01  2.002169613E+02  2.620925353E+02  1.250000000E+02  0.00000E+00  9.000E+00
      25     1     1     2     0     0 -3.608330449E+01 -7.991496159E+01  6.772569984E+02  6.942553189E+02  1.250000000E+02  0.00000E+00  9.000E+00
      21     1     1     2   512   501 -3.824448651E+01 -6.433431421E+00  2.021895380E+01  4.373597925E+01  8.259061849E-07  0.00000E+00  9.000E+00
#rwgt            1           1   3.6817183319309957E-002           3      168015           0
</event>
<event>
      5   9999  3.79277E-02  9.10516E+01 -1.00000E+00  1.25687E-01
      21    -1     0     0   502   511  0.000000000E+00  0.000000000E+00  1.392230859E+02  1.392230859E+02  0.000000000E+00  0.00000E+00  9.000E+00
      21    -1     0     0   501   502  0.000000000E+00  0.000000000E+00 -8.000322115E+02  8.000322115E+02  0.000000000E+00  0.00000E+00  9.000E+00
      25     1     1     2     0     0 -6.788317977E+01 -9.839878569E+01 -3.267716171E+02  3.697230543E+02  1.250000000E+02  0.00000E+00  9.000E+00
      25     1     1     2     0     0  1.430303577E+02  4.698582123E+01 -4.078222396E+02  4.523376281E+02  1.250000000E+02  0.00000E+00  9.000E+00
      21     1     1     2   501   511 -7.514717789E+01  5.141296446E+01  7.378473109E+01  1.171946151E+02  1.348699152E-06  0.00000E+00  9.000E+00
#rwgt            2          11   2.5980935064604644E-003           3      168161           0
</event>
<event>
      5   9999  3.79277E-02  4.97921E+01 -1.00000E+00  1.39179E-01
      21    -1     0     0   502   501  0.000000000E+00  0.000000000E+00  2.643322140E+02  2.643322140E+02  0.000000000E+00  0.00000E+00  9.000E+00
      21    -1     0     0   512   502  0.000000000E+00  0.000000000E+00 -2.147570978E+02  2.147570978E+02  0.000000000E+00  0.00000E+00  9.000E+00
      25     1     1     2     0     0 -1.081105751E+02 -2.233500954E+01 -1.035667766E+02  1.963105354E+02  1.250000000E+02  0.00000E+00  9.000E+00
      25     1     1     2     0     0  6.002515217E+01  3.525976811E+01  1.769744783E+02  2.275768796E+02  1.250000000E+02  0.00000E+00  9.000E+00
      21     1     1     2   512   501  4.808542293E+01 -1.292475857E+01 -2.383258549E+01  5.520189682E+01  4.768371582E-07  0.00000E+00  9.000E+00
#rwgt            1           1   3.5792541638413625E-002           3      168181           0
</event>
<event>
      5   9999  3.79277E-02  4.23101E+01 -1.00000E+00  1.43344E-01
      21    -1     0     0   502   511  0.000000000E+00  0.000000000E+00  5.798447129E+02  5.798447129E+02  0.000000000E+00  0.00000E+00  9.000E+00
      21    -1     0     0   501   502  0.000000000E+00  0.000000000E+00 -1.229427921E+02  1.229427921E+02  0.000000000E+00  0.00000E+00  9.000E+00
      25     1     1     2     0     0 -1.678454291E+01  1.897526756E+02  1.201544536E+02  2.575847269E+02  1.250000000E+02  0.00000E+00  9.000E+00
      25     1     1     2     0     0  5.815178646E+01 -1.808704442E+02  2.027262758E+02  3.046616004E+02  1.250000000E+02  0.00000E+00  9.000E+00
      21     1     1     2   501   511 -4.136724355E+01 -8.882231432E+00  1.340211915E+02  1.405411778E+02  0.000000000E+00  0.00000E+00  9.000E+00
#rwgt            1           1   3.4098946438407073E-002           3      168328           0
</event>
<event>
      5   9999  3.79277E-02  1.13084E+02 -1.00000E+00  1.21473E-01
      21    -1     0     0   502   512  0.000000000E+00  0.000000000E+00  2.480327900E+02  2.480327900E+02  0.000000000E+00  0.00000E+00  9.000E+00
      21    -1     0     0   501   502  0.000000000E+00  0.000000000E+00 -8.359876126E+02  8.359876126E+02  0.000000000E+00  0.00000E+00  9.000E+00
      25     1     1     2     0     0 -1.245635455E+02 -1.728520459E+02 -2.442956820E+02  3.474180290E+02  1.250000000E+02  0.00000E+00  9.000E+00
      25     1     1     2     0     0  3.739714862E+01  1.008096826E+02 -5.097027460E+02  5.357079691E+02  1.250000000E+02  0.00000E+00  9.000E+00
      21     1     1     2   501   512  8.716639687E+01  7.204236326E+01  1.660436054E+02  2.008944045E+02  1.907348633E-06  0.00000E+00  9.000E+00
#rwgt            1           1   3.9514745207489758E-002           3      168493           0
</event>
<event>
      5   9999  3.79277E-02  9.01519E+00 -1.00000E+00  2.01110E-01
      21    -1     0     0   502   511  0.000000000E+00  0.000000000E+00  9.020459290E+02  9.020459290E+02  0.000000000E+00  0.00000E+00  9.000E+00
      21    -1     0     0   501   502  0.000000000E+00  0.000000000E+00 -9.246958712E+01  9.246958712E+01  0.000000000E+00  0.00000E+00  9.000E+00
      25     1     1     2     0     0  9.236263472E+01 -1.078452724E+02  7.578508423E+02  7.811045757E+02  1.250000000E+02  0.00000E+00  9.000E+00
      25     1     1     2     0     0 -9.285834069E+01  9.884371696E+01  2.613820920E+01  1.862819310E+02  1.250000000E+02  0.00000E+00  9.000E+00
      21     1     1     2   501   511  4.957059738E-01  9.001555393E+00  2.558729039E+01  2.712900944E+01  3.371747881E-07  0.00000E+00  9.000E+00
#rwgt            1           1   3.2680565171259154E-002           3      168576           0
</event>
<event>
      5   9999  3.79277E-02  2.14038E+02 -1.00000E+00  1.10586E-01
       2    -1     0     0   502     0  0.000000000E+00  0.000000000E+00  2.625526067E+03  2.625526067E+03  0.000000000E+00  0.00000E+00  9.000E+00
      21    -1     0     0   501   502  0.000000000E+00  0.000000000E+00 -9.771576376E+01  9.771576376E+01  0.000000000E+00  0.00000E+00  9.000E+00
      25     1     1     2     0     0  6.694624802E+01 -1.366239304E+02  2.099373968E+03  2.108588143E+03  1.250000000E+02  0.00000E+00  9.000E+00
      25     1     1     2     0     0 -8.726082490E+01 -7.644753806E+01  4.638975967E+01  1.767362086E+02  1.250000000E+02  0.00000E+00  9.000E+00
       2     1     1     2   501     0  2.031457688E+01  2.130714685E+02  3.820465750E+02  4.379174787E+02  0.000000000E+00  0.00000E+00  9.000E+00
#rwgt            1           1   3.5144380981131131E-002           3      168792           0
</event>
<event>
      5   9999  3.79277E-02  1.83072E+01 -1.00000E+00  1.69602E-01
      21    -1     0     0   502   501  0.000000000E+00  0.000000000E+00  5.113978721E+02  5.113978721E+02  0.000000000E+00  0.00000E+00  9.000E+00
      21    -1     0     0   501   511  0.000000000E+00  0.000000000E+00 -6.636288205E+01  6.636288205E+01  0.000000000E+00  0.00000E+00  9.000E+00
      25     1     1     2     0     0 -1.112582517E+02  3.803322780E+00  3.051483267E+02  3.480421887E+02  1.250000000E+02  0.00000E+00  9.000E+00
      25     1     1     2     0     0  1.036211283E+02 -2.044151407E+01  1.219430794E+02  2.040840717E+02  1.250000000E+02  0.00000E+00  9.000E+00
      21     1     1     2   502   511  7.637123366E+00  1.663819129E+01  1.794358407E+01  2.563449379E+01  5.840038640E-07  0.00000E+00  9.000E+00
#rwgt            1           1   4.7459936162383025E-002           3      168856           0
</event>
<event>
      5   9999  3.79277E-02  5.72860E+01 -1.00000E+00  1.35786E-01
      21    -1     0     0   502   501  0.000000000E+00  0.000000000E+00  1.840529999E+02  1.840529999E+02  0.000000000E+00  0.00000E+00  9.000E+00
       2    -1     0     0   501     0  0.000000000E+00  0.000000000E+00 -2.404925304E+02  2.404925304E+02  0.000000000E+00  0.00000E+00  9.000E+00
      25     1     1     2     0     0 -1.377626343E+01 -3.932574381E+01  9.824915561E+01  1.643599590E+02  1.250000000E+02  0.00000E+00  9.000E+00
      25     1     1     2     0     0 -4.148030266E+01  5.443871111E+01 -1.426687663E+02  2.016520906E+02  1.250000000E+02  0.00000E+00  9.000E+00
       2     1     1     2   502     0  5.525656610E+01 -1.511296730E+01 -1.201991982E+01  5.853348059E+01  1.668930054E-06  0.00000E+00  9.000E+00
#rwgt            1           1   5.2274622390206207E-002           3      168983           0
</event>
<event>
      5   9999  4.92138E-02  5.23929E+01 -1.00000E+00  1.37927E-01
      21    -1     0     0   502   501  0.000000000E+00  0.000000000E+00  1.410194759E+02  1.410194759E+02  0.000000000E+00  0.00000E+00  9.000E+00
      21    -1     0     0   501   511  0.000000000E+00  0.000000000E+00 -9.381029856E+02  9.381029856E+02  0.000000000E+00  0.00000E+00  9.000E+00
      25     1     1     2     0     0 -2.271484416E+02  1.557027961E+02 -2.664842770E+02  4.030863991E+02  1.250000000E+02  0.00000E+00  9.000E+00
      25     1     1     2     0     0  2.792115558E+02 -1.498339893E+02 -3.516865922E+02  4.896098205E+02  1.250000000E+02  0.00000E+00  9.000E+00
      21     1     1     2   502   511 -5.206311417E+01 -5.868806839E+00 -1.789126405E+02  1.864262419E+02  1.907348633E-06  0.00000E+00  9.000E+00
#rwgt            1           1  0.47646821464933081                3      169032           0
</event>
<event>
      5   9999  3.79277E-02  7.04853E+01 -1.00000E+00  1.31069E-01
      21    -1     0     0   502   512  0.000000000E+00  0.000000000E+00  6.657020280E+01  6.657020280E+01  0.000000000E+00  0.00000E+00  9.000E+00
      21    -1     0     0   501   502  0.000000000E+00  0.000000000E+00 -5.037774873E+02  5.037774873E+02  0.000000000E+00  0.00000E+00  9.000E+00
      25     1     1     2     0     0 -3.008794112E+01 -6.534625839E+01 -1.884738587E+02  2.373242784E+02  1.250000000E+02  0.00000E+00  9.000E+00
      25     1     1     2     0     0  8.031850229E+01  1.589856871E+01 -1.866395032E+02  2.390881228E+02  1.250000000E+02  0.00000E+00  9.000E+00
      21     1     1     2   501   512 -5.023056117E+01  4.944768968E+01 -6.209392263E+01  9.393528899E+01  1.168007728E-06  0.00000E+00  9.000E+00
#rwgt            1           1   1.3612212907532390E-002           3      169184           0
</event>
<event>
      5   9999  3.79277E-02  2.80440E+02 -1.00000E+00  1.06552E-01
      21    -1     0     0   511   501  0.000000000E+00  0.000000000E+00  1.122729016E+03  1.122729016E+03  0.000000000E+00  0.00000E+00  9.000E+00
      21    -1     0     0   501   502  0.000000000E+00  0.000000000E+00 -9.168926389E+02  9.168926389E+02  0.000000000E+00  0.00000E+00  9.000E+00
      25     1     1     2     0     0  9.471835878E+01  2.142009384E+02 -6.222377334E+02  6.765045502E+02  1.250000000E+02  0.00000E+00  9.000E+00
      25     1     1     2     0     0 -1.212580125E+02  6.498040625E+01 -2.142972792E+02  2.836798947E+02  1.250000000E+02  0.00000E+00  9.000E+00
      21     1     1     2   511   502  2.653965372E+01 -2.791813447E+02  1.042371390E+03  1.079437210E+03  1.525878906E-05  0.00000E+00  9.000E+00
#rwgt            2          11   2.1552006460073343E-002           3      169319           0
</event>
<event>
      5   9999  3.79277E-02  8.12026E+01 -1.00000E+00  1.28037E-01
      21    -1     0     0   512   501  0.000000000E+00  0.000000000E+00  4.913626997E+02  4.913626997E+02  0.000000000E+00  0.00000E+00  9.000E+00
      21    -1     0     0   501   502  0.000000000E+00  0.000000000E+00 -1.701035492E+02  1.701035492E+02  0.000000000E+00  0.00000E+00  9.000E+00
      25     1     1     2     0     0  1.204838457E+02  4.082850796E+01 -7.649129795E+01  1.940598949E+02  1.250000000E+02  0.00000E+00  9.000E+00
      25     1     1     2     0     0 -5.463415619E+01 -8.834349293E+01  2.379431366E+02  2.881516962E+02  1.250000000E+02  0.00000E+00  9.000E+00
      21     1     1     2   512   502 -6.584968955E+01  4.751498497E+01  1.598073118E+02  1.792546578E+02  1.907348633E-06  0.00000E+00  9.000E+00
#rwgt            1           1   4.0428421106320868E-002           3      169504           0
</event>
<event>
      5   9999  3.79277E-02  5.67713E+01 -1.00000E+00  1.36000E-01
      21    -1     0     0   502   501  0.000000000E+00  0.000000000E+00  9.592488758E+02  9.592488758E+02  0.000000000E+00  0.00000E+00  9.000E+00
      21    -1     0     0   511   502  0.000000000E+00  0.000000000E+00 -7.034843548E+01  7.034843548E+01  0.000000000E+00  0.00000E+00  9.000E+00
      25     1     1     2     0     0 -3.589354633E+01  5.901547279E+01  8.394716246E+01  1.656601907E+02  1.250000000E+02  0.00000E+00  9.000E+00
      25     1     1     2     0     0  6.526602430E+01 -1.043315187E+01  7.935281407E+02  8.060275521E+02  1.250000000E+02  0.00000E+00  9.000E+00
      21     1     1     2   511   501 -2.937247797E+01 -4.858232091E+01  1.142513715E+01  5.790956852E+01  1.685873940E-07  0.00000E+00  9.000E+00
#rwgt            1           1   3.9414879685178393E-002           3      169638           0
</event>
<event>
      5   9999  3.79277E-02  4.62892E+01 -1.00000E+00  1.41014E-01
       1    -1     0     0   502     0  0.000000000E+00  0.000000000E+00  7.636423431E+02  7.636423431E+02  0.000000000E+00  0.00000E+00  9.000E+00
      21    -1     0     0   501   502  0.000000000E+00  0.000000000E+00 -5.957392481E+02  5.957392481E+02  0.000000000E+00  0.00000E+00  9.000E+00
      25     1     1     2     0     0 -2.048428048E+02 -8.759174332E+01 -4.893879441E+02  5.520493166E+02  1.250000000E+02  0.00000E+00  9.000E+00
      25     1     1     2     0     0  2.028789918E+02  4.134423682E+01  1.235463355E+02  2.715841090E+02  1.250000000E+02  0.00000E+00  9.000E+00
       1     1     1     2   501     0  1.963812975E+00  4.624750650E+01  5.337447035E+02  5.357481656E+02  7.629394531E-06  0.00000E+00  9.000E+00
#rwgt            1           1   3.9033911531510701E-002           3      169862           0
</event>
<event>
      5   9999  3.79277E-02  3.91983E+01 -1.00000E+00  1.45388E-01
      21    -1     0     0   502   501  0.000000000E+00  0.000000000E+00  7.709267887E+02  7.709267887E+02  0.000000000E+00  0.00000E+00  9.000E+00
      21    -1     0     0   511   502  0.000000000E+00  0.000000000E+00 -7.016623375E+01  7.016623375E+01  0.000000000E+00  0.00000E+00  9.000E+00
      25     1     1     2     0     0 -7.627686996E+01  1.050904450E+02  1.499893938E+02  2.344866324E+02  1.250000000E+02  0.00000E+00  9.000E+00
      25     1     1     2     0     0  4.345800464E+01 -8.365607406E+01  5.449302845E+02  5.669752656E+02  1.250000000E+02  0.00000E+00  9.000E+00
      21     1     1     2   511   501  3.281886532E+01 -2.143437098E+01  5.840876656E+00  3.963112439E+01  7.679521279E-07  0.00000E+00  9.000E+00
#rwgt            2          11   1.5465682768977531E-003           3      170259           0
</event>
<event>
      5   9999  3.79277E-02  9.29333E+01 -1.00000E+00  1.25277E-01
      21    -1     0     0   502   512  0.000000000E+00  0.000000000E+00  1.368493153E+03  1.368493153E+03  0.000000000E+00  0.00000E+00  9.000E+00
      21    -1     0     0   501   502  0.000000000E+00  0.000000000E+00 -1.247436745E+02  1.247436745E+02  0.000000000E+00  0.00000E+00  9.000E+00
      25     1     1     2     0     0 -2.254160872E+02  1.514727896E+02  7.970230444E+02  8.512503460E+02  1.250000000E+02  0.00000E+00  9.000E+00
      25     1     1     2     0     0  1.409208794E+02 -1.127796528E+02  3.798511005E+01  2.228134038E+02  1.250000000E+02  0.00000E+00  9.000E+00
      21     1     1     2   501   512  8.449520781E+01 -3.869313678E+01  4.087413238E+02  4.191730773E+02  5.394796609E-06  0.00000E+00  9.000E+00
#rwgt            1           1   2.9310199777368991E-002           3      170279           0
</event>
<event>
      5   9999  3.79277E-02  9.66626E+01 -1.00000E+00  1.24495E-01
      21    -1     0     0   502   501  0.000000000E+00  0.000000000E+00  1.513243325E+03  1.513243325E+03  0.000000000E+00  0.00000E+00  9.000E+00
      21    -1     0     0   501   511  0.000000000E+00  0.000000000E+00 -1.540178218E+02  1.540178218E+02  0.000000000E+00  0.00000E+00  9.000E+00
      25     1     1     2     0     0  1.528057533E+02 -1.347707096E+02  1.092500900E+03  1.118345188E+03  1.250000000E+02  0.00000E+00  9.000E+00
      25     1     1     2     0     0 -1.461451522E+02  3.833783882E+01  3.629419556E+02  4.125288578E+02  1.250000000E+02  0.00000E+00  9.000E+00
      21     1     1     2   502   511 -6.660601136E+00  9.643287078E+01 -9.621735310E+01  1.363871006E+02  6.325959759E-06  0.00000E+00  9.000E+00
#rwgt            2          11   6.3578261574508332E-003           3      170358           0
</event>
<event>
      5   9999  3.79277E-02  1.59327E+01 -1.00000E+00  1.74951E-01
      21    -1     0     0   502   512  0.000000000E+00  0.000000000E+00  1.140079185E+02  1.140079185E+02  0.000000000E+00  0.00000E+00  9.000E+00
      21    -1     0     0   501   502  0.000000000E+00  0.000000000E+00 -1.411844668E+03  1.411844668E+03  0.000000000E+00  0.00000E+00  9.000E+00
      25     1     1     2     0     0 -3.224283294E+02  1.698418908E+02 -7.600454179E+02  8.521152109E+02  1.250000000E+02  0.00000E+00  9.000E+00
      25     1     1     2     0     0  3.231366379E+02 -1.539249837E+02 -5.375589536E+02  6.578030221E+02  1.250000000E+02  0.00000E+00  9.000E+00
      21     1     1     2   501   512 -7.083084618E-01 -1.591690715E+01 -2.323785241E-01  1.593435389E+01  5.900499993E-07  0.00000E+00  9.000E+00
#rwgt            1           1  0.30624911402361993                3      170378           0
</event>
<event>
      5   9999  3.79277E-02  2.91849E+01 -1.00000E+00  1.53875E-01
      21    -1     0     0   502   501  0.000000000E+00  0.000000000E+00  2.165660766E+02  2.165660766E+02  0.000000000E+00  0.00000E+00  9.000E+00
      21    -1     0     0   511   502  0.000000000E+00  0.000000000E+00 -2.267217936E+02  2.267217936E+02  0.000000000E+00  0.00000E+00  9.000E+00
      25     1     1     2     0     0 -2.114644337E+01  2.918481127E+01  1.524113600E+02  2.003825040E+02  1.250000000E+02  0.00000E+00  9.000E+00
      25     1     1     2     0     0  3.259946717E+01 -5.602852433E+01 -9.656519934E+01  1.707388606E+02  1.250000000E+02  0.00000E+00  9.000E+00
      21     1     1     2   511   501 -1.145302380E+01  2.684371306E+01 -6.600187755E+01  7.216650556E+01  1.348699152E-06  0.00000E+00  9.000E+00
#rwgt            1           1   4.7662958622564110E-002           3      170622           0
</event>
<event>
      5   9999  3.79277E-02  3.87498E+01 -1.00000E+00  1.45701E-01
      21    -1     0     0   512   501  0.000000000E+00  0.000000000E+00  5.414208400E+02  5.414208400E+02  0.000000000E+00  0.00000E+00  9.000E+00
      21    -1     0     0   501   502  0.000000000E+00  0.000000000E+00 -1.796796139E+02  1.796796139E+02  0.000000000E+00  0.00000E+00  9.000E+00
      25     1     1     2     0     0 -4.218545780E+01  8.804540715E+01 -1.180103666E+02  1.976943429E+02  1.250000000E+02  0.00000E+00  9.000E+00
      25     1     1     2     0     0  7.279903499E+01 -6.428927112E+01  4.412325129E+02  4.687685360E+02  1.250000000E+02  0.00000E+00  9.000E+00
      21     1     1     2   512   502 -3.061357719E+01 -2.375613602E+01  3.851907975E+01  5.463757509E+01  6.743495762E-07  0.00000E+00  9.000E+00
#rwgt            1           1   3.7114999094003155E-002           3      170770           0
</event>
<event>
      5   9999  3.79277E-02  1.15558E+02 -1.00000E+00  1.21068E-01
      21    -1     0     0   502   501  0.000000000E+00  0.000000000E+00  2.884930580E+02  2.884930580E+02  0.000000000E+00  0.00000E+00  9.000E+00
      21    -1     0     0   501   511  0.000000000E+00  0.000000000E+00 -5.727834575E+02  5.727834575E+02  0.000000000E+00  0.00000E+00  9.000E+00
      25     1     1     2     0     0  2.456475629E+02 -2.460498732E+01  1.629049434E+02  3.211092511E+02  1.250000000E+02  0.00000E+00  9.000E+00
      25     1     1     2     0     0 -1.311437005E+02  4.018151472E+01 -3.039202973E+02  3.560979801E+02  1.250000000E+02  0.00000E+00  9.000E+00
      21     1     1     2   502   511 -1.145038624E+02 -1.557652740E+01 -1.432750456E+02  1.840692842E+02  0.000000000E+00  0.00000E+00  9.000E+00
#rwgt            1           1   4.3046647791866822E-002           3      170946           0
</event>
<event>
      5   9999  3.79277E-02  6.57207E+01 -1.00000E+00  1.32623E-01
      21    -1     0     0   502   501  0.000000000E+00  0.000000000E+00  3.244177804E+02  3.244177804E+02  0.000000000E+00  0.00000E+00  9.000E+00
      21    -1     0     0   501   512  0.000000000E+00  0.000000000E+00 -9.638068479E+02  9.638068479E+02  0.000000000E+00  0.00000E+00  9.000E+00
      25     1     1     2     0     0 -7.804005540E+01 -5.349662855E+01 -5.490768918E+01  1.661083798E+02  1.250000000E+02  0.00000E+00  9.000E+00
      25     1     1     2     0     0  1.304586120E+01  4.375154338E+01  2.509777962E+02  2.840761275E+02  1.250000000E+02  0.00000E+00  9.000E+00
      21     1     1     2   502   512  6.499419420E+01  9.745085171E+00 -8.354591746E+02  8.380401210E+02  0.000000000E+00  0.00000E+00  9.000E+00
#rwgt            1           1   2.9743967720669874E-002           3      171232           0
</event>
<event>
      5   9999  3.79277E-02  1.15718E+01 -1.00000E+00  1.88703E-01
      21    -1     0     0   511   501  0.000000000E+00  0.000000000E+00  5.244985951E+02  5.244985951E+02  0.000000000E+00  0.00000E+00  9.000E+00
      21    -1     0     0   501   502  0.000000000E+00  0.000000000E+00 -1.129802507E+03  1.129802507E+03  0.000000000E+00  0.00000E+00  9.000E+00
      25     1     1     2     0     0 -6.272461171E+00  1.028137207E+02 -9.727855509E+02  9.861778404E+02  1.250000000E+02  0.00000E+00  9.000E+00
      25     1     1     2     0     0 -1.723089815E+00 -9.444841308E+01 -1.094047499E+02  1.910964967E+02  1.250000000E+02  0.00000E+00  9.000E+00
      21     1     1     2   511   502  7.995550986E+00 -8.365307633E+00  4.768863885E+02  4.770267652E+02  5.394796609E-06  0.00000E+00  9.000E+00
#rwgt            1           1   3.4040077159250628E-002           3      171343           0
</event>
<event>
      5   9999  3.79277E-02  2.05736E+01 -1.00000E+00  1.65362E-01
      21    -1     0     0   502   501  0.000000000E+00  0.000000000E+00  1.007066348E+03  1.007066348E+03  0.000000000E+00  0.00000E+00  9.000E+00
      21    -1     0     0   512   502  0.000000000E+00  0.000000000E+00 -6.321020171E+01  6.321020171E+01  0.000000000E+00  0.00000E+00  9.000E+00
      25     1     1     2     0     0 -7.896655952E+00 -2.071951561E+02  5.271818599E+02  5.801188700E+02  1.250000000E+02  0.00000E+00  9.000E+00
      25     1     1     2     0     0  5.204892438E-01  1.879893152E+02  4.108280191E+02  4.687695754E+02  1.250000000E+02  0.00000E+00  9.000E+00
      21     1     1     2   512   501  7.376166708E+00  1.920584093E+01  5.846267139E+00  2.138810419E+01  5.397430145E-07  0.00000E+00  9.000E+00
#rwgt            1           1   3.1720696151272799E-002           3      171596           0
</event>
<event>
      5   9999  3.79277E-02  2.13386E+01 -1.00000E+00  1.64081E-01
      21    -1     0     0   502   501  0.000000000E+00  0.000000000E+00  1.943694590E+02  1.943694590E+02  0.000000000E+00  0.00000E+00  9.000E+00
      21    -1     0     0   501   511  0.000000000E+00  0.000000000E+00 -3.139321939E+02  3.139321939E+02  0.000000000E+00  0.00000E+00  9.000E+00
      25     1     1     2     0     0  6.059973834E+01  1.540796420E+02 -1.717482119E+02  2.693238063E+02  1.250000000E+02  0.00000E+00  9.000E+00
      25     1     1     2     0     0 -3.982673387E+01 -1.589602346E+02  6.236648016E+01  2.153348619E+02  1.250000000E+02  0.00000E+00  9.000E+00
      21     1     1     2   502   511 -2.077300447E+01  4.880592601E+00 -1.018100310E+01  2.364298465E+01  5.057621821E-07  0.00000E+00  9.000E+00
#rwgt            1           1   4.7511702652292515E-002           3      171828           0
</event>
<event>
      5   9999 -3.79277E-02  9.02435E+01 -1.00000E+00  1.25867E-01
      21    -1     0     0   502   501  0.000000000E+00  0.000000000E+00  9.086874148E+02  9.086874148E+02  0.000000000E+00  0.00000E+00  9.000E+00
      21    -1     0     0   512   502  0.000000000E+00  0.000000000E+00 -1.368951713E+02  1.368951713E+02  0.000000000E+00  0.00000E+00  9.000E+00
      25     1     1     2     0     0 -1.659645204E+02 -1.614152324E+02  4.342987959E+02  5.077790301E+02  1.250000000E+02  0.00000E+00  9.000E+00
      25     1     1     2     0     0  2.317158181E+02  9.960384371E+01  3.472738901E+02  4.470316552E+02  1.250000000E+02  0.00000E+00  9.000E+00
      21     1     1     2   512   501 -6.575129766E+01  6.181138873E+01 -9.780442523E+00  9.077190081E+01  8.172577143E-07  0.00000E+00  9.000E+00
#rwgt            1           1  -7.4158514686023455E-002           3      172042           0
</event>
<event>
      5   9999  3.79277E-02  6.93602E+01 -1.00000E+00  1.31423E-01
      21    -1     0     0   511   501  0.000000000E+00  0.000000000E+00  1.832138027E+02  1.832138027E+02  0.000000000E+00  0.00000E+00  9.000E+00
      21    -1     0     0   501   502  0.000000000E+00  0.000000000E+00 -2.689389745E+02  2.689389745E+02  0.000000000E+00  0.00000E+00  9.000E+00
      25     1     1     2     0     0 -2.894608914E+01  8.928961608E+01  5.214048491E+01  1.647851382E+02  1.250000000E+02  0.00000E+00  9.000E+00
      25     1     1     2     0     0  6.120773053E+01 -2.788913762E+01 -1.606347425E+02  2.143658340E+02  1.250000000E+02  0.00000E+00  9.000E+00
      21     1     1     2   511   502 -3.226164139E+01 -6.140047847E+01  2.276908588E+01  7.300180500E+01  3.371747881E-07  0.00000E+00  9.000E+00
#rwgt            1           1   4.8260497503715145E-002           3      172115           0
</event>
<event>
      5   9999  3.79277E-02  1.10320E+01 -1.00000E+00  1.90952E-01
      21    -1     0     0   512   501  0.000000000E+00  0.000000000E+00  4.794335264E+01  4.794335264E+01  0.000000000E+00  0.00000E+00  9.000E+00
      21    -1     0     0   501   502  0.000000000E+00  0.000000000E+00 -7.200705073E+02  7.200705073E+02  0.000000000E+00  0.00000E+00  9.000E+00
      25     1     1     2     0     0  2.546993301E+01 -9.126883459E+01 -5.056475575E+02  5.294177651E+02  1.250000000E+02  0.00000E+00  9.000E+00
      25     1     1     2     0     0 -2.948538737E+01  8.099355540E+01 -1.690924543E+02  2.272588880E+02  1.250000000E+02  0.00000E+00  9.000E+00
      21     1     1     2   512   502  4.015454358E+00  1.027527920E+01  2.612857086E+00  1.133720682E+01  2.795705652E-07  0.00000E+00  9.000E+00
#rwgt            1           1   6.3248283649586706E-002           3      172220           0
</event>
<event>
      5   9999  3.79277E-02  3.22502E+01 -1.00000E+00  1.50890E-01
      21    -1     0     0   502   511  0.000000000E+00  0.000000000E+00  7.294910869E+01  7.294910869E+01  0.000000000E+00  0.00000E+00  9.000E+00
      21    -1     0     0   501   502  0.000000000E+00  0.000000000E+00 -9.978380267E+02  9.978380267E+02  0.000000000E+00  0.00000E+00  9.000E+00
      25     1     1     2     0     0  1.126238210E+02  1.341516070E+02 -6.273973693E+02  6.632746322E+02  1.250000000E+02  0.00000E+00  9.000E+00
      25     1     1     2     0     0 -1.398238513E+02 -1.514788574E+02 -2.840673305E+02  3.725799268E+02  1.250000000E+02  0.00000E+00  9.000E+00
      21     1     1     2   501   511  2.720003034E+01  1.732725037E+01 -1.342421824E+01  3.493257636E+01  5.057621821E-07  0.00000E+00  9.000E+00
#rwgt            1           1   4.7017004047290860E-002           3      172413           0
</event>
<event>
      5   9999  3.79277E-02  1.46062E+01 -1.00000E+00  1.78479E-01
      21    -1     0     0   502   501  0.000000000E+00  0.000000000E+00  9.392972214E+01  9.392972214E+01  0.000000000E+00  0.00000E+00  9.000E+00
      21    -1     0     0   512   502  0.000000000E+00  0.000000000E+00 -4.707464396E+02  4.707464396E+02  0.000000000E+00  0.00000E+00  9.000E+00
      25     1     1     2     0     0 -7.990118358E+00  1.347914498E+02 -3.128274239E+02  3.629305362E+02  1.250000000E+02  0.00000E+00  9.000E+00
      25     1     1     2     0     0  1.260206371E+01 -1.209324995E+02 -4.972891301E+01  1.813324192E+02  1.250000000E+02  0.00000E+00  9.000E+00
      21     1     1     2   512   501 -4.611945349E+00 -1.385895030E+01 -1.426038052E+01  2.041320641E+01  1.685873940E-07  0.00000E+00  9.000E+00
#rwgt            1           1   4.9542864317155995E-002           3      172628           0
</event>
<event>
      5   9999  3.79277E-02  1.99967E+01 -1.00000E+00  1.66375E-01
      21    -1     0     0   502   501  0.000000000E+00  0.000000000E+00  4.115114022E+02  4.115114022E+02  0.000000000E+00  0.00000E+00  9.000E+00
      21    -1     0     0   501   511  0.000000000E+00  0.000000000E+00 -6.639143644E+01  6.639143644E+01  0.000000000E+00  0.00000E+00  9.000E+00
      25     1     1     2     0     0  9.043893454E+00  7.991557183E+01  1.349981634E+02  2.007929151E+02  1.250000000E+02  0.00000E+00  9.000E+00
      25     1     1     2     0     0 -6.653761014E-01 -9.807234379E+01  1.974484335E+02  2.534354183E+02  1.250000000E+02  0.00000E+00  9.000E+00
      21     1     1     2   502   511 -8.378517353E+00  1.815677196E+01  1.267336879E+01  2.367450522E+01  3.769728732E-07  0.00000E+00  9.000E+00
#rwgt            1           1   4.3361963788518344E-002           3      172807           0
</event>
<event>
      5   9999  3.79277E-02  8.01193E+01 -1.00000E+00  1.28318E-01
      21    -1     0     0   502   501  0.000000000E+00  0.000000000E+00  9.573770297E+02  9.573770297E+02  0.000000000E+00  0.00000E+00  9.000E+00
      21    -1     0     0   512   502  0.000000000E+00  0.000000000E+00 -1.815715572E+02  1.815715572E+02  0.000000000E+00  0.00000E+00  9.000E+00
      25     1     1     2     0     0 -2.929928897E+02 -5.866668437E+01  4.059067328E+02  5.192994213E+02  1.250000000E+02  0.00000E+00  9.000E+00
      25     1     1     2     0     0  2.931510685E+02  1.387857812E+02  4.036693764E+02  5.327034893E+02  1.250000000E+02  0.00000E+00  9.000E+00
      21     1     1     2   512   501 -1.581788158E-01 -8.011909685E+01 -3.377063682E+01  8.694567621E+01  1.719260824E-06  0.00000E+00  9.000E+00
#rwgt            1           1   1.9952369476645127E-002           3      172977           0
</event>
<event>
      5   9999  3.79277E-02  3.18062E+01 -1.00000E+00  1.51297E-01
      21    -1     0     0   502   501  0.000000000E+00  0.000000000E+00  2.086922258E+02  2.086922258E+02  0.000000000E+00  0.00000E+00  9.000E+00
      21    -1     0     0   511   502  0.000000000E+00  0.000000000E+00 -5.179749727E+02  5.179749727E+02  0.000000000E+00  0.00000E+00  9.000E+00
      25     1     1     2     0     0  4.054896935E+01  1.677587464E+02  2.430810503E+01  2.144833324E+02  1.250000000E+02  0.00000E+00  9.000E+00
      25     1     1     2     0     0 -5.161579342E+01 -1.975775067E+02 -7.393065325E+01  2.505829260E+02  1.250000000E+02  0.00000E+00  9.000E+00
      21     1     1     2   511   501  1.106682407E+01  2.981876028E+01 -2.596601987E+02  2.616009401E+02  0.000000000E+00  0.00000E+00  9.000E+00
#rwgt            1           1   3.3345081052318488E-002           3      173091           0
</event>
<event>
      5   9999  3.79277E-02  1.88017E+01 -1.00000E+00  1.68614E-01
      21    -1     0     0   502   501  0.000000000E+00  0.000000000E+00  3.610612861E+02  3.610612861E+02  0.000000000E+00  0.00000E+00  9.000E+00
      21    -1     0     0   512   502  0.000000000E+00  0.000000000E+00 -3.633804057E+02  3.633804057E+02  0.000000000E+00  0.00000E+00  9.000E+00
      25     1     1     2     0     0  1.018070494E+02 -1.084504445E+02  2.829462602E+02  3.432342646E+02  1.250000000E+02  0.00000E+00  9.000E+00
      25     1     1     2     0     0 -8.470325341E+01  1.162583622E+02 -1.444087828E+02  2.391015359E+02  1.250000000E+02  0.00000E+00  9.000E+00
      21     1     1     2   512   501 -1.710379594E+01 -7.807917675E+00 -1.408565970E+02  1.421058913E+02  2.697398305E-06  0.00000E+00  9.000E+00
#rwgt            1           1   3.8505481208458633E-002           3      173294           0
</event>
<event>
      5   9999  3.79277E-02  6.97785E+01 -1.00000E+00  1.31290E-01
       2    -1     0     0   502     0  0.000000000E+00  0.000000000E+00  3.206208555E+03  3.206208555E+03  0.000000000E+00  0.00000E+00  9.000E+00
      21    -1     0     0   501   502  0.000000000E+00  0.000000000E+00 -2.037761341E+01  2.037761341E+01  0.000000000E+00  0.00000E+00  9.000E+00
      25     1     1     2     0     0  1.391294502E+01 -4.260679451E+00  2.261284192E+02  2.587871430E+02  1.250000000E+02  0.00000E+00  9.000E+00
      25     1     1     2     0     0 -3.030895492E+01  7.208555707E+01  2.179892739E+03  2.184873523E+03  1.250000000E+02  0.00000E+00  9.000E+00
       2     1     1     2   501     0  1.639600990E+01 -6.782487761E+01  7.798097834E+02  7.829255018E+02  0.000000000E+00  0.00000E+00  9.000E+00
#rwgt            1           1   8.7020547137589568E-002           3      173534           0
</event>
<event>
      5   9999  3.79277E-02  1.27519E+01 -1.00000E+00  1.84295E-01
      21    -1     0     0   502   501  0.000000000E+00  0.000000000E+00  1.264373490E+02  1.264373490E+02  0.000000000E+00  0.00000E+00  9.000E+00
       1    -1     0     0   501     0  0.000000000E+00  0.000000000E+00 -9.182930740E+02  9.182930740E+02  0.000000000E+00  0.00000E+00  9.000E+00
      25     1     1     2     0     0  8.345625911E+01  5.683126305E+01  5.799248397E+01  1.708299384E+02  1.250000000E+02  0.00000E+00  9.000E+00
      25     1     1     2     0     0 -8.519575698E+01 -4.419854700E+01 -5.095815191E+02  5.333949318E+02  1.250000000E+02  0.00000E+00  9.000E+00
       1     1     1     2   502     0  1.739497864E+00 -1.263271606E+01 -3.402666898E+02  3.405055529E+02  3.814697266E-06  0.00000E+00  9.000E+00
#rwgt            1           1   3.6184366783365542E-002           3      173642           0
</event>
<event>
      5   9999  3.79277E-02  5.47053E+01 -1.00000E+00  1.36883E-01
      21    -1     0     0   511   501  0.000000000E+00  0.000000000E+00  4.392827746E+02  4.392827746E+02  0.000000000E+00  0.00000E+00  9.000E+00
      21    -1     0     0   501   502  0.000000000E+00  0.000000000E+00 -2.111673462E+02  2.111673462E+02  0.000000000E+00  0.00000E+00  9.000E+00
      25     1     1     2     0     0 -2.426053815E+01  1.921423867E+02 -1.612786579E+01  2.310679089E+02  1.250000000E+02  0.00000E+00  9.000E+00
      25     1     1     2     0     0  5.608025515E+01 -2.366415627E+02  1.539206589E+02  3.137846291E+02  1.250000000E+02  0.00000E+00  9.000E+00
      21     1     1     2   511   502 -3.181971700E+01  4.449917593E+01  9.032263524E+01  1.055975828E+02  1.651812370E-06  0.00000E+00  9.000E+00
#rwgt            1           1   4.3497310074028878E-002           3      173941           0
</event>
<event>
      5   9999  3.79277E-02  8.39487E+01 -1.00000E+00  1.27345E-01
      21    -1     0     0   502   501  0.000000000E+00  0.000000000E+00  3.179101412E+02  3.179101412E+02  0.000000000E+00  0.00000E+00  9.000E+00
      21    -1     0     0   512   502  0.000000000E+00  0.000000000E+00 -3.300185698E+02  3.300185698E+02  0.000000000E+00  0.00000E+00  9.000E+00
      25     1     1     2     0     0  1.602059947E+01  1.842745878E+02  5.279060161E+00  2.233084230E+02  1.250000000E+02  0.00000E+00  9.000E+00
      25     1     1     2     0     0  4.627584185E+01 -2.405465307E+02  8.904569561E+01  2.890643922E+02  1.250000000E+02  0.00000E+00  9.000E+00
      21     1     1     2   512   501 -6.229644132E+01  5.627194282E+01 -1.064331844E+02  1.355558958E+02  1.907348633E-06  0.00000E+00  9.000E+00
#rwgt            1           1   3.8348929724521572E-002           3      174054           0
</event>
<event>
      5   9999  3.79277E-02  4.09187E+01 -1.00000E+00  1.44231E-01
      21    -1     0     0   511   501  0.000000000E+00  0.000000000E+00  2.776489043E+02  2.776489043E+02  0.000000000E+00  0.00000E+00  9.000E+00
      21    -1     0     0   501   502  0.000000000E+00  0.000000000E+00 -1.246346828E+03  1.246346828E+03  0.000000000E+00  0.00000E+00  9.000E+00
      25     1     1     2     0     0 -3.920953198E+02 -1.096003673E+02 -3.221951272E+02  5.340277898E+02  1.250000000E+02  0.00000E+00  9.000E+00
      25     1     1     2     0     0  4.183929104E+02  1.409495941E+02 -7.496892721E+02  8.789644022E+02  1.250000000E+02  0.00000E+00  9.000E+00
      21     1     1     2   511   502 -2.629759056E+01 -3.134922688E+01  1.031864754E+02  1.110035405E+02  1.907348633E-06  0.00000E+00  9.000E+00
#rwgt            1           1   9.6525578872367429E-002           3      174260           0
</event>
<event>
      5   9999  3.79277E-02  1.75291E+02 -1.00000E+00  1.13773E-01
      21    -1     0     0   502   501  0.000000000E+00  0.000000000E+00  8.512497145E+02  8.512497145E+02  0.000000000E+00  0.00000E+00  9.000E+00
      21    -1     0     0   512   502  0.000000000E+00  0.000000000E+00 -1.677116800E+02  1.677116800E+02  0.000000000E+00  0.00000E+00  9.000E+00
      25     1     1     2     0     0  6.670026244E+01 -1.149046158E+02  3.826890667E+02  4.239432951E+02  1.250000000E+02  0.00000E+00  9.000E+00
      25     1     1     2     0     0 -1.172830879E+02  2.827392786E+02  1.472227836E+02  3.619342072E+02  1.250000000E+02  0.00000E+00  9.000E+00
      21     1     1     2   512   501  5.058282542E+01 -1.678346628E+02  1.536261842E+02  2.330838921E+02  2.697398305E-06  0.00000E+00  9.000E+00
#rwgt            1           1   3.2551714378479313E-002           3      174658           0
</event>
<event>
      5   9999  3.79277E-02  1.28503E+01 -1.00000E+00  1.83955E-01
      21    -1     0     0   502   511  0.000000000E+00  0.000000000E+00  2.856608318E+02  2.856608318E+02  0.000000000E+00  0.00000E+00  9.000E+00
      21    -1     0     0   501   502  0.000000000E+00  0.000000000E+00 -9.235377386E+01  9.235377386E+01  0.000000000E+00  0.00000E+00  9.000E+00
      25     1     1     2     0     0 -7.443928781E+01 -5.365811183E+01  8.076153320E+01  1.748365688E+02  1.250000000E+02  0.00000E+00  9.000E+00
      25     1     1     2     0     0  6.790879993E+01  6.472531022E+01  1.048266939E+02  1.881876899E+02  1.250000000E+02  0.00000E+00  9.000E+00
      21     1     1     2   501   511  6.530487875E+00 -1.106719839E+01  7.718830854E+00  1.499034696E+01  2.064765462E-07  0.00000E+00  9.000E+00
#rwgt            1           1   3.4715211098801324E-002           3      174686           0
</event>
<event>
      5   9999  3.79277E-02  3.44871E+01 -1.00000E+00  1.48951E-01
      21    -1     0     0   512   501  0.000000000E+00  0.000000000E+00  1.419003952E+02  1.419003952E+02  0.000000000E+00  0.00000E+00  9.000E+00
      21    -1     0     0   501   502  0.000000000E+00  0.000000000E+00 -1.178703276E+03  1.178703276E+03  0.000000000E+00  0.00000E+00  9.000E+00
      25     1     1     2     0     0 -5.630484568E+01 -1.798910185E+01 -9.399709781E+02  9.500864609E+02  1.250000000E+02  0.00000E+00  9.000E+00
      25     1     1     2     0     0  2.239869395E+01  2.429243365E+01 -2.130925200E+02  2.492493649E+02  1.250000000E+02  0.00000E+00  9.000E+00
      21     1     1     2   512   502  3.390615172E+01 -6.303331802E+00  1.162606175E+02  1.212678453E+02  4.672030912E-06  0.00000E+00  9.000E+00
#rwgt            1           1   4.1627529481229816E-002           3      174889           0
</event>
<event>
      5   9999  3.79277E-02  3.33304E+01 -1.00000E+00  1.49931E-01
       2    -1     0     0   502     0  0.000000000E+00  0.000000000E+00  4.639753953E+02  4.639753953E+02  0.000000000E+00  0.00000E+00  9.000E+00
      21    -1     0     0   501   502  0.000000000E+00  0.000000000E+00 -4.702220876E+02  4.702220876E+02  0.000000000E+00  0.00000E+00  9.000E+00
      25     1     1     2     0     0  1.432506143E+02  2.150639659E+02 -6.774386415E+01  2.949363983E+02  1.250000000E+02  0.00000E+00  9.000E+00
      25     1     1     2     0     0 -1.130271411E+02 -2.291159354E+02 -2.176431328E+02  3.581379339E+02  1.250000000E+02  0.00000E+00  9.000E+00
       2     1     1     2   501     0 -3.022347324E+01  1.405196949E+01  2.791403046E+02  2.811231507E+02  3.814697266E-06  0.00000E+00  9.000E+00
#rwgt            1           1  0.11261129744853682                3      175073           0
</event>
<event>
      5   9999  3.79277E-02  1.86883E+01 -1.00000E+00  1.68837E-01
       2    -1     0     0   502     0  0.000000000E+00  0.000000000E+00  3.743134489E+03  3.743134489E+03  0.000000000E+00  0.00000E+00  9.000E+00
      21    -1     0     0   501   502  0.000000000E+00  0.000000000E+00 -8.270941763E+01  8.270941763E+01  0.000000000E+00  0.00000E+00  9.000E+00
      25     1     1     2     0     0  1.451648791E+02  6.972651565E+00  9.567280615E+01  2.142422597E+02  1.250000000E+02  0.00000E+00  9.000E+00
      25     1     1     2     0     0 -1.288152238E+02  2.079568415E+00  3.208944407E+02  3.676899897E+02  1.250000000E+02  0.00000E+00  9.000E+00
       2     1     1     2   501     0 -1.634965530E+01 -9.052219980E+00  3.243857825E+03  3.243911657E+03  0.000000000E+00  0.00000E+00  9.000E+00
#rwgt            1           1   4.7309434570555614E-002           3      175395           0
</event>
<event>
      5   9999  3.79277E-02  3.19254E+01 -1.00000E+00  1.51187E-01
      21    -1     0     0   502   501  0.000000000E+00  0.000000000E+00  7.780432286E+01  7.780432286E+01  0.000000000E+00  0.00000E+00  9.000E+00
      21    -1     0     0   501   511  0.000000000E+00  0.000000000E+00 -2.079017322E+03  2.079017322E+03  0.000000000E+00  0.00000E+00  9.000E+00
      25     1     1     2     0     0 -1.338188899E+01 -1.019685974E+02 -1.108311576E+03  1.120069739E+03  1.250000000E+02  0.00000E+00  9.000E+00
      25     1     1     2     0     0  1.539175544E+01  1.338306219E+02 -4.625634631E+01  1.895051215E+02  1.250000000E+02  0.00000E+00  9.000E+00
      21     1     1     2   502   511 -2.009866450E+00 -3.186202449E+01 -8.466450770E+02  8.472467849E+02  0.000000000E+00  0.00000E+00  9.000E+00
#rwgt            1           1   4.2782176333371974E-002           3      175623           0
</event>
<event>
      5   9999  3.79277E-02  5.48151E+01 -1.00000E+00  1.36835E-01
      21    -1     0     0   502   501  0.000000000E+00  0.000000000E+00  2.328009224E+02  2.328009224E+02  0.000000000E+00  0.00000E+00  9.000E+00
      21    -1     0     0   512   502  0.000000000E+00  0.000000000E+00 -2.092719172E+02  2.092719172E+02  0.000000000E+00  0.00000E+00  9.000E+00
      25     1     1     2     0     0 -1.260680777E+02  1.608978111E+01 -3.937086123E+01  1.825571307E+02  1.250000000E+02  0.00000E+00  9.000E+00
      25     1     1     2     0     0  1.192063937E+02  3.829411281E+01  8.985378985E+01  1.984321217E+02  1.250000000E+02  0.00000E+00  9.000E+00
      21     1     1     2   512   501  6.861683950E+00 -5.438389392E+01 -2.695392341E+01  6.108358709E+01  7.539457465E-07  0.00000E+00  9.000E+00
#rwgt            1           1  0.25819528133462788                3      175810           0
</event>
<event>
      5   9999  3.79277E-02  1.71245E+01 -1.00000E+00  1.72130E-01
      21    -1     0     0   511   501  0.000000000E+00  0.000000000E+00  2.043205737E+02  2.043205737E+02  0.000000000E+00  0.00000E+00  9.000E+00
      21    -1     0     0   501   502  0.000000000E+00  0.000000000E+00 -3.985907449E+02  3.985907449E+02  0.000000000E+00  0.00000E+00  9.000E+00
      25     1     1     2     0     0  9.281572047E+01  1.314196528E+02 -9.838432051E+01  2.262528622E+02  1.250000000E+02  0.00000E+00  9.000E+00
      25     1     1     2     0     0 -7.577727185E+01 -1.331337966E+02 -1.940375325E+02  2.770241266E+02  1.250000000E+02  0.00000E+00  9.000E+00
      21     1     1     2   511   502 -1.703844862E+01  1.714143843E+00  9.815168181E+01  9.963432974E+01  2.697398305E-06  0.00000E+00  9.000E+00
#rwgt            1           1   3.5505635882927988E-002           3      175979           0
</event>
<event>
      5   9999  3.79277E-02  5.15576E+01 -1.00000E+00  1.38320E-01
      21    -1     0     0   502   501  0.000000000E+00  0.000000000E+00  2.847887111E+02  2.847887111E+02  0.000000000E+00  0.00000E+00  9.000E+00
      21    -1     0     0   512   502  0.000000000E+00  0.000000000E+00 -1.261790655E+03  1.261790655E+03  0.000000000E+00  0.00000E+00  9.000E+00
      25     1     1     2     0     0  1.840700673E+02  2.574850549E+02  1.358734280E+02  3.664245237E+02  1.250000000E+02  0.00000E+00  9.000E+00
      25     1     1     2     0     0 -1.325521102E+02 -2.554643774E+02 -7.406424404E+02  8.043682830E+02  1.250000000E+02  0.00000E+00  9.000E+00
      21     1     1     2   512   501 -5.151795706E+01 -2.020677476E+00 -3.722329310E+02  3.757865590E+02  5.394796609E-06  0.00000E+00  9.000E+00
#rwgt            1           1  0.10818918889634081                3      176217           0
</event>
<event>
      5   9999  3.79277E-02  1.23693E+02 -1.00000E+00  1.19812E-01
      21    -1     0     0   502   501  0.000000000E+00  0.000000000E+00  2.225457021E+03  2.225457021E+03  0.000000000E+00  0.00000E+00  9.000E+00
      21    -1     0     0   501   511  0.000000000E+00  0.000000000E+00 -3.001114516E+02  3.001114516E+02  0.000000000E+00  0.00000E+00  9.000E+00
      25     1     1     2     0     0  2.898700482E+00  1.183601473E+02  1.331832660E+03  1.342915023E+03  1.250000000E+02  0.00000E+00  9.000E+00
      25     1     1     2     0     0 -1.234507205E+02 -1.460580229E+02  8.594813599E+02  8.893290923E+02  1.250000000E+02  0.00000E+00  9.000E+00
      21     1     1     2   502   511  1.205520200E+02  2.769787558E+01 -2.659684501E+02  2.933243568E+02  9.344061824E-06  0.00000E+00  9.000E+00
#rwgt            1           1  0.10212586081961902                3      176413           0
</event>
<event>
      5   9999  3.79277E-02  1.91765E+01 -1.00000E+00  1.67890E-01
      21    -1     0     0   512   501  0.000000000E+00  0.000000000E+00  1.086541568E+02  1.086541568E+02  0.000000000E+00  0.00000E+00  9.000E+00
      21    -1     0     0   501   502  0.000000000E+00  0.000000000E+00 -5.224738395E+02  5.224738395E+02  0.000000000E+00  0.00000E+00  9.000E+00
      25     1     1     2     0     0 -7.131060056E+01  2.592081867E+01  2.737733108E+01  1.487669616E+02  1.250000000E+02  0.00000E+00  9.000E+00
      25     1     1     2     0     0  9.036044830E+01 -2.372089831E+01 -4.350997934E+02  4.622385984E+02  1.250000000E+02  0.00000E+00  9.000E+00
      21     1     1     2   512   502 -1.904984774E+01 -2.199920357E+00 -6.097220419E+00  2.012243637E+01  3.475518164E-07  0.00000E+00  9.000E+00
#rwgt            1           1   3.6922539187440769E-002           3      176451           0
</event>
<event>
      5   9999  3.79277E-02  7.35164E+01 -1.00000E+00  1.30152E-01
      21    -1     0     0   502   501  0.000000000E+00  0.000000000E+00  5.497071201E+01  5.497071201E+01  0.000000000E+00  0.00000E+00  9.000E+00
       2    -1     0     0   501     0  0.000000000E+00  0.000000000E+00 -2.185035537E+03  2.185035537E+03  0.000000000E+00  0.00000E+00  9.000E+00
      25     1     1     2     0     0  1.154236023E+02 -8.039166376E+01 -2.552614251E+02  3.171258784E+02  1.250000000E+02  0.00000E+00  9.000E+00
      25     1     1     2     0     0 -1.109096930E+02  7.013928513E+00 -2.783603798E+02  3.247455254E+02  1.250000000E+02  0.00000E+00  9.000E+00
       2     1     1     2   502     0 -4.513909241E+00  7.337773525E+01 -1.596443020E+03  1.598134846E+03  0.000000000E+00  0.00000E+00  9.000E+00
#rwgt            1           1  0.18172239983480981                3      176628           0
</event>
<event>
      5   9999  3.79277E-02  6.49829E+01 -1.00000E+00  1.32878E-01
      21    -1     0     0   502   511  0.000000000E+00  0.000000000E+00  3.551069467E+03  3.551069467E+03  0.000000000E+00  0.00000E+00  9.000E+00
      21    -1     0     0   501   502  0.000000000E+00  0.000000000E+00 -1.249177734E+01  1.249177734E+01  0.000000000E+00  0.00000E+00  9.000E+00
      25     1     1     2     0     0  6.069283911E+01  1.015855080E+02  1.219434927E+03  1.231523356E+03  1.250000000E+02  0.00000E+00  9.000E+00
      25     1     1     2     0     0 -1.056061211E+02 -5.462196741E+01  1.397636648E+03  1.408243379E+03  1.250000000E+02  0.00000E+00  9.000E+00
      21     1     1     2   501   511  4.491328200E+01 -4.696354062E+01  9.215061143E+02  9.237945095E+02  1.525878906E-05  0.00000E+00  9.000E+00
#rwgt            1           1   6.1745197023062921E-002           3      176781           0
</event>
<event>
      5   9999  3.79277E-02  5.49298E+01 -1.00000E+00  1.36785E-01
      21    -1     0     0   502   501  0.000000000E+00  0.000000000E+00  7.664324427E+02  7.664324427E+02  0.000000000E+00  0.00000E+00  9.000E+00
      21    -1     0     0   501   512  0.000000000E+00  0.000000000E+00 -1.233973189E+02  1.233973189E+02  0.000000000E+00  0.00000E+00  9.000E+00
      25     1     1     2     0     0 -1.505909153E+02 -6.764838373E+01  4.544986597E+02  4.994476542E+02  1.250000000E+02  0.00000E+00  9.000E+00
      25     1     1     2     0     0  2.033109646E+02  5.222519567E+01  2.185402753E+02  3.277921160E+02  1.250000000E+02  0.00000E+00  9.000E+00
      21     1     1     2   502   512 -5.272004928E+01  1.542318806E+01 -3.000381125E+01  6.258999134E+01  1.685873940E-06  0.00000E+00  9.000E+00
#rwgt            1           1   3.8131996750022809E-002           3      176863           0
</event>
<event>
      5   9999  3.79277E-02  3.47068E+01 -1.00000E+00  1.48770E-01
      21    -1     0     0   502   501  0.000000000E+00  0.000000000E+00  1.294105350E+03  1.294105350E+03  0.000000000E+00  0.00000E+00  9.000E+00
      21    -1     0     0   501   511  0.000000000E+00  0.000000000E+00 -2.427340319E+02  2.427340319E+02  0.000000000E+00  0.00000E+00  9.000E+00
      25     1     1     2     0     0 -3.343424778E+02  2.740243060E+02  8.982974985E+02  1.004707723E+03  1.250000000E+02  0.00000E+00  9.000E+00
      25     1     1     2     0     0  3.162485175E+02 -3.036413997E+02  1.779929563E+02  4.894054729E+02  1.250000000E+02  0.00000E+00  9.000E+00
      21     1     1     2   502   511  1.809396033E+01  2.961709368E+01 -2.491913645E+01  4.272618635E+01  1.011524364E-06  0.00000E+00  9.000E+00
#rwgt            1           1   7.1983989882495561E-002           3      176963           0
</event>
<event>
      5   9999 -3.79277E-02  6.62822E+01 -1.00000E+00  1.32432E-01
      21    -1     0     0   502   512  0.000000000E+00  0.000000000E+00  2.756970215E+02  2.756970215E+02  0.000000000E+00  0.00000E+00  9.000E+00
      21    -1     0     0   501   502  0.000000000E+00  0.000000000E+00 -4.257118946E+02  4.257118946E+02  0.000000000E+00  0.00000E+00  9.000E+00
      25     1     1     2     0     0  1.158916383E+02  3.000958608E+01 -1.218982685E+02  2.116970358E+02  1.250000000E+02  0.00000E+00  9.000E+00
      25     1     1     2     0     0 -1.297287417E+02 -9.483140897E+01 -2.121942126E+02  2.940644936E+02  1.250000000E+02  0.00000E+00  9.000E+00
      21     1     1     2   501   512  1.383710342E+01  6.482182289E+01  1.840776081E+02  1.956473868E+02  0.000000000E+00  0.00000E+00  9.000E+00
#rwgt            1           1 -0.19412640797517403                3      177362           0
</event>
<event>
      5   9999  3.79277E-02  4.37591E+01 -1.00000E+00  1.42462E-01
      21    -1     0     0   511   501  0.000000000E+00  0.000000000E+00  3.988691114E+02  3.988691114E+02  0.000000000E+00  0.00000E+00  9.000E+00
      21    -1     0     0   501   502  0.000000000E+00  0.000000000E+00 -1.359971844E+02  1.359971844E+02  0.000000000E+00  0.00000E+00  9.000E+00
      25     1     1     2     0     0 -1.611187220E+02  8.467754664E+00  1.044780369E+02  2.292849879E+02  1.250000000E+02  0.00000E+00  9.000E+00
      25     1     1     2     0     0  1.744310065E+02  3.321723635E+01  1.252136204E+02  2.506651383E+02  1.250000000E+02  0.00000E+00  9.000E+00
      21     1     1     2   511   502 -1.331228449E+01 -4.168499101E+01  3.318026974E+01  5.491616969E+01  4.768371582E-07  0.00000E+00  9.000E+00
#rwgt            1           1   3.8248656055476775E-002           3      177452           0
</event>
<event>
      5   9999  3.79277E-02  1.43530E+02 -1.00000E+00  1.17158E-01
      21    -1     0     0   502   512  0.000000000E+00  0.000000000E+00  2.426164784E+03  2.426164784E+03  0.000000000E+00  0.00000E+00  9.000E+00
      21    -1     0     0   501   502  0.000000000E+00  0.000000000E+00 -7.443989459E+01  7.443989459E+01  0.000000000E+00  0.00000E+00  9.000E+00
      25     1     1     2     0     0 -2.820072443E+01 -1.671381173E+01  1.448507445E+03  1.454260448E+03  1.250000000E+02  0.00000E+00  9.000E+00
      25     1     1     2     0     0 -1.150523475E+02  2.563261536E+01  4.692230132E+01  1.781032734E+02  1.250000000E+02  0.00000E+00  9.000E+00
      21     1     1     2   501   512  1.432530719E+02 -8.918803633E+00  8.562951433E+02  8.682409575E+02  0.000000000E+00  0.00000E+00  9.000E+00
#rwgt            2          11   9.1956389860367116E-004           3      177601           0
</event>
<event>
      5   9999  3.79277E-02  5.23393E+01 -1.00000E+00  1.37952E-01
      21    -1     0     0   502   501  0.000000000E+00  0.000000000E+00  4.551391506E+02  4.551391506E+02  0.000000000E+00  0.00000E+00  9.000E+00
      21    -1     0     0   501   511  0.000000000E+00  0.000000000E+00 -1.607975777E+02  1.607975777E+02  0.000000000E+00  0.00000E+00  9.000E+00
      25     1     1     2     0     0  1.670996249E+02  2.419578586E+00  1.752704261E+02  2.725304777E+02  1.250000000E+02  0.00000E+00  9.000E+00
      25     1     1     2     0     0 -2.192907315E+02  1.516702477E+00  1.380844501E+02  2.877204210E+02  1.250000000E+02  0.00000E+00  9.000E+00
      21     1     1     2   502   511  5.219110658E+01 -3.936281063E+00 -1.901330333E+01  5.568582960E+01  8.596304120E-07  0.00000E+00  9.000E+00
#rwgt            1           1   3.5212096299554824E-002           3      177636           0
</event>
<event>
      5   9999  3.79277E-02  5.11312E+01 -1.00000E+00  1.38523E-01
      21    -1     0     0   502   501  0.000000000E+00  0.000000000E+00  1.681425884E+02  1.681425884E+02  0.000000000E+00  0.00000E+00  9.000E+00
      21    -1     0     0   512   502  0.000000000E+00  0.000000000E+00 -5.558302022E+02  5.558302022E+02  0.000000000E+00  0.00000E+00  9.000E+00
      25     1     1     2     0     0  1.828596119E+01  1.487839882E+02 -3.790648087E+02  4.263639064E+02  1.250000000E+02  0.00000E+00  9.000E+00
      25     1     1     2     0     0  2.693698516E+01 -1.249243054E+02  7.956413231E+01  1.956709851E+02  1.250000000E+02  0.00000E+00  9.000E+00
      21     1     1     2   512   501 -4.522294636E+01 -2.385968275E+01 -8.818693739E+01  1.019378991E+02  1.651812370E-06  0.00000E+00  9.000E+00
#rwgt            1           1   3.7276985001704802E-002           3      177750           0
</event>
<event>
      5   9999  3.79277E-02  7.40457E+01 -1.00000E+00  1.29997E-01
      21    -1     0     0   511   501  0.000000000E+00  0.000000000E+00  3.359178978E+02  3.359178978E+02  0.000000000E+00  0.00000E+00  9.000E+00
      21    -1     0     0   501   502  0.000000000E+00  0.000000000E+00 -1.979231517E+02  1.979231517E+02  0.000000000E+00  0.00000E+00  9.000E+00
      25     1     1     2     0     0  1.966987284E+01 -3.027037465E+00 -1.339426998E+02  1.842870416E+02  1.250000000E+02  0.00000E+00  9.000E+00
      25     1     1     2     0     0  3.302301830E+00  7.341911047E+01  1.677530470E+02  2.217371321E+02  1.250000000E+02  0.00000E+00  9.000E+00
      21     1     1     2   511   502 -2.297217467E+01 -7.039207300E+01  1.041843989E+02  1.278168757E+02  0.000000000E+00  0.00000E+00  9.000E+00
#rwgt            1           1   3.9006011820232847E-002           3      177876           0
</event>
<event>
      5   9999  3.79277E-02  5.66759E+01 -1.00000E+00  1.36040E-01
      21    -1     0     0   502   501  0.000000000E+00  0.000000000E+00  8.068595018E+01  8.068595018E+01  0.000000000E+00  0.00000E+00  9.000E+00
      21    -1     0     0   512   502  0.000000000E+00  0.000000000E+00 -1.412195169E+03  1.412195169E+03  0.000000000E+00  0.00000E+00  9.000E+00
      25     1     1     2     0     0  5.831452332E+01  8.094030148E+01 -6.817364743E+01  1.738521275E+02  1.250000000E+02  0.00000E+00  9.000E+00
      25     1     1     2     0     0 -4.641011194E+01 -2.552873531E+01 -1.427019448E+02  1.969630926E+02  1.250000000E+02  0.00000E+00  9.000E+00
      21     1     1     2   512   501 -1.190441138E+01 -5.541156616E+01 -1.120633627E+03  1.122065899E+03  0.000000000E+00  0.00000E+00  9.000E+00
#rwgt            1           1   9.1420290315005648E-002           3      177948           0
</event>
<event>
      5   9999  3.79277E-02  1.02762E+01 -1.00000E+00  1.94399E-01
      21    -1     0     0   502   501  0.000000000E+00  0.000000000E+00  1.315978265E+02  1.315978265E+02  0.000000000E+00  0.00000E+00  9.000E+00
      21    -1     0     0   511   502  0.000000000E+00  0.000000000E+00 -4.104112237E+02  4.104112237E+02  0.000000000E+00  0.00000E+00  9.000E+00
      25     1     1     2     0     0  6.316057295E+01 -6.244108094E+01  5.551826654E+01  1.630810366E+02  1.250000000E+02  0.00000E+00  9.000E+00
      25     1     1     2     0     0 -7.340810772E+01  6.167448068E+01 -2.608385013E+02  3.047198970E+02  1.250000000E+02  0.00000E+00  9.000E+00
      21     1     1     2   511   501  1.024753477E+01  7.666002637E-01 -7.349316247E+01  7.420811664E+01  9.536743164E-07  0.00000E+00  9.000E+00
#rwgt            1           1   1.8180009963817967E-002           3      178036           0
</event>
<event>
      5   9999  3.79277E-02  2.82446E+01 -1.00000E+00  1.54881E-01
      21    -1     0     0   512   501  0.000000000E+00  0.000000000E+00  4.583031737E+02  4.583031737E+02  0.000000000E+00  0.00000E+00  9.000E+00
      21    -1     0     0   501   502  0.000000000E+00  0.000000000E+00 -1.073913698E+02  1.073913698E+02  0.000000000E+00  0.00000E+00  9.000E+00
      25     1     1     2     0     0  7.083376581E+01 -6.033442187E+00  2.946374226E+02  3.278567303E+02  1.250000000E+02  0.00000E+00  9.000E+00
      25     1     1     2     0     0 -7.495047363E+01 -2.190953334E+01 -2.705790044E+01  1.498490278E+02  1.250000000E+02  0.00000E+00  9.000E+00
      21     1     1     2   512   502  4.116707816E+00  2.794297552E+01  8.333228178E+01  8.798878537E+01  9.536743164E-07  0.00000E+00  9.000E+00
#rwgt            1           1   3.0415606933886247E-002           3      178379           0
</event>
<event>
      5   9999  3.79277E-02  6.87650E+01 -1.00000E+00  1.31613E-01
      21    -1     0     0   502   501  0.000000000E+00  0.000000000E+00  1.032942973E+02  1.032942973E+02  0.000000000E+00  0.00000E+00  9.000E+00
      21    -1     0     0   501   511  0.000000000E+00  0.000000000E+00 -7.965451511E+02  7.965451511E+02  0.000000000E+00  0.00000E+00  9.000E+00
      25     1     1     2     0     0  2.005847075E+02  1.182834464E+02 -1.923896681E+02  3.269005704E+02  1.250000000E+02  0.00000E+00  9.000E+00
      25     1     1     2     0     0 -1.486344665E+02 -7.323014573E+01 -4.033466170E+02  4.536169666E+02  1.250000000E+02  0.00000E+00  9.000E+00
      21     1     1     2   502   511 -5.195024094E+01 -4.505330068E+01 -9.751456873E+01  1.193219114E+02  0.000000000E+00  0.00000E+00  9.000E+00
#rwgt            1           1   3.2837580072516720E-002           3      178489           0
</event>
<event>
      5   9999  3.79277E-02  1.62563E+01 -1.00000E+00  1.74155E-01
      21    -1     0     0   512   501  0.000000000E+00  0.000000000E+00  4.465176090E+02  4.465176090E+02  0.000000000E+00  0.00000E+00  9.000E+00
      21    -1     0     0   501   502  0.000000000E+00  0.000000000E+00 -1.551100386E+02  1.551100386E+02  0.000000000E+00  0.00000E+00  9.000E+00
      25     1     1     2     0     0  2.466363535E+01  5.877168897E+01 -9.644067821E+01  1.702592457E+02  1.250000000E+02  0.00000E+00  9.000E+00
      25     1     1     2     0     0 -3.280646953E+01 -7.284155952E+01  2.366814877E+02  2.793300626E+02  1.250000000E+02  0.00000E+00  9.000E+00
      21     1     1     2   512   502  8.142834178E+00  1.406987055E+01  1.511667610E+02  1.520383394E+02  2.697398305E-06  0.00000E+00  9.000E+00
#rwgt            1           1   3.7128226237923855E-002           3      178626           0
</event>
<event>
      5   9999  3.79277E-02  8.98767E+01 -1.00000E+00  1.25949E-01
      21    -1     0     0   502   501  0.000000000E+00  0.000000000E+00  2.660127161E+03  2.660127161E+03  0.000000000E+00  0.00000E+00  9.000E+00
      21    -1     0     0   511   502  0.000000000E+00  0.000000000E+00 -3.435352687E+01  3.435352687E+01  0.000000000E+00  0.00000E+00  9.000E+00
      25     1     1     2     0     0 -2.822908531E+01  1.565916152E+02  9.576348278E+02  9.787784624E+02  1.250000000E+02  0.00000E+00  9.000E+00
      25     1     1     2     0     0  1.031186885E+02 -2.062843848E+02  1.519705248E+03  1.542178898E+03  1.250000000E+02  0.00000E+00  9.000E+00
      21     1     1     2   511   501 -7.488960320E+01  4.969276957E+01  1.484335575E+02  1.735233270E+02  3.303624740E-06  0.00000E+00  9.000E+00
#rwgt            1           1   7.1538109472432984E-002           3      178827           0
</event>
<event>
      5   9999  3.79277E-02  7.07401E+01 -1.00000E+00  1.30990E-01
      21    -1     0     0   502   501  0.000000000E+00  0.000000000E+00  2.730560036E+02  2.730560036E+02  0.000000000E+00  0.00000E+00  9.000E+00
      21    -1     0     0   501   512  0.000000000E+00  0.000000000E+00 -2.138847517E+02  2.138847517E+02  0.000000000E+00  0.00000E+00  9.000E+00
      25     1     1     2     0     0 -1.000392329E+02  9.508199117E+01  4.287754882E+01  1.910809183E+02  1.250000000E+02  0.00000E+00  9.000E+00
      25     1     1     2     0     0  6.849444734E+01 -1.583993565E+02  4.785830590E+01  2.183970304E+02  1.250000000E+02  0.00000E+00  9.000E+00
      21     1     1     2   502   512  3.154478557E+01  6.331736531E+01 -3.156460287E+01  7.746280656E+01  8.920806376E-07  0.00000E+00  9.000E+00
#rwgt            1           1   3.3307385600863132E-002           3      178919           0
</event>
<event>
      5   9999  3.79277E-02  8.03409E+01 -1.00000E+00  1.28260E-01
      21    -1     0     0   502   501  0.000000000E+00  0.000000000E+00  8.194524728E+02  8.194524728E+02  0.000000000E+00  0.00000E+00  9.000E+00
      21    -1     0     0   511   502  0.000000000E+00  0.000000000E+00 -1.878558908E+02  1.878558908E+02  0.000000000E+00  0.00000E+00  9.000E+00
      25     1     1     2     0     0  2.226283489E+02 -4.270106667E+01  5.099174925E+02  5.718632809E+02  1.250000000E+02  0.00000E+00  9.000E+00
      25     1     1     2     0     0 -3.009544690E+02  2.482134927E+01  1.357225446E+02  3.538859998E+02  1.250000000E+02  0.00000E+00  9.000E+00
      21     1     1     2   511   501  7.832612010E+01  1.787971740E+01 -1.404345514E+01  8.155908298E+01  1.823551481E-06  0.00000E+00  9.000E+00
#rwgt            1           1   2.7973328966833376E-002           3      179037           0
</event>
<event>
      5   9999  3.79277E-02  4.39768E+01 -1.00000E+00  1.42333E-01
      21    -1     0     0   502   512  0.000000000E+00  0.000000000E+00  6.394969426E+02  6.394969426E+02  0.000000000E+00  0.00000E+00  9.000E+00
      21    -1     0     0   501   502  0.000000000E+00  0.000000000E+00 -3.523457898E+02  3.523457898E+02  0.000000000E+00  0.00000E+00  9.000E+00
      25     1     1     2     0     0  2.852082550E+01  1.971134183E+02 -4.510611504E+01  2.394299455E+02  1.250000000E+02  0.00000E+00  9.000E+00
      25     1     1     2     0     0 -5.302364451E+01 -1.605952709E+02 -1.562091746E+02  2.619707123E+02  1.250000000E+02  0.00000E+00  9.000E+00
      21     1     1     2   501   512  2.450281901E+01 -3.651814744E+01  4.884664423E+02  4.904420746E+02  0.000000000E+00  0.00000E+00  9.000E+00
#rwgt            1           1   4.5173574560959190E-002           3      179141           0
</event>
<event>
      5   9999  3.79277E-02  3.09186E+02 -1.00000E+00  1.05168E-01
      21    -1     0     0   502   511  0.000000000E+00  0.000000000E+00  3.842591244E+02  3.842591244E+02  0.000000000E+00  0.00000E+00  9.000E+00
      21    -1     0     0   501   502  0.000000000E+00  0.000000000E+00 -7.006325874E+02  7.006325874E+02  0.000000000E+00  0.00000E+00  9.000E+00
      25     1     1     2     0     0  1.785229304E+02  1.142891848E+02 -8.995253205E+01  2.620093748E+02  1.250000000E+02  0.00000E+00  9.000E+00
      25     1     1     2     0     0  9.046258462E+01 -2.667440301E+02 -3.703916955E+02  4.818203658E+02  1.250000000E+02  0.00000E+00  9.000E+00
      21     1     1     2   501   511 -2.689855151E+02  1.524548452E+02  1.439707646E+02  3.410619712E+02  7.136645101E-06  0.00000E+00  9.000E+00
#rwgt            2          11   1.6837612572342261E-003           3      179226           0
</event>
<event>
      5   9999  3.79277E-02  2.63900E+01 -1.00000E+00  1.57011E-01
      21    -1     0     0   512   501  0.000000000E+00  0.000000000E+00  3.084053367E+02  3.084053367E+02  0.000000000E+00  0.00000E+00  9.000E+00
      21    -1     0     0   501   502  0.000000000E+00  0.000000000E+00 -3.362657132E+02  3.362657132E+02  0.000000000E+00  0.00000E+00  9.000E+00
      25     1     1     2     0     0 -7.403543692E+01  1.756514418E+02 -2.290245127E+02  3.231283063E+02  1.250000000E+02  0.00000E+00  9.000E+00
      25     1     1     2     0     0  6.782705212E+01 -1.500020641E+02  1.264699428E+02  2.423236981E+02  1.250000000E+02  0.00000E+00  9.000E+00
      21     1     1     2   512   502  6.208384795E+00 -2.564937772E+01  7.469419351E+01  7.921904546E+01  0.000000000E+00  0.00000E+00  9.000E+00
#rwgt            1           1   3.0454727358226928E-002           3      179261           0
</event>
<event>
      5   9999  3.79277E-02  7.39261E+01 -1.00000E+00  1.30032E-01
      21    -1     0     0   502   501  0.000000000E+00  0.000000000E+00  2.592575180E+02  2.592575180E+02  0.000000000E+00  0.00000E+00  9.000E+00
      21    -1     0     0   511   502  0.000000000E+00  0.000000000E+00 -3.177995645E+02  3.177995645E+02  0.000000000E+00  0.00000E+00  9.000E+00
      25     1     1     2     0     0 -6.165917112E+01 -4.859923261E+00  1.310407613E+02  1.913691547E+02  1.250000000E+02  0.00000E+00  9.000E+00
      25     1     1     2     0     0  4.415874584E+01 -6.696487589E+01  3.214371864E+01  1.519621929E+02  1.250000000E+02  0.00000E+00  9.000E+00
      21     1     1     2   511   501  1.750042528E+01  7.182479915E+01 -2.217265263E+02  2.337257349E+02  0.000000000E+00  0.00000E+00  9.000E+00
#rwgt            1           1   8.1712340408669454E-002           3      179520           0
</event>
<event>
      5   9999  3.79277E-02  1.28388E+02 -1.00000E+00  1.19136E-01
      21    -1     0     0   502   512  0.000000000E+00  0.000000000E+00  4.980681945E+02  4.980681945E+02  0.000000000E+00  0.00000E+00  9.000E+00
      21    -1     0     0   501   502  0.000000000E+00  0.000000000E+00 -1.875850016E+02  1.875850016E+02  0.000000000E+00  0.00000E+00  9.000E+00
      25     1     1     2     0     0  8.276399889E+01  8.860619352E+01 -9.278522575E+01  1.973196269E+02  1.250000000E+02  0.00000E+00  9.000E+00
      25     1     1     2     0     0  4.137957203E+01 -5.586598319E+01  1.709110432E+02  2.228651201E+02  1.250000000E+02  0.00000E+00  9.000E+00
      21     1     1     2   501   512 -1.241435709E+02 -3.274021032E+01  2.323573754E+02  2.654684491E+02  2.697398305E-06  0.00000E+00  9.000E+00
#rwgt            1           1   4.4182322654309734E-002           3      179720           0
</event>
<event>
      5   9999  3.79277E-02  1.87257E+02 -1.00000E+00  1.12699E-01
      21    -1     0     0   511   501  0.000000000E+00  0.000000000E+00  9.595271969E+02  9.595271969E+02  0.000000000E+00  0.00000E+00  9.000E+00
      21    -1     0     0   501   502  0.000000000E+00  0.000000000E+00 -3.372789339E+02  3.372789339E+02  0.000000000E+00  0.00000E+00  9.000E+00
      25     1     1     2     0     0 -1.459524557E+02  3.267809824E+02 -1.531105152E+02  4.088468657E+02  1.250000000E+02  0.00000E+00  9.000E+00
      25     1     1     2     0     0  3.560678834E+01 -1.754898321E+02  2.594753021E+02  3.391414999E+02  1.250000000E+02  0.00000E+00  9.000E+00
      21     1     1     2   511   502  1.103456673E+02 -1.512911502E+02  5.158834761E+02  5.488177651E+02  7.629394531E-06  0.00000E+00  9.000E+00
#rwgt            1           1   3.5802891117422068E-002           3      179886           0
</event>
<event>
      5   9999  3.79277E-02  9.94329E+01 -1.00000E+00  1.23939E-01
      21    -1     0     0   502   501  0.000000000E+00  0.000000000E+00  8.963238347E+01  8.963238347E+01  0.000000000E+00  0.00000E+00  9.000E+00
      21    -1     0     0   512   502  0.000000000E+00  0.000000000E+00 -6.250501860E+02  6.250501860E+02  0.000000000E+00  0.00000E+00  9.000E+00
      25     1     1     2     0     0  8.744565275E+01  1.341103347E+02 -2.692871027E+02  3.373023387E+02  1.250000000E+02  0.00000E+00  9.000E+00
      25     1     1     2     0     0  5.821708609E+00 -9.964154502E+01 -1.171741937E+02  1.982854544E+02  1.250000000E+02  0.00000E+00  9.000E+00
      21     1     1     2   512   501 -9.326736136E+01 -3.446878964E+01 -1.489565063E+02  1.790947763E+02  1.907348633E-06  0.00000E+00  9.000E+00
#rwgt            1           1   3.4651685450939280E-002           3      179956           0
</event>
<event>
      5   9999  3.79277E-02  1.16654E+02 -1.00000E+00  1.20892E-01
      21    -1     0     0   502   501  0.000000000E+00  0.000000000E+00  1.761274780E+02  1.761274780E+02  0.000000000E+00  0.00000E+00  9.000E+00
       2    -1     0     0   501     0  0.000000000E+00  0.000000000E+00 -5.050915110E+02  5.050915110E+02  0.000000000E+00  0.00000E+00  9.000E+00
      25     1     1     2     0     0  1.253875600E+01  1.229650927E+02 -4.257933035E+01  1.808746356E+02  1.250000000E+02  0.00000E+00  9.000E+00
      25     1     1     2     0     0 -1.035806126E+02 -1.959004092E+02 -8.615999530E+01  2.686158193E+02  1.250000000E+02  0.00000E+00  9.000E+00
       2     1     1     2   502     0  9.104185658E+01  7.293531646E+01 -2.002247074E+02  2.317285341E+02  3.814697266E-06  0.00000E+00  9.000E+00
#rwgt            1           1   4.0457953213687260E-002           3      180078           0
</event>
<event>
      5   9999  3.79277E-02  3.97356E+01 -1.00000E+00  1.45019E-01
      21    -1     0     0   511   501  0.000000000E+00  0.000000000E+00  1.611764272E+02  1.611764272E+02  0.000000000E+00  0.00000E+00  9.000E+00
      21    -1     0     0   501   502  0.000000000E+00  0.000000000E+00 -3.496753851E+02  3.496753851E+02  0.000000000E+00  0.00000E+00  9.000E+00
      25     1     1     2     0     0  8.842126965E+01  1.094394229E+01 -2.466542933E+02  2.905192442E+02  1.250000000E+02  0.00000E+00  9.000E+00
      25     1     1     2     0     0 -1.082972881E+02 -4.535120130E+01  5.650555306E+01  1.805627636E+02  1.250000000E+02  0.00000E+00  9.000E+00
      21     1     1     2   511   502  1.987601840E+01  3.440725900E+01  1.649782367E+00  3.976980464E+01  2.819432010E-07  0.00000E+00  9.000E+00
#rwgt            1           1   4.5685319913548024E-002           3      180195           0
</event>
<event>
      5   9999 -3.79277E-02  5.00122E+01 -1.00000E+00  1.39069E-01
      21    -1     0     0   502   501  0.000000000E+00  0.000000000E+00  1.583602705E+03  1.583602705E+03  0.000000000E+00  0.00000E+00  9.000E+00
       2    -1     0     0   501     0  0.000000000E+00  0.000000000E+00 -8.285092601E+01  8.285092601E+01  0.000000000E+00  0.00000E+00  9.000E+00
      25     1     1     2     0     0 -5.556720231E+01 -1.140063399E+02  5.724931912E+02  5.995486748E+02  1.250000000E+02  0.00000E+00  9.000E+00
      25     1     1     2     0     0  7.733004341E+01  6.897748127E+01  9.809273537E+02  9.942742588E+02  1.250000000E+02  0.00000E+00  9.000E+00
       2     1     1     2   502     0 -2.176284110E+01  4.502885860E+01 -5.266876566E+01  7.263069762E+01  3.015782986E-06  0.00000E+00  9.000E+00
#rwgt            1           1  -7.9866365569962409E-003           3      180424           0
</event>
<event>
      5   9999  3.79277E-02  1.13545E+02 -1.00000E+00  1.21397E-01
      21    -1     0     0   502   501  0.000000000E+00  0.000000000E+00  1.702882515E+02  1.702882515E+02  0.000000000E+00  0.00000E+00  9.000E+00
      -4    -1     0     0     0   502  0.000000000E+00  0.000000000E+00 -2.042650528E+03  2.042650528E+03  0.000000000E+00  0.00000E+00  9.000E+00
      25     1     1     2     0     0  3.299096595E+02  4.707541767E+01 -3.365142044E+02  4.898196486E+02  1.250000000E+02  0.00000E+00  9.000E+00
      25     1     1     2     0     0 -2.196192171E+02 -2.008699035E+01 -8.431493502E+01  2.671518219E+02  1.250000000E+02  0.00000E+00  9.000E+00
      -4     1     1     2     0   501 -1.102904424E+02 -2.698842732E+01 -1.451533137E+03  1.455967309E+03  2.157918644E-05  0.00000E+00  9.000E+00
#rwgt            1           1   3.4658172525771004E-002           3      180559           0
</event>
<event>
      5   9999  3.79277E-02  4.99643E+01 -1.00000E+00  1.39093E-01
       2    -1     0     0   502     0  0.000000000E+00  0.000000000E+00  1.526829387E+03  1.526829387E+03  0.000000000E+00  0.00000E+00  9.000E+00
      21    -1     0     0   501   502  0.000000000E+00  0.000000000E+00 -4.770697184E+01  4.770697184E+01  0.000000000E+00  0.00000E+00  9.000E+00
      25     1     1     2     0     0  2.295998128E+02  4.047093354E+01  6.978473442E+02  7.463041513E+02  1.250000000E+02  0.00000E+00  9.000E+00
      25     1     1     2     0     0 -1.863682238E+02 -1.542173965E+01  6.425323157E+02  6.807670098E+02  1.250000000E+02  0.00000E+00  9.000E+00
       2     1     1     2   501     0 -4.323158904E+01 -2.504919388E+01  1.387427553E+02  1.474651978E+02  1.907348633E-06  0.00000E+00  9.000E+00
#rwgt            1           1   2.9974144444126258E-002           3      180758           0
</event>
<event>
      5   9999  3.79277E-02  7.47948E+01 -1.00000E+00  1.29780E-01
      21    -1     0     0   502   511  0.000000000E+00  0.000000000E+00  2.229637218E+03  2.229637218E+03  0.000000000E+00  0.00000E+00  9.000E+00
      21    -1     0     0   501   502  0.000000000E+00  0.000000000E+00 -5.648157790E+01  5.648157790E+01  0.000000000E+00  0.00000E+00  9.000E+00
      25     1     1     2     0     0 -1.337510258E+02 -5.933612333E+01  1.702394457E+02  2.569369208E+02  1.250000000E+02  0.00000E+00  9.000E+00
      25     1     1     2     0     0  2.085127849E+02  5.711377522E+01  1.474421573E+03  1.495420857E+03  1.250000000E+02  0.00000E+00  9.000E+00
      21     1     1     2   501   511 -7.476175913E+01  2.222348118E+00  5.284946219E+02  5.337610185E+02  1.078959322E-05  0.00000E+00  9.000E+00
#rwgt            1           1   4.0229423982838276E-002           3      180907           0
</event>
<event>
      5   9999  3.79277E-02  1.11447E+01 -1.00000E+00  1.90469E-01
      21    -1     0     0   502   512  0.000000000E+00  0.000000000E+00  7.945652848E+01  7.945652848E+01  0.000000000E+00  0.00000E+00  9.000E+00
      21    -1     0     0   501   502  0.000000000E+00  0.000000000E+00 -7.498778427E+02  7.498778427E+02  0.000000000E+00  0.00000E+00  9.000E+00
      25     1     1     2     0     0 -1.146728118E+02  6.116369280E+00 -6.293146918E+01  1.810321340E+02  1.250000000E+02  0.00000E+00  9.000E+00
      25     1     1     2     0     0  1.093292647E+02  3.663749654E+00 -6.135354578E+02  6.356233706E+02  1.250000000E+02  0.00000E+00  9.000E+00
      21     1     1     2   501   512  5.343547156E+00 -9.780118934E+00  6.045612830E+00  1.267886655E+01  3.674277069E-07  0.00000E+00  9.000E+00
#rwgt            1           1   1.7696813085377332E-002           3      181033           0
</event>
<event>
      5   9999  3.79277E-02  2.71274E+01 -1.00000E+00  1.56139E-01
      21    -1     0     0   511   501  0.000000000E+00  0.000000000E+00  2.567846940E+01  2.567846940E+01  0.000000000E+00  0.00000E+00  9.000E+00
      21    -1     0     0   501   502  0.000000000E+00  0.000000000E+00 -1.861826618E+03  1.861826618E+03  0.000000000E+00  0.00000E+00  9.000E+00
      25     1     1     2     0     0  6.702611622E+00 -1.184879100E+02 -1.393562213E+03  1.404181239E+03  1.250000000E+02  0.00000E+00  9.000E+00
      25     1     1     2     0     0  1.880626576E+01  1.092579970E+02 -3.793016230E+02  4.144703931E+02  1.250000000E+02  0.00000E+00  9.000E+00
      21     1     1     2   511   502 -2.550887739E+01  9.229913032E+00 -6.328431280E+01  6.885345574E+01  1.907348633E-06  0.00000E+00  9.000E+00
#rwgt            1           1   1.9825830598840823E-002           3      181610           0
</event>
<event>
      5   9999  3.79277E-02  3.24794E+01 -1.00000E+00  1.50683E-01
      21    -1     0     0   502   512  0.000000000E+00  0.000000000E+00  9.423586971E+02  9.423586971E+02  0.000000000E+00  0.00000E+00  9.000E+00
      21    -1     0     0   501   502  0.000000000E+00  0.000000000E+00 -9.324453778E+01  9.324453778E+01  0.000000000E+00  0.00000E+00  9.000E+00
      25     1     1     2     0     0 -2.483234736E+02 -1.367577509E+01  4.043287660E+02  4.908750609E+02  1.250000000E+02  0.00000E+00  9.000E+00
      25     1     1     2     0     0  2.189799673E+02  2.759942550E+01  2.843713617E+02  3.810590842E+02  1.250000000E+02  0.00000E+00  9.000E+00
      21     1     1     2   501   512  2.934350632E+01 -1.392365041E+01  1.604140317E+02  1.636690898E+02  1.907348633E-06  0.00000E+00  9.000E+00
#rwgt            1           1   4.0809858244350440E-002           3      181776           0
</event>
<event>
      5   9999  3.79277E-02  1.23106E+01 -1.00000E+00  1.85869E-01
      21    -1     0     0   502   511  0.000000000E+00  0.000000000E+00  5.727664834E+02  5.727664834E+02  0.000000000E+00  0.00000E+00  9.000E+00
      21    -1     0     0   501   502  0.000000000E+00  0.000000000E+00 -6.519059595E+01  6.519059595E+01  0.000000000E+00  0.00000E+00  9.000E+00
      25     1     1     2     0     0 -6.889543157E+01  1.413542756E+00  4.269464987E+02  4.501742900E+02  1.250000000E+02  0.00000E+00  9.000E+00
      25     1     1     2     0     0  6.430789824E+01 -1.283747706E+01  4.205047029E+01  1.472872997E+02  1.250000000E+02  0.00000E+00  9.000E+00
      21     1     1     2   501   511  4.587533325E+00  1.142393431E+01  3.857891848E+01  4.049548972E+01  4.768371582E-07  0.00000E+00  9.000E+00
#rwgt            1           1   3.7687765049174392E-002           3      181939           0
</event>
<event>
      5   9999  3.79277E-02  7.07028E+01 -1.00000E+00  1.31001E-01
      21    -1     0     0   502   501  0.000000000E+00  0.000000000E+00  3.730364426E+02  3.730364426E+02  0.000000000E+00  0.00000E+00  9.000E+00
      21    -1     0     0   501   512  0.000000000E+00  0.000000000E+00 -3.006859883E+02  3.006859883E+02  0.000000000E+00  0.00000E+00  9.000E+00
      25     1     1     2     0     0 -7.924380529E+01  2.196287235E+01  2.962339178E+02  3.318757034E+02  1.250000000E+02  0.00000E+00  9.000E+00
      25     1     1     2     0     0  1.302108430E+02  2.703957924E+01 -1.289186955E+02  2.234525286E+02  1.250000000E+02  0.00000E+00  9.000E+00
      21     1     1     2   502   512 -5.096703769E+01 -4.900245158E+01 -9.496476800E+01  1.183941990E+02  2.336015456E-06  0.00000E+00  9.000E+00
#rwgt            1           1   4.4827410536193137E-002           3      182291           0
</event>
<event>
      5   9999  3.79277E-02  6.55943E+01 -1.00000E+00  1.32667E-01
      21    -1     0     0   502   501  0.000000000E+00  0.000000000E+00  2.546045909E+01  2.546045909E+01  0.000000000E+00  0.00000E+00  9.000E+00
       2    -1     0     0   501     0  0.000000000E+00  0.000000000E+00 -2.424476970E+03  2.424476970E+03  0.000000000E+00  0.00000E+00  9.000E+00
      25     1     1     2     0     0 -4.927731123E+01 -1.125298921E+02 -7.912791967E+02  8.104560427E+02  1.250000000E+02  0.00000E+00  9.000E+00
      25     1     1     2     0     0  9.894980736E+00  1.649859484E+02 -7.173771624E+02  7.467082877E+02  1.250000000E+02  0.00000E+00  9.000E+00
       2     1     1     2   502     0  3.938233049E+01 -5.245605629E+01 -8.903601514E+02  8.927730983E+02  1.078959322E-05  0.00000E+00  9.000E+00
#rwgt            1           1   3.6094701017771028E-002           3      182383           0
</event>
<event>
      5   9999  3.79277E-02  3.16112E+01 -1.00000E+00  1.51478E-01
      21    -1     0     0   502   501  0.000000000E+00  0.000000000E+00  5.831329076E+01  5.831329076E+01  0.000000000E+00  0.00000E+00  9.000E+00
      21    -1     0     0   501   511  0.000000000E+00  0.000000000E+00 -1.060134745E+03  1.060134745E+03  0.000000000E+00  0.00000E+00  9.000E+00
      25     1     1     2     0     0  8.130334709E+01 -9.470538498E+01 -1.658991784E+02  2.423362985E+02  1.250000000E+02  0.00000E+00  9.000E+00
      25     1     1     2     0     0 -1.116695887E+02  1.034893997E+02 -4.808667671E+02  5.196518070E+02  1.250000000E+02  0.00000E+00  9.000E+00
      21     1     1     2   502   511  3.036624157E+01 -8.784014667E+00 -3.550555091E+02  3.564599306E+02  5.394796609E-06  0.00000E+00  9.000E+00
#rwgt            1           1   3.3458881530242672E-002           3      182476           0
</event>
<event>
      5   9999  3.79277E-02  9.92239E+00 -1.00000E+00  1.96149E-01
      21    -1     0     0   502   501  0.000000000E+00  0.000000000E+00  9.600311834E+01  9.600311834E+01  0.000000000E+00  0.00000E+00  9.000E+00
      21    -1     0     0   512   502  0.000000000E+00  0.000000000E+00 -9.920937123E+02  9.920937123E+02  0.000000000E+00  0.00000E+00  9.000E+00
      25     1     1     2     0     0 -1.106636076E+02 -1.075054874E+00 -5.908092603E+02  6.139447629E+02  1.250000000E+02  0.00000E+00  9.000E+00
      25     1     1     2     0     0  1.133634183E+02  1.062308036E+01 -3.742445217E-01  1.690835726E+02  1.250000000E+02  0.00000E+00  9.000E+00
      21     1     1     2   512   501 -2.699810714E+00 -9.548025490E+00 -3.049070892E+02  3.050684952E+02  5.394796609E-06  0.00000E+00  9.000E+00
#rwgt            1           1   3.5227696652077138E-002           3      182569           0
</event>
<event>
      5   9999  3.79277E-02  2.62269E+01 -1.00000E+00  1.57208E-01
      21    -1     0     0   511   501  0.000000000E+00  0.000000000E+00  1.288199945E+02  1.288199945E+02  0.000000000E+00  0.00000E+00  9.000E+00
      21    -1     0     0   501   502  0.000000000E+00  0.000000000E+00 -4.531620271E+02  4.531620271E+02  0.000000000E+00  0.00000E+00  9.000E+00
      25     1     1     2     0     0  1.736553631E+02  6.572632178E+01 -2.570097605E+02  3.408154214E+02  1.250000000E+02  0.00000E+00  9.000E+00
      25     1     1     2     0     0 -1.474470029E+02 -6.474167740E+01 -5.054868447E+01  2.100292193E+02  1.250000000E+02  0.00000E+00  9.000E+00
      21     1     1     2   511   502 -2.620836022E+01 -9.846443832E-01 -1.678358770E+01  3.113738085E+01  6.743495762E-07  0.00000E+00  9.000E+00
#rwgt            1           1   3.4703862756521812E-002           3      182964           0
</event>
<event>
      5   9999  3.79277E-02  1.63420E+02 -1.00000E+00  1.14938E-01
      21    -1     0     0   502   512  0.000000000E+00  0.000000000E+00  7.053373417E+02  7.053373417E+02  0.000000000E+00  0.00000E+00  9.000E+00
      21    -1     0     0   501   502  0.000000000E+00  0.000000000E+00 -1.782274057E+02  1.782274057E+02  0.000000000E+00  0.00000E+00  9.000E+00
      25     1     1     2     0     0  8.907624180E+01  1.777874190E+02  1.039113650E+02  2.568375265E+02  1.250000000E+02  0.00000E+00  9.000E+00
      25     1     1     2     0     0  7.192527954E+01 -1.497774413E+02  4.220160840E+01  2.121615033E+02  1.250000000E+02  0.00000E+00  9.000E+00
      21     1     1     2   501   512 -1.610015213E+02 -2.800997780E+01  3.809969626E+02  4.145657176E+02  5.394796609E-06  0.00000E+00  9.000E+00
#rwgt            1           1   3.5649779908020901E-002           3      183173           0
</event>
<event>
      5   9999  3.79277E-02  1.40970E+01 -1.00000E+00  1.79962E-01
      21    -1     0     0   502   501  0.000000000E+00  0.000000000E+00  3.104474684E+02  3.104474684E+02  0.000000000E+00  0.00000E+00  9.000E+00
      21    -1     0     0   511   502  0.000000000E+00  0.000000000E+00 -1.308839235E+02  1.308839235E+02  0.000000000E+00  0.00000E+00  9.000E+00
      25     1     1     2     0     0  1.422681247E+02 -4.330206910E+01  1.121215044E+02  2.243022966E+02  1.250000000E+02  0.00000E+00  9.000E+00
      25     1     1     2     0     0 -1.287249938E+02  4.721466465E+01  7.604175119E+01  2.005160754E+02  1.250000000E+02  0.00000E+00  9.000E+00
      21     1     1     2   511   501 -1.354313092E+01 -3.912595556E+00 -8.599710744E+00  1.651301983E+01  2.384185791E-07  0.00000E+00  9.000E+00
#rwgt            1           1   4.1749328144960768E-002           3      183217           0
</event>
<event>
      5   9999  3.79277E-02  6.42882E+01 -1.00000E+00  1.33121E-01
      21    -1     0     0   502   501  0.000000000E+00  0.000000000E+00  1.935766674E+01  1.935766674E+01  0.000000000E+00  0.00000E+00  9.000E+00
       1    -1     0     0   501     0  0.000000000E+00  0.000000000E+00 -2.053041831E+03  2.053041831E+03  0.000000000E+00  0.00000E+00  9.000E+00
      25     1     1     2     0     0 -7.294486572E+01 -1.921385750E+00 -5.212384479E+02  5.409613339E+02  1.250000000E+02  0.00000E+00  9.000E+00
      25     1     1     2     0     0  7.759547449E+01 -6.219841404E+01 -7.806733130E+02  7.968472388E+02  1.250000000E+02  0.00000E+00  9.000E+00
       1     1     1     2   502     0 -4.650608773E+00  6.411979979E+01 -7.317724035E+02  7.345909252E+02  0.000000000E+00  0.00000E+00  9.000E+00
#rwgt            1           1  0.11741652652571356                3      183495           0
</event>
<event>
      5   9999  3.79277E-02  4.35824E+01 -1.00000E+00  1.42567E-01
      21    -1     0     0   502   501  0.000000000E+00  0.000000000E+00  1.076837850E+03  1.076837850E+03  0.000000000E+00  0.00000E+00  9.000E+00
      21    -1     0     0   511   502  0.000000000E+00  0.000000000E+00 -2.944222004E+02  2.944222004E+02  0.000000000E+00  0.00000E+00  9.000E+00
      25     1     1     2     0     0  2.677069371E+01 -7.118045984E+01  6.411559369E+01  1.597471041E+02  1.250000000E+02  0.00000E+00  9.000E+00
      25     1     1     2     0     0 -1.568618955E+01  1.133297443E+02  9.554658082E+02  9.703760086E+02  1.250000000E+02  0.00000E+00  9.000E+00
      21     1     1     2   511   501 -1.108450416E+01 -4.214928446E+01 -2.371657526E+02  2.411369375E+02  5.394796609E-06  0.00000E+00  9.000E+00
#rwgt            2          11   6.2947007351816121E-003           3      183558           0
</event>
<event>
      5   9999  3.79277E-02  4.18340E+01 -1.00000E+00  1.43643E-01
      21    -1     0     0   512   501  0.000000000E+00  0.000000000E+00  1.847198096E+01  1.847198096E+01  0.000000000E+00  0.00000E+00  9.000E+00
      21    -1     0     0   501   502  0.000000000E+00  0.000000000E+00 -2.244703880E+03  2.244703880E+03  0.000000000E+00  0.00000E+00  9.000E+00
      25     1     1     2     0     0  7.439790942E+01 -5.339864591E+01 -6.028807673E+02  6.224762516E+02  1.250000000E+02  0.00000E+00  9.000E+00
      25     1     1     2     0     0 -6.227877617E+01  9.343870897E+01 -1.519147941E+03  1.528412544E+03  1.250000000E+02  0.00000E+00  9.000E+00
      21     1     1     2   512   502 -1.211913325E+01 -4.004006306E+01 -1.042031901E+02  1.122870645E+02  2.697398305E-06  0.00000E+00  9.000E+00
#rwgt            1           1   9.1917481001219006E-002           3      183638           0
</event>
<event>
      5   9999  3.79277E-02  3.44473E+01 -1.00000E+00  1.48984E-01
      21    -1     0     0   502   501  0.000000000E+00  0.000000000E+00  5.751340998E+02  5.751340998E+02  0.000000000E+00  0.00000E+00  9.000E+00
      21    -1     0     0   511   502  0.000000000E+00  0.000000000E+00 -1.752470779E+02  1.752470779E+02  0.000000000E+00  0.00000E+00  9.000E+00
      25     1     1     2     0     0  6.065795435E+00 -1.789864115E+01  4.375969927E+02  4.554923526E+02  1.250000000E+02  0.00000E+00  9.000E+00
      25     1     1     2     0     0 -4.046582102E+01  1.609438840E+01  9.166314142E+01  1.610082094E+02  1.250000000E+02  0.00000E+00  9.000E+00
      21     1     1     2   511   501  3.440002558E+01  1.804252752E+00 -1.293731122E+02  1.338806157E+02  3.303624740E-06  0.00000E+00  9.000E+00
#rwgt            1           1   4.0605740444680703E-002           3      183955           0
</event>
<event>
      5   9999  3.79277E-02  1.24903E+01 -1.00000E+00  1.85218E-01
      21    -1     0     0   502   512  0.000000000E+00  0.000000000E+00  1.953848002E+02  1.953848002E+02  0.000000000E+00  0.00000E+00  9.000E+00
      21    -1     0     0   501   502  0.000000000E+00  0.000000000E+00 -4.543938534E+02  4.543938534E+02  0.000000000E+00  0.00000E+00  9.000E+00
      25     1     1     2     0     0 -3.591877497E+00  2.124623878E+02 -9.788319518E+01  2.652532520E+02  1.250000000E+02  0.00000E+00  9.000E+00
      25     1     1     2     0     0 -8.439128482E+00 -2.158183377E+02 -2.148959890E+02  3.293236400E+02  1.250000000E+02  0.00000E+00  9.000E+00
      21     1     1     2   501   512  1.203100598E+01  3.355949843E+00  5.377013094E+01  5.520176161E+01  6.743495762E-07  0.00000E+00  9.000E+00
#rwgt            1           1   4.0352975503196373E-002           3      184088           0
</event>
<event>
      5   9999  3.79277E-02  6.06100E+01 -1.00000E+00  1.34469E-01
      21    -1     0     0   511   501  0.000000000E+00  0.000000000E+00  1.821253033E+02  1.821253033E+02  0.000000000E+00  0.00000E+00  9.000E+00
      21    -1     0     0   501   502  0.000000000E+00  0.000000000E+00 -3.889708212E+02  3.889708212E+02  0.000000000E+00  0.00000E+00  9.000E+00
      25     1     1     2     0     0 -1.247326710E+02 -6.413134007E+01 -8.507767964E+01  2.062384047E+02  1.250000000E+02  0.00000E+00  9.000E+00
      25     1     1     2     0     0  1.539513624E+02  1.102917052E+01 -1.891182680E+02  2.742505859E+02  1.250000000E+02  0.00000E+00  9.000E+00
      21     1     1     2   511   502 -2.921869138E+01  5.310216954E+01  6.735042970E+01  9.060713392E+01  1.348699152E-06  0.00000E+00  9.000E+00
#rwgt            1           1   2.2374539066765429E-002           3      184435           0
</event>
<event>
      5   9999  3.79277E-02  4.79421E+01 -1.00000E+00  1.40125E-01
      21    -1     0     0   502   501  0.000000000E+00  0.000000000E+00  2.358088494E+02  2.358088494E+02  0.000000000E+00  0.00000E+00  9.000E+00
      21    -1     0     0   512   502  0.000000000E+00  0.000000000E+00 -1.465492224E+02  1.465492224E+02  0.000000000E+00  0.00000E+00  9.000E+00
      25     1     1     2     0     0 -2.898415762E+01 -5.405187305E+01  1.298602144E+02  1.903952774E+02  1.250000000E+02  0.00000E+00  9.000E+00
      25     1     1     2     0     0  5.871632705E+01  1.644278526E+01 -3.682835765E+01  1.438725136E+02  1.250000000E+02  0.00000E+00  9.000E+00
      21     1     1     2   512   501 -2.973216943E+01  3.760908778E+01 -3.772229701E+00  4.809028072E+01  1.310624685E-06  0.00000E+00  9.000E+00
#rwgt            1           1   4.9229321487993145E-002           3      184508           0
</event>
<event>
      5   9999  3.79277E-02  8.19827E+01 -1.00000E+00  1.27837E-01
      21    -1     0     0   502   501  0.000000000E+00  0.000000000E+00  2.942761035E+02  2.942761035E+02  0.000000000E+00  0.00000E+00  9.000E+00
      21    -1     0     0   511   502  0.000000000E+00  0.000000000E+00 -1.022495119E+03  1.022495119E+03  0.000000000E+00  0.00000E+00  9.000E+00
      25     1     1     2     0     0 -1.298446348E+02 -1.624385068E+02 -1.793150488E+02  3.017031395E+02  1.250000000E+02  0.00000E+00  9.000E+00
      25     1     1     2     0     0  4.943390409E+01  1.784157479E+02  1.767154979E+02  2.848319806E+02  1.250000000E+02  0.00000E+00  9.000E+00
      21     1     1     2   511   501  8.041073072E+01 -1.597724114E+01 -7.256194641E+02  7.302361019E+02  1.078959322E-05  0.00000E+00  9.000E+00
#rwgt            1           1   4.3254204061362177E-002           3      184640           0
</event>
<event>
      5   9999  3.79277E-02  2.37191E+01 -1.00000E+00  1.60481E-01
      21    -1     0     0   502   501  0.000000000E+00  0.000000000E+00  1.944537620E+02  1.944537620E+02  0.000000000E+00  0.00000E+00  9.000E+00
      21    -1     0     0   512   502  0.000000000E+00  0.000000000E+00 -3.225454517E+02  3.225454517E+02  0.000000000E+00  0.00000E+00  9.000E+00
      25     1     1     2     0     0 -1.689660804E+02 -4.228308815E+00 -7.915942747E+01  2.246299843E+02  1.250000000E+02  0.00000E+00  9.000E+00
      25     1     1     2     0     0  1.926421893E+02  2.800624740E+00  8.930290880E+00  2.298338676E+02  1.250000000E+02  0.00000E+00  9.000E+00
      21     1     1     2   512   501 -2.367610892E+01  1.427684075E+00 -5.786255315E+01  6.253536178E+01  1.168007728E-06  0.00000E+00  9.000E+00
#rwgt            1           1   3.7191403476562038E-002           3      184762           0
</event>
<event>
      5   9999  3.79277E-02  5.90130E+00 -1.00000E+00  2.26596E-01
      21    -1     0     0   502   501  0.000000000E+00  0.000000000E+00  6.899640676E+01  6.899640676E+01  0.000000000E+00  0.00000E+00  9.000E+00
      21    -1     0     0   511   502  0.000000000E+00  0.000000000E+00 -4.932717388E+02  4.932717388E+02  0.000000000E+00  0.00000E+00  9.000E+00
      25     1     1     2     0     0  5.372374590E+00 -1.240341674E+02 -1.619592840E+02  2.393097298E+02  1.250000000E+02  0.00000E+00  9.000E+00
      25     1     1     2     0     0 -5.971141693E-01  1.275014684E+02 -2.357032693E+02  2.956991920E+02  1.250000000E+02  0.00000E+00  9.000E+00
      21     1     1     2   511   501 -4.775260421E+00 -3.467300954E+00 -2.661277878E+01  2.725922380E+01  4.768371582E-07  0.00000E+00  9.000E+00
#rwgt            1           1  0.29686344967413636                3      184994           0
</event>
<event>
      5   9999  3.79277E-02  5.29838E+01 -1.00000E+00  1.37654E-01
      21    -1     0     0   512   501  0.000000000E+00  0.000000000E+00  5.191576679E+02  5.191576679E+02  0.000000000E+00  0.00000E+00  9.000E+00
      21    -1     0     0   501   502  0.000000000E+00  0.000000000E+00 -2.798917135E+02  2.798917135E+02  0.000000000E+00  0.00000E+00  9.000E+00
      25     1     1     2     0     0 -3.995614532E+01 -7.563513246E+01  3.076180354E+02  3.428863113E+02  1.250000000E+02  0.00000E+00  9.000E+00
      25     1     1     2     0     0  4.018775100E+01  1.286183821E+02 -2.251551551E+02  2.906502837E+02  1.250000000E+02  0.00000E+00  9.000E+00
      21     1     1     2   512   502 -2.316056809E-01 -5.298324962E+01  1.568030742E+02  1.655127864E+02  1.907348633E-06  0.00000E+00  9.000E+00
#rwgt            1           1   3.2446609248809433E-002           3      185416           0
</event>
<event>
      5   9999  3.79277E-02  3.55254E+01 -1.00000E+00  1.48109E-01
      21    -1     0     0   511   501  0.000000000E+00  0.000000000E+00  4.045110932E+02  4.045110932E+02  0.000000000E+00  0.00000E+00  9.000E+00
      21    -1     0     0   501   502  0.000000000E+00  0.000000000E+00 -2.303514764E+02  2.303514764E+02  0.000000000E+00  0.00000E+00  9.000E+00
      25     1     1     2     0     0 -1.287345848E+02  3.864568544E+01 -9.932609066E+00  1.838198549E+02  1.250000000E+02  0.00000E+00  9.000E+00
      25     1     1     2     0     0  1.514327638E+02 -6.597422740E+01 -5.095895799E+01  2.133220477E+02  1.250000000E+02  0.00000E+00  9.000E+00
      21     1     1     2   511   502 -2.269817893E+01  2.732854196E+01  2.350511838E+02  2.377206670E+02  2.697398305E-06  0.00000E+00  9.000E+00
#rwgt            1           1   4.3592846488695443E-002           3      185682           0
</event>
<event>
      5   9999  3.79277E-02  6.81507E+01 -1.00000E+00  1.31812E-01
      21    -1     0     0   502   501  0.000000000E+00  0.000000000E+00  1.751226633E+03  1.751226633E+03  0.000000000E+00  0.00000E+00  9.000E+00
      21    -1     0     0   512   502  0.000000000E+00  0.000000000E+00 -6.847183817E+01  6.847183817E+01  0.000000000E+00  0.00000E+00  9.000E+00
      25     1     1     2     0     0 -1.518196674E+01  1.293532047E+02  3.312690893E+02  3.772624461E+02  1.250000000E+02  0.00000E+00  9.000E+00
      25     1     1     2     0     0 -8.110055216E+00 -6.530635681E+01  1.365559897E+03  1.372847233E+03  1.250000000E+02  0.00000E+00  9.000E+00
      21     1     1     2   512   501  2.329202195E+01 -6.404684792E+01 -1.407419200E+01  6.958879145E+01  2.390138823E-06  0.00000E+00  9.000E+00
#rwgt            1           1   1.5973840093826443E-002           3      185890           0
</event>
<event>
      5   9999  3.79277E-02  8.81834E+01 -1.00000E+00  1.26335E-01
      21    -1     0     0   511   501  0.000000000E+00  0.000000000E+00  7.300418032E+02  7.300418032E+02  0.000000000E+00  0.00000E+00  9.000E+00
      21    -1     0     0   501   502  0.000000000E+00  0.000000000E+00 -4.314345660E+02  4.314345660E+02  0.000000000E+00  0.00000E+00  9.000E+00
      25     1     1     2     0     0  1.370321976E+00  1.075920257E+02 -3.055639807E+02  3.472351769E+02  1.250000000E+02  0.00000E+00  9.000E+00
      25     1     1     2     0     0 -8.501298726E+01 -1.355244558E+02 -6.492866167E-01  2.030258794E+02  1.250000000E+02  0.00000E+00  9.000E+00
      21     1     1     2   511   502  8.364266528E+01  2.793243009E+01  6.048205045E+02  6.112153129E+02  1.321449896E-05  0.00000E+00  9.000E+00
#rwgt            1           1   1.8257391483033403E-002           3      186088           0
</event>
<event>
      5   9999  3.79277E-02  1.33232E+01 -1.00000E+00  1.82375E-01
      21    -1     0     0   502   512  0.000000000E+00  0.000000000E+00  4.125276494E+02  4.125276494E+02  0.000000000E+00  0.00000E+00  9.000E+00
      21    -1     0     0   501   502  0.000000000E+00  0.000000000E+00 -5.839377869E+01  5.839377869E+01  0.000000000E+00  0.00000E+00  9.000E+00
      25     1     1     2     0     0  6.364464966E+01 -2.464577013E+01  1.885594831E+02  2.363000933E+02  1.250000000E+02  0.00000E+00  9.000E+00
      25     1     1     2     0     0 -6.380768702E+01  3.796794083E+01  1.244036261E+02  1.913484979E+02  1.250000000E+02  0.00000E+00  9.000E+00
      21     1     1     2   501   512  1.630373570E-01 -1.332217071E+01  4.117076151E+01  4.327283694E+01  6.743495762E-07  0.00000E+00  9.000E+00
#rwgt            1           1   4.7566199544536954E-002           3      186189           0
</event>
<event>
      5   9999  3.79277E-02  4.00667E+01 -1.00000E+00  1.44795E-01
      21    -1     0     0   502   501  0.000000000E+00  0.000000000E+00  6.975750719E+02  6.975750719E+02  0.000000000E+00  0.00000E+00  9.000E+00
      -2    -1     0     0     0   502  0.000000000E+00  0.000000000E+00 -3.828707715E+02  3.828707715E+02  0.000000000E+00  0.00000E+00  9.000E+00
      25     1     1     2     0     0 -9.086409362E+00  1.506664929E+02  3.657858410E+02  4.149785975E+02  1.250000000E+02  0.00000E+00  9.000E+00
      25     1     1     2     0     0 -3.089738168E+01 -1.532419935E+02  2.732247361E+02  3.386953103E+02  1.250000000E+02  0.00000E+00  9.000E+00
      -2     1     1     2     0   501  3.998379104E+01  2.575500609E+00 -3.243062768E+02  3.267719356E+02  6.607249480E-06  0.00000E+00  9.000E+00
#rwgt            1           1   4.5060043436150943E-002           3      186353           0
</event>
<event>
      5   9999  3.79277E-02  7.07204E+01 -1.00000E+00  1.30996E-01
      -2    -1     0     0     0   501  0.000000000E+00  0.000000000E+00  1.086122516E+03  1.086122516E+03  0.000000000E+00  0.00000E+00  9.000E+00
      21    -1     0     0   501   502  0.000000000E+00  0.000000000E+00 -3.929797543E+02  3.929797543E+02  0.000000000E+00  0.00000E+00  9.000E+00
      25     1     1     2     0     0 -1.129795675E+02  8.206331244E+01 -7.791895808E+01  2.029658443E+02  1.250000000E+02  0.00000E+00  9.000E+00
      25     1     1     2     0     0  5.081909269E+01 -1.157893958E+02 -2.198230276E+02  2.827311936E+02  1.250000000E+02  0.00000E+00  9.000E+00
      -2     1     1     2     0   502  6.216047477E+01  3.372608337E+01  9.908847477E+02  9.934052328E+02  1.078959322E-05  0.00000E+00  9.000E+00
#rwgt            1           1   4.6740149449651831E-002           3      186650           0
</event>
<event>
      5   9999  3.79277E-02  9.99413E+01 -1.00000E+00  1.23839E-01
      21    -1     0     0   511   501  0.000000000E+00  0.000000000E+00  6.700402507E+02  6.700402507E+02  0.000000000E+00  0.00000E+00  9.000E+00
      21    -1     0     0   501   502  0.000000000E+00  0.000000000E+00 -3.961379870E+02  3.961379870E+02  0.000000000E+00  0.00000E+00  9.000E+00
      25     1     1     2     0     0 -5.716872933E+01  6.615516545E+00 -2.545381964E+02  2.893557017E+02  1.250000000E+02  0.00000E+00  9.000E+00
      25     1     1     2     0     0  1.145300498E+02  7.522541937E+01 -4.815935717E+01  1.916254673E+02  1.250000000E+02  0.00000E+00  9.000E+00
      21     1     1     2   511   502 -5.736132051E+01 -8.184093591E+01  5.765998173E+02  5.851970687E+02  0.000000000E+00  0.00000E+00  9.000E+00
#rwgt            1           1   3.2438328083470143E-002           3      186737           0
</event>
<event>
      5   9999  3.79277E-02  3.94561E+01 -1.00000E+00  1.45210E-01
      21    -1     0     0   502   501  0.000000000E+00  0.000000000E+00  3.561823593E+02  3.561823593E+02  0.000000000E+00  0.00000E+00  9.000E+00
      21    -1     0     0   512   502  0.000000000E+00  0.000000000E+00 -4.841786486E+02  4.841786486E+02  0.000000000E+00  0.00000E+00  9.000E+00
      25     1     1     2     0     0 -1.383156949E+02  1.744989767E+02  1.619478820E+02  3.023792996E+02  1.250000000E+02  0.00000E+00  9.000E+00
      25     1     1     2     0     0  1.058671165E+02 -1.520518487E+02  2.105434464E+01  2.244903038E+02  1.250000000E+02  0.00000E+00  9.000E+00
      21     1     1     2   512   501  3.244857841E+01 -2.244712798E+01 -3.109985159E+02  3.134914045E+02  3.814697266E-06  0.00000E+00  9.000E+00
#rwgt            1           1   8.0700972743179333E-002           3      186870           0
</event>
<event>
      5   9999  3.79277E-02  1.96030E+01 -1.00000E+00  1.67091E-01
      21    -1     0     0   502   501  0.000000000E+00  0.000000000E+00  4.901707380E+01  4.901707380E+01  0.000000000E+00  0.00000E+00  9.000E+00
       1    -1     0     0   501     0  0.000000000E+00  0.000000000E+00 -2.750511646E+03  2.750511646E+03  0.000000000E+00  0.00000E+00  9.000E+00
      25     1     1     2     0     0 -1.334426770E+02  1.814653381E+02 -4.453997986E+02  5.145314349E+02  1.250000000E+02  0.00000E+00  9.000E+00
      25     1     1     2     0     0  1.352734454E+02 -1.619479870E+02 -1.031893726E+03  1.060639297E+03  1.250000000E+02  0.00000E+00  9.000E+00
       1     1     1     2   502     0 -1.830768426E+00 -1.951735112E+01 -1.224201048E+03  1.224357989E+03  1.525878906E-05  0.00000E+00  9.000E+00
#rwgt            1           1   3.9406670639250872E-002           3      186965           0
</event>
<event>
      5   9999  3.79277E-02  1.72331E+02 -1.00000E+00  1.14054E-01
      21    -1     0     0   502   501  0.000000000E+00  0.000000000E+00  1.352761890E+02  1.352761890E+02  0.000000000E+00  0.00000E+00  9.000E+00
      21    -1     0     0   511   502  0.000000000E+00  0.000000000E+00 -6.584893161E+02  6.584893161E+02  0.000000000E+00  0.00000E+00  9.000E+00
      25     1     1     2     0     0 -1.376116378E+02 -1.066071279E+02 -4.344297456E+01  2.186648911E+02  1.250000000E+02  0.00000E+00  9.000E+00
      25     1     1     2     0     0 -1.648091382E+01  2.944798490E+01 -2.964826630E+02  3.235209017E+02  1.250000000E+02  0.00000E+00  9.000E+00
      21     1     1     2   511   501  1.540925516E+02  7.715914302E+01 -1.832874896E+02  2.515797123E+02  3.814697266E-06  0.00000E+00  9.000E+00
#rwgt            1           1   4.4617338977079417E-002           3      187256           0
</event>
<event>
      5   9999  3.79277E-02  7.58501E+01 -1.00000E+00  1.29479E-01
      21    -1     0     0   502   501  0.000000000E+00  0.000000000E+00  4.531533740E+02  4.531533740E+02  0.000000000E+00  0.00000E+00  9.000E+00
      21    -1     0     0   501   512  0.000000000E+00  0.000000000E+00 -1.275150781E+02  1.275150781E+02  0.000000000E+00  0.00000E+00  9.000E+00
      25     1     1     2     0     0 -1.276511175E+02 -9.808255573E+01  4.507170598E+01  2.087377642E+02  1.250000000E+02  0.00000E+00  9.000E+00
      25     1     1     2     0     0  6.119909356E+01  6.151255171E+01  2.444023906E+02  2.879004196E+02  1.250000000E+02  0.00000E+00  9.000E+00
      21     1     1     2   502   512  6.645202391E+01  3.657000402E+01  3.616419927E+01  8.403026826E+01  9.536743164E-07  0.00000E+00  9.000E+00
#rwgt            1           1   3.6289772011884033E-002           3      187310           0
</event>
<event>
      5   9999  3.79277E-02  1.15764E+02 -1.00000E+00  1.21034E-01
      21    -1     0     0   502   511  0.000000000E+00  0.000000000E+00  8.646596522E+02  8.646596522E+02  0.000000000E+00  0.00000E+00  9.000E+00
      21    -1     0     0   501   502  0.000000000E+00  0.000000000E+00 -1.113535278E+02  1.113535278E+02  0.000000000E+00  0.00000E+00  9.000E+00
      25     1     1     2     0     0  3.808455235E+01  1.579513757E+02  4.999721875E+02  5.403667815E+02  1.250000000E+02  0.00000E+00  9.000E+00
      25     1     1     2     0     0  7.720965446E+01 -1.475280200E+02  7.160478884E+01  2.201774131E+02  1.250000000E+02  0.00000E+00  9.000E+00
      21     1     1     2   501   511 -1.152942068E+02 -1.042335569E+01  1.817291480E+02  2.154689855E+02  2.697398305E-06  0.00000E+00  9.000E+00
#rwgt            1           1   3.7511990578955212E-002           3      187470           0
</event>
<event>
      5   9999  3.79277E-02  3.07424E+01 -1.00000E+00  1.52306E-01
      21    -1     0     0   502   512  0.000000000E+00  0.000000000E+00  1.310532940E+03  1.310532940E+03  0.000000000E+00  0.00000E+00  9.000E+00
      21    -1     0     0   501   502  0.000000000E+00  0.000000000E+00 -4.859804404E+01  4.859804404E+01  0.000000000E+00  0.00000E+00  9.000E+00
      25     1     1     2     0     0 -4.224321725E+01 -3.608161656E+01  6.413143068E+02  6.557403545E+02  1.250000000E+02  0.00000E+00  9.000E+00
      25     1     1     2     0     0  3.664336403E+01  5.853560199E+00  6.280571436E+01  1.447292578E+02  1.250000000E+02  0.00000E+00  9.000E+00
      21     1     1     2   501   512  5.599853225E+00  3.022805637E+01  5.578148751E+02  5.586613721E+02  0.000000000E+00  0.00000E+00  9.000E+00
#rwgt            1           1   4.2247461269614567E-002           3      187585           0
</event>
<event>
      5   9999  3.79277E-02  3.00843E+01 -1.00000E+00  1.52955E-01
       1    -1     0     0   502     0  0.000000000E+00  0.000000000E+00  2.365880765E+03  2.365880765E+03  0.000000000E+00  0.00000E+00  9.000E+00
      21    -1     0     0   501   502  0.000000000E+00  0.000000000E+00 -2.299575213E+02  2.299575213E+02  0.000000000E+00  0.00000E+00  9.000E+00
      25     1     1     2     0     0 -1.265720758E+02  1.495646996E+02  4.339099614E+02  4.922326120E+02  1.250000000E+02  0.00000E+00  9.000E+00
      25     1     1     2     0     0  1.565804308E+02 -1.474291120E+02 -1.235841637E+02  2.777603641E+02  1.250000000E+02  0.00000E+00  9.000E+00
       1     1     1     2   501     0 -3.000835499E+01 -2.135587640E+00  1.825597445E+03  1.825845310E+03  3.737624730E-05  0.00000E+00  9.000E+00
#rwgt            1           1  0.10174084181433402                3      187697           0
</event>
<event>
      5   9999  3.79277E-02  3.13877E+01 -1.00000E+00  1.51688E-01
      21    -1     0     0   511   501  0.000000000E+00  0.000000000E+00  2.719141239E+02  2.719141239E+02  0.000000000E+00  0.00000E+00  9.000E+00
      21    -1     0     0   501   502  0.000000000E+00  0.000000000E+00 -4.912689958E+02  4.912689958E+02  0.000000000E+00  0.00000E+00  9.000E+00
      25     1     1     2     0     0  1.506971864E+02 -1.257545359E+02 -9.254804712E+01  2.504276070E+02  1.250000000E+02  0.00000E+00  9.000E+00
      25     1     1     2     0     0 -1.532142968E+02  9.446790399E+01 -2.804631703E+02  3.559261096E+02  1.250000000E+02  0.00000E+00  9.000E+00
      21     1     1     2   511   502  2.517110373E+00  3.128663193E+01  1.536563455E+02  1.568294032E+02  0.000000000E+00  0.00000E+00  9.000E+00
#rwgt            1           1  0.14408770469674578                3      187884           0
</event>
<event>
      5   9999  3.79277E-02  9.41594E+01 -1.00000E+00  1.25015E-01
      21    -1     0     0   502   501  0.000000000E+00  0.000000000E+00  2.033535022E+02  2.033535022E+02  0.000000000E+00  0.00000E+00  9.000E+00
      21    -1     0     0   512   502  0.000000000E+00  0.000000000E+00 -1.389062467E+03  1.389062467E+03  0.000000000E+00  0.00000E+00  9.000E+00
      25     1     1     2     0     0  2.720318734E+02 -2.398339297E+02 -1.558529156E+02  4.140492546E+02  1.250000000E+02  0.00000E+00  9.000E+00
      25     1     1     2     0     0 -1.778933391E+02  2.418154809E+02 -2.999034834E+02  4.423662128E+02  1.250000000E+02  0.00000E+00  9.000E+00
      21     1     1     2   512   501 -9.413853429E+01 -1.981551234E+00 -7.299525657E+02  7.360005016E+02  1.078959322E-05  0.00000E+00  9.000E+00
#rwgt            1           1   5.0153945413179968E-002           3      188022           0
</event>
<event>
      5   9999  3.79277E-02  8.46019E+01 -1.00000E+00  1.27185E-01
      21    -1     0     0   502   501  0.000000000E+00  0.000000000E+00  3.228441835E+02  3.228441835E+02  0.000000000E+00  0.00000E+00  9.000E+00
      21    -1     0     0   511   502  0.000000000E+00  0.000000000E+00 -1.204886948E+03  1.204886948E+03  0.000000000E+00  0.00000E+00  9.000E+00
      25     1     1     2     0     0  1.688859268E+02 -1.190351457E+02  8.555056549E+01  2.561946944E+02  1.250000000E+02  0.00000E+00  9.000E+00
      25     1     1     2     0     0 -1.108697948E+02  1.806112139E+02  4.946391707E+01  2.509665338E+02  1.250000000E+02  0.00000E+00  9.000E+00
      21     1     1     2   511   501 -5.801613201E+01 -6.157606818E+01 -1.017057247E+03  1.020569904E+03  1.078959322E-05  0.00000E+00  9.000E+00
#rwgt            1           1   3.6841465733240791E-002           3      188246           0
</event>
<event>
      5   9999  3.79277E-02  2.59930E+01 -1.00000E+00  1.57494E-01
      21    -1     0     0   502   512  0.000000000E+00  0.000000000E+00  1.220501737E+03  1.220501737E+03  0.000000000E+00  0.00000E+00  9.000E+00
      21    -1     0     0   501   502  0.000000000E+00  0.000000000E+00 -1.079990012E+02  1.079990012E+02  0.000000000E+00  0.00000E+00  9.000E+00
      25     1     1     2     0     0 -7.139589857E+01 -1.613826992E+01 -2.122115113E+01  1.464006672E+02  1.250000000E+02  0.00000E+00  9.000E+00
      25     1     1     2     0     0  8.928203527E+01  3.499892932E+01  2.345509258E+02  2.825514885E+02  1.250000000E+02  0.00000E+00  9.000E+00
      21     1     1     2   501   512 -1.788613670E+01 -1.886065940E+01  8.991729613E+02  8.995485828E+02  0.000000000E+00  0.00000E+00  9.000E+00
#rwgt            1           1   3.7896819572087452E-002           3      188336           0
</event>
<event>
      5   9999  3.79277E-02  4.93049E+01 -1.00000E+00  1.39423E-01
       2    -1     0     0   502     0  0.000000000E+00  0.000000000E+00  2.100163137E+03  2.100163137E+03  0.000000000E+00  0.00000E+00  9.000E+00
      21    -1     0     0   501   502  0.000000000E+00  0.000000000E+00 -2.264846436E+01  2.264846436E+01  0.000000000E+00  0.00000E+00  9.000E+00
      25     1     1     2     0     0 -3.642612209E+01  1.033440278E+00  2.174500078E+02  2.534510530E+02  1.250000000E+02  0.00000E+00  9.000E+00
      25     1     1     2     0     0  1.819326276E+01 -4.684316996E+01  1.478052647E+03  1.484179876E+03  1.250000000E+02  0.00000E+00  9.000E+00
       2     1     1     2   501     0  1.823285933E+01  4.580972968E+01  3.820120175E+02  3.851806720E+02  7.629394531E-06  0.00000E+00  9.000E+00
#rwgt            1           1   4.0762948109589851E-002           3      188426           0
</event>
<event>
      5   9999  3.79277E-02  4.06012E+01 -1.00000E+00  1.44439E-01
      21    -1     0     0   502   501  0.000000000E+00  0.000000000E+00  5.950445900E+01  5.950445900E+01  0.000000000E+00  0.00000E+00  9.000E+00
      21    -1     0     0   511   502  0.000000000E+00  0.000000000E+00 -8.195541690E+02  8.195541690E+02  0.000000000E+00  0.00000E+00  9.000E+00
      25     1     1     2     0     0  1.338183924E+02 -2.383033338E+01 -1.549481538E+02  2.410584520E+02  1.250000000E+02  0.00000E+00  9.000E+00
      25     1     1     2     0     0 -9.463869433E+01  1.318088927E+01 -4.201298394E+02  4.486248993E+02  1.250000000E+02  0.00000E+00  9.000E+00
      21     1     1     2   511   501 -3.917969805E+01  1.064944411E+01 -1.849717169E+02  1.893752768E+02  3.814697266E-06  0.00000E+00  9.000E+00
#rwgt            1           1   4.7774766870230578E-002           3      188550           0
</event>
<event>
      5   9999  3.79277E-02  5.42120E+01 -1.00000E+00  1.37101E-01
      21    -1     0     0   502   501  0.000000000E+00  0.000000000E+00  3.625932216E+02  3.625932216E+02  0.000000000E+00  0.00000E+00  9.000E+00
      21    -1     0     0   501   512  0.000000000E+00  0.000000000E+00 -2.214221953E+02  2.214221953E+02  0.000000000E+00  0.00000E+00  9.000E+00
      25     1     1     2     0     0 -9.574751125E+01 -4.542152798E+01 -1.312623467E+02  2.099654847E+02  1.250000000E+02  0.00000E+00  9.000E+00
      25     1     1     2     0     0  9.656204289E+01 -8.784375718E+00  2.776828393E+02  3.195843435E+02  1.250000000E+02  0.00000E+00  9.000E+00
      21     1     1     2   502   512 -8.145316451E-01  5.420590370E+01 -5.249466277E+00  5.446558871E+01  9.019819469E-07  0.00000E+00  9.000E+00
#rwgt            1           1   1.9565781543155254E-002           3      188668           0
</event>
<event>
      5   9999  3.79277E-02  1.28027E+02 -1.00000E+00  1.19187E-01
      -4    -1     0     0     0   501  0.000000000E+00  0.000000000E+00  2.541808572E+02  2.541808572E+02  0.000000000E+00  0.00000E+00  9.000E+00
      21    -1     0     0   501   502  0.000000000E+00  0.000000000E+00 -3.514024521E+02  3.514024521E+02  0.000000000E+00  0.00000E+00  9.000E+00
      25     1     1     2     0     0  8.626942430E+01  1.364992999E+02 -1.553895159E+02  2.566035349E+02  1.250000000E+02  0.00000E+00  9.000E+00
      25     1     1     2     0     0  3.405015725E+01 -9.274960818E+01 -6.429231446E+01  1.718150306E+02  1.250000000E+02  0.00000E+00  9.000E+00
      -4     1     1     2     0   502 -1.203195815E+02 -4.374969171E+01  1.224602354E+02  1.771647439E+02  0.000000000E+00  0.00000E+00  9.000E+00
#rwgt            1           1   4.0221410693799212E-002           3      188770           0
</event>
<event>
      5   9999  3.79277E-02  1.59750E+01 -1.00000E+00  1.74845E-01
      21    -1     0     0   502   501  0.000000000E+00  0.000000000E+00  2.915563833E+01  2.915563833E+01  0.000000000E+00  0.00000E+00  9.000E+00
      21    -1     0     0   511   502  0.000000000E+00  0.000000000E+00 -2.222205897E+03  2.222205897E+03  0.000000000E+00  0.00000E+00  9.000E+00
      25     1     1     2     0     0  1.147441128E+02  1.125773456E+02 -7.136218701E+02  7.421058170E+02  1.250000000E+02  0.00000E+00  9.000E+00
      25     1     1     2     0     0 -1.129384651E+02 -1.284499546E+02 -7.418830126E+02  7.715373563E+02  1.250000000E+02  0.00000E+00  9.000E+00
      21     1     1     2   511   501 -1.805647739E+00  1.587260902E+01 -7.375453759E+02  7.377183620E+02  1.525878906E-05  0.00000E+00  9.000E+00
#rwgt            1           1   4.9429507013137280E-002           3      188838           0
</event>
<event>
      5   9999  3.79277E-02  4.90160E+01 -1.00000E+00  1.39570E-01
      21    -1     0     0   502   501  0.000000000E+00  0.000000000E+00  1.043216271E+03  1.043216271E+03  0.000000000E+00  0.00000E+00  9.000E+00
      21    -1     0     0   512   502  0.000000000E+00  0.000000000E+00 -2.727674353E+02  2.727674353E+02  0.000000000E+00  0.00000E+00  9.000E+00
      25     1     1     2     0     0 -1.552950696E+02 -9.749625538E+01  7.733080833E+02  8.045200248E+02  1.250000000E+02  0.00000E+00  9.000E+00
      25     1     1     2     0     0  1.140428662E+02  7.102311668E+01  2.181585945E+02  2.850758334E+02  1.250000000E+02  0.00000E+00  9.000E+00
      21     1     1     2   512   501  4.125220336E+01  2.647313870E+01 -2.210178420E+02  2.263878483E+02  3.814697266E-06  0.00000E+00  9.000E+00
#rwgt            1           1   3.1945794172458131E-002           3      189241           0
</event>
<event>
      5   9999  3.79277E-02  9.52376E+01 -1.00000E+00  1.24789E-01
      21    -1     0     0   511   501  0.000000000E+00  0.000000000E+00  1.032554906E+02  1.032554906E+02  0.000000000E+00  0.00000E+00  9.000E+00
      21    -1     0     0   501   502  0.000000000E+00  0.000000000E+00 -1.167437516E+03  1.167437516E+03  0.000000000E+00  0.00000E+00  9.000E+00
      25     1     1     2     0     0 -1.263858129E+02  8.521206687E+00 -9.716503015E+02  9.878133898E+02  1.250000000E+02  0.00000E+00  9.000E+00
      25     1     1     2     0     0  8.487361921E+01  7.719310748E+01 -4.082445126E+01  1.745105811E+02  1.250000000E+02  0.00000E+00  9.000E+00
      21     1     1     2   511   502  4.151219373E+01 -8.571431417E+01 -5.170727283E+01  1.083690359E+02  1.784161275E-06  0.00000E+00  9.000E+00
#rwgt            1           1   3.4743150950799953E-002           3      189387           0
</event>
<event>
      5   9999  3.79277E-02  1.39016E+02 -1.00000E+00  1.17718E-01
      21    -1     0     0   502   501  0.000000000E+00  0.000000000E+00  4.749918813E+01  4.749918813E+01  0.000000000E+00  0.00000E+00  9.000E+00
       2    -1     0     0   501     0  0.000000000E+00  0.000000000E+00 -2.529041069E+03  2.529041069E+03  0.000000000E+00  0.00000E+00  9.000E+00
      25     1     1     2     0     0 -1.374903017E+02  5.110265955E+01 -4.210358315E+02  4.630456093E+02  1.250000000E+02  0.00000E+00  9.000E+00
      25     1     1     2     0     0  8.003010088E+01 -1.776878669E+02 -5.518736614E+02  5.984708291E+02  1.250000000E+02  0.00000E+00  9.000E+00
       2     1     1     2   502     0  5.746020085E+01  1.265852074E+02 -1.508632388E+03  1.515023818E+03  2.157918644E-05  0.00000E+00  9.000E+00
#rwgt            1           1   3.4203387410974263E-002           3      189627           0
</event>
<event>
      5   9999  3.79277E-02  6.33410E+01 -1.00000E+00  1.33458E-01
      21    -1     0     0   502   501  0.000000000E+00  0.000000000E+00  1.165437239E+02  1.165437239E+02  0.000000000E+00  0.00000E+00  9.000E+00
      21    -1     0     0   511   502  0.000000000E+00  0.000000000E+00 -4.638061011E+02  4.638061011E+02  0.000000000E+00  0.00000E+00  9.000E+00
      25     1     1     2     0     0 -3.652861500E+01  1.093226642E+02 -1.747382554E+02  2.438118999E+02  1.250000000E+02  0.00000E+00  9.000E+00
      25     1     1     2     0     0 -2.380555660E+01 -1.286066421E+02 -3.381540215E+01  1.840512275E+02  1.250000000E+02  0.00000E+00  9.000E+00
      21     1     1     2   511   501  6.033417160E+01  1.928397788E+01 -1.387087196E+02  1.524866977E+02  1.907348633E-06  0.00000E+00  9.000E+00
#rwgt            1           1   3.8763939372064585E-002           3      189858           0
</event>
<event>
      5   9999  3.79277E-02  1.53623E+02 -1.00000E+00  1.15984E-01
      21    -1     0     0   502   501  0.000000000E+00  0.000000000E+00  1.017587681E+03  1.017587681E+03  0.000000000E+00  0.00000E+00  9.000E+00
      21    -1     0     0   501   512  0.000000000E+00  0.000000000E+00 -2.911308618E+02  2.911308618E+02  0.000000000E+00  0.00000E+00  9.000E+00
      25     1     1     2     0     0 -1.244062969E+02  2.588978512E+02  5.131037140E+02  6.011700636E+02  1.250000000E+02  0.00000E+00  9.000E+00
      25     1     1     2     0     0 -2.506573258E+01 -2.234288077E+02  3.939193518E+02  4.704744189E+02  1.250000000E+02  0.00000E+00  9.000E+00
      21     1     1     2   502   512  1.494720295E+02 -3.546904350E+01 -1.805662466E+02  2.370740603E+02  1.907348633E-06  0.00000E+00  9.000E+00
#rwgt            1           1  0.23024331376050713                3      189937           0
</event>
<event>
      5   9999  3.79277E-02  7.55172E+01 -1.00000E+00  1.29573E-01
      21    -1     0     0   502   511  0.000000000E+00  0.000000000E+00  1.504398431E+02  1.504398431E+02  0.000000000E+00  0.00000E+00  9.000E+00
      21    -1     0     0   501   502  0.000000000E+00  0.000000000E+00 -6.915307082E+02  6.915307082E+02  0.000000000E+00  0.00000E+00  9.000E+00
      25     1     1     2     0     0 -1.155089934E+02  5.522262844E+01 -5.956922864E+02  6.219856641E+02  1.250000000E+02  0.00000E+00  9.000E+00
      25     1     1     2     0     0  4.394408843E+01 -3.111210128E+01  4.741817652E+01  1.441267818E+02  1.250000000E+02  0.00000E+00  9.000E+00
      21     1     1     2   501   511  7.156490502E+01 -2.411052716E+01  7.183244741E+00  7.585810540E+01  6.019774043E-07  0.00000E+00  9.000E+00
#rwgt            1           1   4.2085475581694204E-002           3      190025           0
</event>
<event>
      5   9999  3.79277E-02  3.23101E+01 -1.00000E+00  1.50835E-01
      21    -1     0     0   502   501  0.000000000E+00  0.000000000E+00  1.153557027E+02  1.153557027E+02  0.000000000E+00  0.00000E+00  9.000E+00
      21    -1     0     0   501   512  0.000000000E+00  0.000000000E+00 -4.484617181E+02  4.484617181E+02  0.000000000E+00  0.00000E+00  9.000E+00
      25     1     1     2     0     0 -8.400646189E+00 -1.509119562E+02 -1.336949208E+02  2.373695878E+02  1.250000000E+02  0.00000E+00  9.000E+00
      25     1     1     2     0     0 -1.289919245E+01  1.266167216E+02 -6.765648412E+01  1.907893687E+02  1.250000000E+02  0.00000E+00  9.000E+00
      21     1     1     2   502   512  2.129983864E+01  2.429523457E+01 -1.317546105E+02  1.356584643E+02  2.697398305E-06  0.00000E+00  9.000E+00
#rwgt            1           1   3.3220050757439036E-002           3      190205           0
</event>
<event>
      5   9999  3.79277E-02  3.25984E+01 -1.00000E+00  1.50576E-01
      21    -1     0     0   502   501  0.000000000E+00  0.000000000E+00  1.494369336E+02  1.494369336E+02  0.000000000E+00  0.00000E+00  9.000E+00
      21    -1     0     0   501   511  0.000000000E+00  0.000000000E+00 -5.951255935E+02  5.951255935E+02  0.000000000E+00  0.00000E+00  9.000E+00
      25     1     1     2     0     0 -2.128421681E+02 -5.764972447E+01 -4.730939285E+01  2.578535590E+02  1.250000000E+02  0.00000E+00  9.000E+00
      25     1     1     2     0     0  1.865307663E+02  3.840487274E+01 -2.652391393E+02  3.496361853E+02  1.250000000E+02  0.00000E+00  9.000E+00
      21     1     1     2   502   511  2.631140181E+01  1.924485173E+01 -1.331401278E+02  1.370727829E+02  1.907348633E-06  0.00000E+00  9.000E+00
#rwgt            1           1   3.3702548143947450E-002           3      190345           0
</event>
<event>
      5   9999  3.79277E-02  1.85094E+01 -1.00000E+00  1.69193E-01
      21    -1     0     0   502   501  0.000000000E+00  0.000000000E+00  3.609371924E+02  3.609371924E+02  0.000000000E+00  0.00000E+00  9.000E+00
      21    -1     0     0   501   512  0.000000000E+00  0.000000000E+00 -9.838368693E+01  9.838368693E+01  0.000000000E+00  0.00000E+00  9.000E+00
      25     1     1     2     0     0 -1.164647998E+02  4.753977201E+00  1.497080807E+02  2.272095053E+02  1.250000000E+02  0.00000E+00  9.000E+00
      25     1     1     2     0     0  1.280255630E+02 -1.920891979E+01  1.148664666E+02  2.134919964E+02  1.250000000E+02  0.00000E+00  9.000E+00
      21     1     1     2   502   512 -1.156076319E+01  1.445494259E+01 -2.021041787E+00  1.861937756E+01  5.048833593E-07  0.00000E+00  9.000E+00
#rwgt            1           1   3.8944473798883543E-002           3      190590           0
</event>
<event>
      5   9999  3.79277E-02  3.77284E+01 -1.00000E+00  1.46433E-01
      21    -1     0     0   502   501  0.000000000E+00  0.000000000E+00  2.119440840E+02  2.119440840E+02  0.000000000E+00  0.00000E+00  9.000E+00
       2    -1     0     0   501     0  0.000000000E+00  0.000000000E+00 -4.126249348E+03  4.126249348E+03  0.000000000E+00  0.00000E+00  9.000E+00
      25     1     1     2     0     0 -6.666897066E+01  6.631871508E+01  8.085552633E+01  1.760838998E+02  1.250000000E+02  0.00000E+00  9.000E+00
      25     1     1     2     0     0  4.740443282E+01 -9.875808293E+01  5.609575924E-01  1.662096684E+02  1.250000000E+02  0.00000E+00  9.000E+00
       2     1     1     2   502     0  1.926453784E+01  3.243936784E+01 -3.995721748E+03  3.995899864E+03  6.103515625E-05  0.00000E+00  9.000E+00
#rwgt            1           1   3.5104061412577554E-002           3      190825           0
</event>
<event>
      5   9999  3.79277E-02  1.48354E+01 -1.00000E+00  1.77836E-01
      21    -1     0     0   502   501  0.000000000E+00  0.000000000E+00  1.496719679E+02  1.496719679E+02  0.000000000E+00  0.00000E+00  9.000E+00
      21    -1     0     0   501   511  0.000000000E+00  0.000000000E+00 -2.240210336E+02  2.240210336E+02  0.000000000E+00  0.00000E+00  9.000E+00
      25     1     1     2     0     0  8.333262001E+01  6.462421886E+01 -9.898693434E+01  1.911649246E+02  1.250000000E+02  0.00000E+00  9.000E+00
      25     1     1     2     0     0 -6.940278918E+01 -5.952047354E+01  4.123739292E+01  1.602652691E+02  1.250000000E+02  0.00000E+00  9.000E+00
      21     1     1     2   502   511 -1.392983083E+01 -5.103745320E+00 -1.659952425E+01  2.226280774E+01  3.371747881E-07  0.00000E+00  9.000E+00
#rwgt            1           1   4.6576623875026535E-002           3      190995           0
</event>
<event>
      5   9999  3.79277E-02  1.61906E+01 -1.00000E+00  1.74314E-01
      21    -1     0     0   502   512  0.000000000E+00  0.000000000E+00  3.505245374E+02  3.505245374E+02  0.000000000E+00  0.00000E+00  9.000E+00
      21    -1     0     0   501   502  0.000000000E+00  0.000000000E+00 -2.311050266E+02  2.311050266E+02  0.000000000E+00  0.00000E+00  9.000E+00
      25     1     1     2     0     0 -1.768677179E+02 -1.103754362E+02  1.688072708E+02  2.959490180E+02  1.250000000E+02  0.00000E+00  9.000E+00
      25     1     1     2     0     0  1.835223151E+02  9.561558350E+01 -7.695351185E+01  2.537116926E+02  1.250000000E+02  0.00000E+00  9.000E+00
      21     1     1     2   501   512 -6.654597211E+00  1.475985266E+01  2.756575181E+01  3.196885339E+01  0.000000000E+00  0.00000E+00  9.000E+00
#rwgt            1           1  0.14191962213787346                3      191174           0
</event>
<event>
      5   9999  3.79277E-02  4.02148E+01 -1.00000E+00  1.44696E-01
      -3    -1     0     0     0   501  0.000000000E+00  0.000000000E+00  6.646052503E+01  6.646052503E+01  0.000000000E+00  0.00000E+00  9.000E+00
      21    -1     0     0   501   502  0.000000000E+00  0.000000000E+00 -4.246354171E+02  4.246354171E+02  0.000000000E+00  0.00000E+00  9.000E+00
      25     1     1     2     0     0  4.501616230E+01 -1.950414575E+01 -1.995431427E+02  2.405188815E+02  1.250000000E+02  0.00000E+00  9.000E+00
      25     1     1     2     0     0 -7.970701861E+01 -8.373538322E-01 -9.762878342E+01  1.775113780E+02  1.250000000E+02  0.00000E+00  9.000E+00
      -3     1     1     2     0   502  3.469085631E+01  2.034149958E+01 -6.100296591E+01  7.306568255E+01  0.000000000E+00  0.00000E+00  9.000E+00
#rwgt            1           1   8.3443191521432217E-002           3      191596           0
</event>
<event>
      5   9999  3.79277E-02  3.10138E+01 -1.00000E+00  1.52044E-01
      21    -1     0     0   511   501  0.000000000E+00  0.000000000E+00  1.034872276E+02  1.034872276E+02  0.000000000E+00  0.00000E+00  9.000E+00
      21    -1     0     0   501   502  0.000000000E+00  0.000000000E+00 -6.003889706E+02  6.003889706E+02  0.000000000E+00  0.00000E+00  9.000E+00
      25     1     1     2     0     0 -1.728674782E+02 -4.354170647E+01 -1.504027453E+02  2.646224311E+02  1.250000000E+02  0.00000E+00  9.000E+00
      25     1     1     2     0     0  1.988734779E+02  2.664371104E+01 -3.233627236E+02  4.005608550E+02  1.250000000E+02  0.00000E+00  9.000E+00
      21     1     1     2   511   502 -2.600599963E+01  1.689799543E+01 -2.313627412E+01  3.869291210E+01  4.768371582E-07  0.00000E+00  9.000E+00
#rwgt            1           1   7.1187980309539253E-002           3      191734           0
</event>
<event>
      5   9999  3.79277E-02  5.41906E+01 -1.00000E+00  1.37110E-01
      21    -1     0     0   512   501  0.000000000E+00  0.000000000E+00  1.641032000E+02  1.641032000E+02  0.000000000E+00  0.00000E+00  9.000E+00
      21    -1     0     0   501   502  0.000000000E+00  0.000000000E+00 -3.748883187E+02  3.748883187E+02  0.000000000E+00  0.00000E+00  9.000E+00
      25     1     1     2     0     0  1.614797349E+01  2.044313440E+02 -1.291243474E+02  2.726738501E+02  1.250000000E+02  0.00000E+00  9.000E+00
      25     1     1     2     0     0  1.068556002E+00 -1.530483438E+02 -7.642658792E+01  2.118748704E+02  1.250000000E+02  0.00000E+00  9.000E+00
      21     1     1     2   512   502 -1.721652950E+01 -5.138300017E+01 -5.234183404E+00  5.444279815E+01  1.288067268E-06  0.00000E+00  9.000E+00
#rwgt            1           1   4.8228710152403043E-002           3      191850           0
</event>
<event>
      5   9999  3.79277E-02  6.15556E+01 -1.00000E+00  1.34112E-01
      21    -1     0     0   502   501  0.000000000E+00  0.000000000E+00  2.689034439E+02  2.689034439E+02  0.000000000E+00  0.00000E+00  9.000E+00
      21    -1     0     0   501   511  0.000000000E+00  0.000000000E+00 -1.374646709E+03  1.374646709E+03  0.000000000E+00  0.00000E+00  9.000E+00
      25     1     1     2     0     0 -1.754937016E+02 -1.252341653E+02 -1.249291181E+02  2.787721651E+02  1.250000000E+02  0.00000E+00  9.000E+00
      25     1     1     2     0     0  2.091216675E+02  7.367595632E+01  1.063635465E+02  2.758590625E+02  1.250000000E+02  0.00000E+00  9.000E+00
      21     1     1     2   502   511 -3.362796584E+01  5.155820893E+01 -1.087177693E+03  1.088918925E+03  1.525878906E-05  0.00000E+00  9.000E+00
#rwgt            1           1   3.9738559705528698E-002           3      191922           0
</event>
<event>
      5   9999  3.79277E-02  5.05855E+01 -1.00000E+00  1.38788E-01
      21    -1     0     0   502   501  0.000000000E+00  0.000000000E+00  8.433620211E+01  8.433620211E+01  0.000000000E+00  0.00000E+00  9.000E+00
      21    -1     0     0   512   502  0.000000000E+00  0.000000000E+00 -2.380567619E+03  2.380567619E+03  0.000000000E+00  0.00000E+00  9.000E+00
      25     1     1     2     0     0  2.306568130E+02 -1.329465498E+02 -1.788555181E+03  1.812576063E+03  1.250000000E+02  0.00000E+00  9.000E+00
      25     1     1     2     0     0 -1.943499955E+02  1.681702408E+02 -2.211384902E+02  3.613590770E+02  1.250000000E+02  0.00000E+00  9.000E+00
      21     1     1     2   512   501 -3.630681746E+01 -3.522369109E+01 -2.865377455E+02  2.909686804E+02  0.000000000E+00  0.00000E+00  9.000E+00
#rwgt            1           1   4.2841804791908980E-002           3      192058           0
</event>
<event>
      5   9999  3.79277E-02  8.30867E+01 -1.00000E+00  1.27559E-01
      21    -1     0     0   502   501  0.000000000E+00  0.000000000E+00  1.313239839E+02  1.313239839E+02  0.000000000E+00  0.00000E+00  9.000E+00
       2    -1     0     0   501     0  0.000000000E+00  0.000000000E+00 -1.215153767E+03  1.215153767E+03  0.000000000E+00  0.00000E+00  9.000E+00
      25     1     1     2     0     0 -6.213535049E+01 -1.074971370E+02 -1.265821166E+02  2.169434684E+02  1.250000000E+02  0.00000E+00  9.000E+00
      25     1     1     2     0     0  1.405676538E+01  1.752603016E+02 -5.388189498E+01  2.223556264E+02  1.250000000E+02  0.00000E+00  9.000E+00
       2     1     1     2   502     0  4.807858511E+01 -6.776316459E+01 -9.033657718E+02  9.071786563E+02  1.525878906E-05  0.00000E+00  9.000E+00
#rwgt            2          13   8.4965499565575287E-004           3      192231           0
</event>
<event>
      5   9999  3.79277E-02  4.18375E+01 -1.00000E+00  1.43641E-01
      21    -1     0     0   502   501  0.000000000E+00  0.000000000E+00  1.242614932E+03  1.242614932E+03  0.000000000E+00  0.00000E+00  9.000E+00
       4    -1     0     0   501     0  0.000000000E+00  0.000000000E+00 -2.577839701E+02  2.577839701E+02  0.000000000E+00  0.00000E+00  9.000E+00
      25     1     1     2     0     0  8.238595046E+01 -2.068569258E+01  1.263809197E+02  1.970088312E+02  1.250000000E+02  0.00000E+00  9.000E+00
      25     1     1     2     0     0 -1.218935132E+02  3.445261284E+01  1.071547389E+03  1.086224570E+03  1.250000000E+02  0.00000E+00  9.000E+00
       4     1     1     2   502     0  3.950756278E+01 -1.376692026E+01 -2.130973464E+02  2.171655006E+02  6.031565972E-06  0.00000E+00  9.000E+00
#rwgt            1           1   4.3888628305894725E-002           3      192310           0
</event>
<event>
      5   9999  3.79277E-02  4.08652E+01 -1.00000E+00  1.44266E-01
      21    -1     0     0   502   511  0.000000000E+00  0.000000000E+00  5.798141989E+02  5.798141989E+02  0.000000000E+00  0.00000E+00  9.000E+00
      21    -1     0     0   501   502  0.000000000E+00  0.000000000E+00 -1.143998551E+02  1.143998551E+02  0.000000000E+00  0.00000E+00  9.000E+00
      25     1     1     2     0     0 -4.829754950E+00 -8.807945610E+01  2.219180422E+02  2.695439381E+02  1.250000000E+02  0.00000E+00  9.000E+00
      25     1     1     2     0     0  2.496948462E+01  1.236371972E+02 -1.910948997E-01  1.775800333E+02  1.250000000E+02  0.00000E+00  9.000E+00
      21     1     1     2   501   511 -2.013972967E+01 -3.555774114E+01  2.436873966E+02  2.470900826E+02  0.000000000E+00  0.00000E+00  9.000E+00
#rwgt            1           1   3.5446178169590871E-002           3      192522           0
</event>
<event>
      5   9999  3.79277E-02  1.21799E+01 -1.00000E+00  1.86351E-01
      21    -1     0     0   502   501  0.000000000E+00  0.000000000E+00  3.333213478E+01  3.333213478E+01  0.000000000E+00  0.00000E+00  9.000E+00
      21    -1     0     0   501   512  0.000000000E+00  0.000000000E+00 -1.131497261E+03  1.131497261E+03  0.000000000E+00  0.00000E+00  9.000E+00
      25     1     1     2     0     0  8.727814733E+01 -2.758540499E+01 -2.041590686E+02  2.562895918E+02  1.250000000E+02  0.00000E+00  9.000E+00
      25     1     1     2     0     0 -7.681943827E+01  2.134312603E+01 -7.870909332E+02  8.009331385E+02  1.250000000E+02  0.00000E+00  9.000E+00
      21     1     1     2   502   512 -1.045870906E+01  6.242278957E+00 -1.069151246E+02  1.076066657E+02  1.348699152E-06  0.00000E+00  9.000E+00
#rwgt            1           1   4.5368911747467801E-002           3      192623           0
</event>
<event>
      5   9999  3.79277E-02  2.04504E+01 -1.00000E+00  1.65575E-01
      21    -1     0     0   502   511  0.000000000E+00  0.000000000E+00  3.135743030E+02  3.135743030E+02  0.000000000E+00  0.00000E+00  9.000E+00
      21    -1     0     0   501   502  0.000000000E+00  0.000000000E+00 -3.121210355E+02  3.121210355E+02  0.000000000E+00  0.00000E+00  9.000E+00
      25     1     1     2     0     0  1.836118500E+02  1.124171336E+02  1.817109889E+02  3.082122757E+02  1.250000000E+02  0.00000E+00  9.000E+00
      25     1     1     2     0     0 -1.631824527E+02 -1.114894433E+02 -1.828809742E+02  2.968650528E+02  1.250000000E+02  0.00000E+00  9.000E+00
      21     1     1     2   501   511 -2.042939728E+01 -9.276903904E-01  2.623252825E+00  2.061801004E+01  3.111453804E-07  0.00000E+00  9.000E+00
#rwgt            2          11   7.4390644324117969E-003           3      192894           0
</event>
<event>
      5   9999  3.79277E-02  2.82456E+02 -1.00000E+00  1.06449E-01
      21    -1     0     0   502   512  0.000000000E+00  0.000000000E+00  1.813926864E+02  1.813926864E+02  0.000000000E+00  0.00000E+00  9.000E+00
      21    -1     0     0   501   502  0.000000000E+00  0.000000000E+00 -2.103244289E+03  2.103244289E+03  0.000000000E+00  0.00000E+00  9.000E+00
      25     1     1     2     0     0  5.821669729E+01 -1.034620887E+02 -3.540000149E+02  3.937443310E+02  1.250000000E+02  0.00000E+00  9.000E+00
      25     1     1     2     0     0  1.798269538E+02  2.555027724E+02 -1.572795675E+03  1.608393806E+03  1.250000000E+02  0.00000E+00  9.000E+00
      21     1     1     2   501   512 -2.380436511E+02 -1.520406836E+02  4.944087985E+00  2.824988377E+02  9.271540334E-06  0.00000E+00  9.000E+00
#rwgt            1           1   3.5936557074632662E-002           3      192929           0
</event>
<event>
      5   9999  3.79277E-02  9.89900E+01 -1.00000E+00  1.24027E-01
      21    -1     0     0   502   511  0.000000000E+00  0.000000000E+00  5.498218562E+02  5.498218562E+02  0.000000000E+00  0.00000E+00  9.000E+00
      21    -1     0     0   501   502  0.000000000E+00  0.000000000E+00 -2.213690088E+02  2.213690088E+02  0.000000000E+00  0.00000E+00  9.000E+00
      25     1     1     2     0     0 -1.260256660E+02 -8.554726668E+00 -1.332942020E+02  2.221440887E+02  1.250000000E+02  0.00000E+00  9.000E+00
      25     1     1     2     0     0  1.094796228E+02 -8.904268762E+01  3.640467876E+02  4.099627442E+02  1.250000000E+02  0.00000E+00  9.000E+00
      21     1     1     2   501   511  1.654604316E+01  9.759741429E+01  9.770026183E+01  1.390840321E+02  1.348699152E-06  0.00000E+00  9.000E+00
#rwgt            1           1   2.5803670836536660E-002           3      193029           0
</event>
<event>
      5   9999  3.79277E-02  1.22878E+02 -1.00000E+00  1.19933E-01
      21    -1     0     0   502   501  0.000000000E+00  0.000000000E+00  1.848937558E+02  1.848937558E+02  0.000000000E+00  0.00000E+00  9.000E+00
       2    -1     0     0   501     0  0.000000000E+00  0.000000000E+00 -1.978926937E+03  1.978926937E+03  0.000000000E+00  0.00000E+00  9.000E+00
      25     1     1     2     0     0 -1.448691580E+02  9.665271066E+01  7.277516669E+01  2.263847263E+02  1.250000000E+02  0.00000E+00  9.000E+00
      25     1     1     2     0     0  1.032737630E+02  1.897090082E+01 -1.682263009E+02  2.344151308E+02  1.250000000E+02  0.00000E+00  9.000E+00
       2     1     1     2   502     0  4.159539504E+01 -1.156236115E+02 -1.698582047E+03  1.703020836E+03  3.051757812E-05  0.00000E+00  9.000E+00
#rwgt            1           1   2.9292872851876706E-002           3      193205           0
</event>
<event>
      5   9999  3.79277E-02  8.33005E+01 -1.00000E+00  1.27505E-01
       2    -1     0     0   502     0  0.000000000E+00  0.000000000E+00  1.079693187E+03  1.079693187E+03  0.000000000E+00  0.00000E+00  9.000E+00
      21    -1     0     0   501   502  0.000000000E+00  0.000000000E+00 -9.234231086E+01  9.234231086E+01  0.000000000E+00  0.00000E+00  9.000E+00
      25     1     1     2     0     0 -1.463465877E+01 -1.032485009E+02  3.726729734E+02  4.066750192E+02  1.250000000E+02  0.00000E+00  9.000E+00
      25     1     1     2     0     0  4.743044202E+01  1.798213824E+02  1.024205774E+02  2.463744124E+02  1.250000000E+02  0.00000E+00  9.000E+00
       2     1     1     2   501     0 -3.279578325E+01 -7.657288148E+01  5.122573252E+02  5.189860661E+02  0.000000000E+00  0.00000E+00  9.000E+00
#rwgt            1           1   4.0482461701203648E-002           3      193340           0
</event>
<event>
      5   9999  3.79277E-02  1.04363E+02 -1.00000E+00  1.22999E-01
      21    -1     0     0   502   511  0.000000000E+00  0.000000000E+00  2.495029281E+02  2.495029281E+02  0.000000000E+00  0.00000E+00  9.000E+00
      21    -1     0     0   501   502  0.000000000E+00  0.000000000E+00 -6.706153731E+02  6.706153731E+02  0.000000000E+00  0.00000E+00  9.000E+00
      25     1     1     2     0     0  1.644072935E+02  8.027560037E+01 -1.485935733E+02  2.667938909E+02  1.250000000E+02  0.00000E+00  9.000E+00
      25     1     1     2     0     0 -6.588367171E+01 -4.585490145E+01 -4.353059323E+02  4.599560684E+02  1.250000000E+02  0.00000E+00  9.000E+00
      21     1     1     2   501   511 -9.852362176E+01 -3.442069892E+01  1.627870606E+02  1.933683419E+02  1.907348633E-06  0.00000E+00  9.000E+00
#rwgt            1           1   3.5573868065172064E-002           3      193404           0
</event>
<event>
      5   9999  3.79277E-02  6.54578E+01 -1.00000E+00  1.32713E-01
      21    -1     0     0   502   501  0.000000000E+00  0.000000000E+00  1.370296992E+02  1.370296992E+02  0.000000000E+00  0.00000E+00  9.000E+00
      21    -1     0     0   512   502  0.000000000E+00  0.000000000E+00 -1.301125798E+03  1.301125798E+03  0.000000000E+00  0.00000E+00  9.000E+00
      25     1     1     2     0     0  9.413695355E+01  1.350900720E+02  2.471511350E+01  2.081992565E+02  1.250000000E+02  0.00000E+00  9.000E+00
      25     1     1     2     0     0 -2.883161816E+01 -1.306244279E+02 -4.175757052E+02  4.559478840E+02  1.250000000E+02  0.00000E+00  9.000E+00
      21     1     1     2   512   501 -6.530533539E+01 -4.465644038E+00 -7.712355068E+02  7.740083564E+02  0.000000000E+00  0.00000E+00  9.000E+00
#rwgt            1           1   4.3082960643047577E-002           3      193463           0
</event>
<event>
      5   9999  3.79277E-02  5.34819E+00 -1.00000E+00  2.33519E-01
      21    -1     0     0   511   501  0.000000000E+00  0.000000000E+00  2.421809539E+02  2.421809539E+02  0.000000000E+00  0.00000E+00  9.000E+00
      21    -1     0     0   501   502  0.000000000E+00  0.000000000E+00 -3.385725681E+02  3.385725681E+02  0.000000000E+00  0.00000E+00  9.000E+00
      25     1     1     2     0     0  4.988549346E+01 -1.310963309E+02 -2.662134745E+02  3.258364995E+02  1.250000000E+02  0.00000E+00  9.000E+00
      25     1     1     2     0     0 -5.135100306E+01  1.259528475E+02  1.658041522E+02  2.482278433E+02  1.250000000E+02  0.00000E+00  9.000E+00
      21     1     1     2   511   502  1.465509603E+00  5.143483469E+00  4.017708094E+00  6.689179241E+00  1.032382731E-07  0.00000E+00  9.000E+00
#rwgt            1           1   4.1317234483970879E-002           3      193664           0
</event>
<event>
      5   9999  3.79277E-02  1.09976E+02 -1.00000E+00  1.21998E-01
      21    -1     0     0   512   501  0.000000000E+00  0.000000000E+00  4.225249797E+03  4.225249797E+03  0.000000000E+00  0.00000E+00  9.000E+00
      21    -1     0     0   501   502  0.000000000E+00  0.000000000E+00 -1.137207769E+02  1.137207769E+02  0.000000000E+00  0.00000E+00  9.000E+00
      25     1     1     2     0     0 -1.516719739E+02  8.594158856E+01  7.689393341E+01  2.278772067E+02  1.250000000E+02  0.00000E+00  9.000E+00
      25     1     1     2     0     0  1.890183356E+02  1.749942329E+01  3.077311292E+02  3.825671299E+02  1.250000000E+02  0.00000E+00  9.000E+00
      21     1     1     2   512   502 -3.734636169E+01 -1.034410119E+02  3.726903958E+03  3.728526238E+03  0.000000000E+00  0.00000E+00  9.000E+00
#rwgt            1           1   3.3701525506825723E-002           3      194085           0
</event>
<event>
      5   9999  3.79277E-02  7.20172E+01 -1.00000E+00  1.30599E-01
      21    -1     0     0   502   501  0.000000000E+00  0.000000000E+00  2.844065842E+02  2.844065842E+02  0.000000000E+00  0.00000E+00  9.000E+00
       3    -1     0     0   501     0  0.000000000E+00  0.000000000E+00 -4.758997915E+02  4.758997915E+02  0.000000000E+00  0.00000E+00  9.000E+00
      25     1     1     2     0     0  4.783080012E+01 -1.220542768E+02 -1.547003281E+01  1.817948125E+02  1.250000000E+02  0.00000E+00  9.000E+00
      25     1     1     2     0     0 -1.081062709E+02  8.264170118E+01  1.541149455E+02  2.406097109E+02  1.250000000E+02  0.00000E+00  9.000E+00
       3     1     1     2   502     0  6.027547074E+01  3.941257561E+01 -3.301381200E+02  3.379018523E+02  7.629394531E-06  0.00000E+00  9.000E+00
#rwgt            2          14   5.7581793225618548E-005           3      194131           0
</event>
<event>
      5   9999  3.79277E-02  5.20998E+01 -1.00000E+00  1.38064E-01
      21    -1     0     0   502   501  0.000000000E+00  0.000000000E+00  9.786790070E+02  9.786790070E+02  0.000000000E+00  0.00000E+00  9.000E+00
      21    -1     0     0   511   502  0.000000000E+00  0.000000000E+00 -4.330092910E+02  4.330092910E+02  0.000000000E+00  0.00000E+00  9.000E+00
      25     1     1     2     0     0  1.622128107E+02  1.715721029E+02  4.486036833E+02  5.221304885E+02  1.250000000E+02  0.00000E+00  9.000E+00
      25     1     1     2     0     0 -1.106024384E+02 -1.644478456E+02  4.635425478E+02  5.193964641E+02  1.250000000E+02  0.00000E+00  9.000E+00
      21     1     1     2   511   501 -5.161037235E+01 -7.124257275E+00 -3.664765150E+02  3.701613454E+02  9.344061824E-06  0.00000E+00  9.000E+00
#rwgt            1           1   3.6562899039319322E-002           3      194180           0
</event>
<event>
      5   9999  3.79277E-02  3.11998E+02 -1.00000E+00  1.05042E-01
      21    -1     0     0   512   501  0.000000000E+00  0.000000000E+00  7.966883777E+02  7.966883777E+02  0.000000000E+00  0.00000E+00  9.000E+00
      21    -1     0     0   501   502  0.000000000E+00  0.000000000E+00 -2.717813169E+02  2.717813169E+02  0.000000000E+00  0.00000E+00  9.000E+00
      25     1     1     2     0     0 -9.236231943E+01  1.022571208E+02  1.480088233E+02  2.377370998E+02  1.250000000E+02  0.00000E+00  9.000E+00
      25     1     1     2     0     0 -2.152325807E+02 -1.544876893E+02 -5.486625700E+01  2.980382796E+02  1.250000000E+02  0.00000E+00  9.000E+00
      21     1     1     2   512   502  3.075949001E+02  5.223056847E+01  4.317644945E+02  5.326943153E+02  7.629394531E-06  0.00000E+00  9.000E+00
#rwgt            2          11   9.0889688659704304E-004           3      194406           0
</event>
<event>
      5   9999  3.79277E-02  7.23815E+01 -1.00000E+00  1.30489E-01
      21    -1     0     0   502   511  0.000000000E+00  0.000000000E+00  3.120729977E+02  3.120729977E+02  0.000000000E+00  0.00000E+00  9.000E+00
      21    -1     0     0   501   502  0.000000000E+00  0.000000000E+00 -1.890682508E+02  1.890682508E+02  0.000000000E+00  0.00000E+00  9.000E+00
      25     1     1     2     0     0  1.004876007E+02 -1.405195179E+02 -3.904230678E+01  2.167782151E+02  1.250000000E+02  0.00000E+00  9.000E+00
      25     1     1     2     0     0 -5.337536967E+01  8.556933050E+01  1.215643485E+02  2.014297179E+02  1.250000000E+02  0.00000E+00  9.000E+00
      21     1     1     2   501   511 -4.711223107E+01  5.495018739E+01  4.048270523E+01  8.293331558E+01  1.168007728E-06  0.00000E+00  9.000E+00
#rwgt            1           1   3.2548175999490260E-002           3      194441           0
</event>
<event>
      5   9999  3.79277E-02  6.38722E+01 -1.00000E+00  1.33268E-01
      21    -1     0     0   512   501  0.000000000E+00  0.000000000E+00  1.392586894E+02  1.392586894E+02  0.000000000E+00  0.00000E+00  9.000E+00
      21    -1     0     0   501   502  0.000000000E+00  0.000000000E+00 -1.339966262E+03  1.339966262E+03  0.000000000E+00  0.00000E+00  9.000E+00
      25     1     1     2     0     0  9.948009666E+01  3.776393845E+01 -4.527872178E+02  4.816260679E+02  1.250000000E+02  0.00000E+00  9.000E+00
      25     1     1     2     0     0 -1.315552366E+02  1.747050574E+01 -8.542895975E+02  8.735260244E+02  1.250000000E+02  0.00000E+00  9.000E+00
      21     1     1     2   512   502  3.207513994E+01 -5.523444420E+01  1.063692431E+02  1.240728588E+02  4.473129043E-06  0.00000E+00  9.000E+00
#rwgt            1           1   4.8017564938135346E-002           3      194567           0
</event>
<event>
      5   9999  3.79277E-02  1.43488E+01 -1.00000E+00  1.79219E-01
       2    -1     0     0   502     0  0.000000000E+00  0.000000000E+00  5.665646281E+02  5.665646281E+02  0.000000000E+00  0.00000E+00  9.000E+00
      21    -1     0     0   501   502  0.000000000E+00  0.000000000E+00 -1.639888551E+02  1.639888551E+02  0.000000000E+00  0.00000E+00  9.000E+00
      25     1     1     2     0     0  1.702778048E+01 -6.566914132E+01 -1.077324680E+02  1.784199151E+02  1.250000000E+02  0.00000E+00  9.000E+00
      25     1     1     2     0     0 -3.357631268E+00  7.002976777E+01  2.269694971E+02  2.684317319E+02  1.250000000E+02  0.00000E+00  9.000E+00
       2     1     1     2   501     0 -1.367014922E+01 -4.360626452E+00  2.833387439E+02  2.837018362E+02  0.000000000E+00  0.00000E+00  9.000E+00
#rwgt            1           1   3.2530172384389058E-002           3      194659           0
</event>
<event>
      5   9999  3.79277E-02  5.24121E+01 -1.00000E+00  1.37918E-01
      21    -1     0     0   502   511  0.000000000E+00  0.000000000E+00  1.375999486E+02  1.375999486E+02  0.000000000E+00  0.00000E+00  9.000E+00
      21    -1     0     0   501   502  0.000000000E+00  0.000000000E+00 -8.187724590E+02  8.187724590E+02  0.000000000E+00  0.00000E+00  9.000E+00
      25     1     1     2     0     0 -1.247193852E+02  1.140854490E+02 -2.436413553E+02  3.218019962E+02  1.250000000E+02  0.00000E+00  9.000E+00
      25     1     1     2     0     0  7.238497851E+01 -1.112327937E+02 -5.120094054E+02  5.434988048E+02  1.250000000E+02  0.00000E+00  9.000E+00
      21     1     1     2   501   511  5.233440670E+01 -2.852655293E+00  7.447825036E+01  9.107160668E+01  2.697398305E-06  0.00000E+00  9.000E+00
#rwgt            1           1   2.0493858858436308E-002           3      194927           0
</event>
<event>
      5   9999  3.79277E-02  5.82708E+01 -1.00000E+00  1.35386E-01
      21    -1     0     0   502   512  0.000000000E+00  0.000000000E+00  8.470698371E+02  8.470698371E+02  0.000000000E+00  0.00000E+00  9.000E+00
      21    -1     0     0   501   502  0.000000000E+00  0.000000000E+00 -2.938044634E+02  2.938044634E+02  0.000000000E+00  0.00000E+00  9.000E+00
      25     1     1     2     0     0 -6.399070643E+01 -1.161186900E+02 -1.922724435E+02  2.649000815E+02  1.250000000E+02  0.00000E+00  9.000E+00
      25     1     1     2     0     0  7.908966767E+00  1.002971332E+02  3.651541353E+01  1.645613627E+02  1.250000000E+02  0.00000E+00  9.000E+00
      21     1     1     2   501   512  5.608173967E+01  1.582155679E+01  7.090224036E+02  7.114128562E+02  7.629394531E-06  0.00000E+00  9.000E+00
#rwgt            2          11   2.9678476013765154E-003           3      195137           0
</event>
<event>
      5   9999  3.79277E-02  4.62628E+01 -1.00000E+00  1.41028E-01
      21    -1     0     0   502   501  0.000000000E+00  0.000000000E+00  1.203629907E+03  1.203629907E+03  0.000000000E+00  0.00000E+00  9.000E+00
      21    -1     0     0   501   511  0.000000000E+00  0.000000000E+00 -7.309678221E+01  7.309678221E+01  0.000000000E+00  0.00000E+00  9.000E+00
      25     1     1     2     0     0  1.098491771E+02  8.733717381E+01  1.321451035E+02  2.297432306E+02  1.250000000E+02  0.00000E+00  9.000E+00
      25     1     1     2     0     0 -9.906724681E+01 -1.323260411E+02  9.717423056E+02  9.935957976E+02  1.250000000E+02  0.00000E+00  9.000E+00
      21     1     1     2   502   511 -1.078193027E+01  4.498886725E+01  2.664571594E+01  5.338766126E+01  0.000000000E+00  0.00000E+00  9.000E+00
#rwgt            1           1   4.5766475196447755E-002           3      195277           0
</event>
<event>
      5   9999  3.79277E-02  1.76896E+02 -1.00000E+00  1.13624E-01
      21    -1     0     0   502   501  0.000000000E+00  0.000000000E+00  5.120486844E+02  5.120486844E+02  0.000000000E+00  0.00000E+00  9.000E+00
      21    -1     0     0   512   502  0.000000000E+00  0.000000000E+00 -1.735460014E+02  1.735460014E+02  0.000000000E+00  0.00000E+00  9.000E+00
      25     1     1     2     0     0  5.127988618E+01  1.304985051E+02  1.170434761E+02  2.213225290E+02  1.250000000E+02  0.00000E+00  9.000E+00
      25     1     1     2     0     0  1.242376335E+02 -1.084592195E+02  1.969629663E+02  2.856882951E+02  1.250000000E+02  0.00000E+00  9.000E+00
      21     1     1     2   512   501 -1.755175197E+02 -2.203928567E+01  2.449624064E+01  1.785838617E+02  1.581489940E-06  0.00000E+00  9.000E+00
#rwgt            2          11   1.9381720352130880E-003           3      195364           0
</event>
<event>
      5   9999  3.79277E-02  1.46020E+01 -1.00000E+00  1.78491E-01
      21    -1     0     0   502   511  0.000000000E+00  0.000000000E+00  8.914681591E+01  8.914681591E+01  0.000000000E+00  0.00000E+00  9.000E+00
      21    -1     0     0   501   502  0.000000000E+00  0.000000000E+00 -7.560919140E+02  7.560919140E+02  0.000000000E+00  0.00000E+00  9.000E+00
      25     1     1     2     0     0  1.117191996E+02 -6.608616485E+01 -2.565934482E+02  3.135502486E+02  1.250000000E+02  0.00000E+00  9.000E+00
      25     1     1     2     0     0 -1.257743944E+02  7.004468546E+01 -4.503836236E+02  4.890765428E+02  1.250000000E+02  0.00000E+00  9.000E+00
      21     1     1     2   501   511  1.405519484E+01 -3.958520618E+00  4.003197372E+01  4.261193855E+01  9.536743164E-07  0.00000E+00  9.000E+00
#rwgt            1           1   4.0943534704343185E-002           3      195414           0
</event>
<event>
      5   9999  3.79277E-02  9.44122E+01 -1.00000E+00  1.24962E-01
      21    -1     0     0   512   501  0.000000000E+00  0.000000000E+00  6.867477313E+02  6.867477313E+02  0.000000000E+00  0.00000E+00  9.000E+00
      21    -1     0     0   501   502  0.000000000E+00  0.000000000E+00 -9.663972747E+01  9.663972747E+01  0.000000000E+00  0.00000E+00  9.000E+00
      25     1     1     2     0     0 -3.996502145E+01 -3.479932615E+01 -6.075003032E+00  1.359047523E+02  1.250000000E+02  0.00000E+00  9.000E+00
      25     1     1     2     0     0 -5.434249739E+01  3.924331176E+01  4.629394360E+02  4.841808195E+02  1.250000000E+02  0.00000E+00  9.000E+00
      21     1     1     2   512   502  9.430751884E+01 -4.443985613E+00  1.332435709E+02  1.633018870E+02  2.697398305E-06  0.00000E+00  9.000E+00
#rwgt            1           1   4.4565492760315240E-002           3      195741           0
</event>
<event>
      5   9999  3.79277E-02  1.42305E+02 -1.00000E+00  1.17307E-01
      21    -1     0     0   502   501  0.000000000E+00  0.000000000E+00  2.477944139E+02  2.477944139E+02  0.000000000E+00  0.00000E+00  9.000E+00
      21    -1     0     0   511   502  0.000000000E+00  0.000000000E+00 -3.601334338E+02  3.601334338E+02  0.000000000E+00  0.00000E+00  9.000E+00
      25     1     1     2     0     0 -6.452726320E+01 -5.536407448E+01  1.125369846E+02  1.884635809E+02  1.250000000E+02  0.00000E+00  9.000E+00
      25     1     1     2     0     0  1.538740911E+02 -5.539658755E+01 -9.462696112E+01  2.265508323E+02  1.250000000E+02  0.00000E+00  9.000E+00
      21     1     1     2   511   501 -8.934682792E+01  1.107606620E+02 -1.302490434E+02  1.929134345E+02  0.000000000E+00  0.00000E+00  9.000E+00
#rwgt            1           1   4.4628828021023317E-002           3      195847           0
</event>
<event>
      5   9999  3.79277E-02  3.91300E+01 -1.00000E+00  1.45435E-01
      21    -1     0     0   502   501  0.000000000E+00  0.000000000E+00  9.070865492E+02  9.070865492E+02  0.000000000E+00  0.00000E+00  9.000E+00
      21    -1     0     0   512   502  0.000000000E+00  0.000000000E+00 -1.070622696E+02  1.070622696E+02  0.000000000E+00  0.00000E+00  9.000E+00
      25     1     1     2     0     0 -1.538032336E+02 -1.984863334E+01  6.034189214E+02  6.354437801E+02  1.250000000E+02  0.00000E+00  9.000E+00
      25     1     1     2     0     0  1.896414689E+02  4.139506633E+00  2.328932247E+02  3.253387102E+02  1.250000000E+02  0.00000E+00  9.000E+00
      21     1     1     2   512   501 -3.583823534E+01  1.570912671E+01 -3.628786641E+01  5.336632855E+01  1.907348633E-06  0.00000E+00  9.000E+00
#rwgt            1           1   3.7155751418005437E-002           3      195934           0
</event>
<event>
      5   9999  3.79277E-02  5.84729E+01 -1.00000E+00  1.35304E-01
      21    -1     0     0   502   511  0.000000000E+00  0.000000000E+00  8.637310791E+02  8.637310791E+02  0.000000000E+00  0.00000E+00  9.000E+00
      21    -1     0     0   501   502  0.000000000E+00  0.000000000E+00 -2.949352599E+02  2.949352599E+02  0.000000000E+00  0.00000E+00  9.000E+00
      25     1     1     2     0     0  5.777475177E+01 -1.827256301E+02 -8.077009423E+01  2.426425065E+02  1.250000000E+02  0.00000E+00  9.000E+00
      25     1     1     2     0     0 -7.889077958E+00  1.522215608E+02 -5.844103337E+01  2.056064092E+02  1.250000000E+02  0.00000E+00  9.000E+00
      21     1     1     2   501   511 -4.988567381E+01  3.050406929E+01  7.080069467E+02  7.104174233E+02  7.629394531E-06  0.00000E+00  9.000E+00
#rwgt            1           1   4.1168147514662821E-002           3      196039           0
</event>
<event>
      5   9999  3.79277E-02  7.33177E+00 -1.00000E+00  2.12750E-01
      21    -1     0     0   502   501  0.000000000E+00  0.000000000E+00  7.122175234E+02  7.122175234E+02  0.000000000E+00  0.00000E+00  9.000E+00
      21    -1     0     0   512   502  0.000000000E+00  0.000000000E+00 -3.037993569E+02  3.037993569E+02  0.000000000E+00  0.00000E+00  9.000E+00
      25     1     1     2     0     0 -7.347753683E+01  3.166728031E+01  4.981346143E+01  1.565507777E+02  1.250000000E+02  0.00000E+00  9.000E+00
      25     1     1     2     0     0  8.000531330E+01 -2.832916382E+01  5.996080812E+02  6.183512292E+02  1.250000000E+02  0.00000E+00  9.000E+00
      21     1     1     2   512   501 -6.527776463E+00 -3.338116498E+00 -2.410033761E+02  2.411148734E+02  2.697398305E-06  0.00000E+00  9.000E+00
#rwgt            1           1   3.9304086302573975E-002           3      196156           0
</event>
<event>
      5   9999  3.79277E-02  4.85169E+01 -1.00000E+00  1.39826E-01
      21    -1     0     0   502   501  0.000000000E+00  0.000000000E+00  1.166852959E+03  1.166852959E+03  0.000000000E+00  0.00000E+00  9.000E+00
      21    -1     0     0   511   502  0.000000000E+00  0.000000000E+00 -7.001402042E+01  7.001402042E+01  0.000000000E+00  0.00000E+00  9.000E+00
      25     1     1     2     0     0  2.109803941E+00 -2.280176131E+02  6.096993950E+02  6.628384686E+02  1.250000000E+02  0.00000E+00  9.000E+00
      25     1     1     2     0     0 -4.692440180E+01  2.094289037E+02  4.456641425E+02  5.101998560E+02  1.250000000E+02  0.00000E+00  9.000E+00
      21     1     1     2   511   501  4.481459786E+01  1.858870949E+01  4.147540157E+01  6.382865529E+01  4.768371582E-07  0.00000E+00  9.000E+00
#rwgt            1           1   2.6298165151326380E-002           3      196445           0
</event>
<event>
      5   9999  3.79277E-02  8.84543E+00 -1.00000E+00  2.02125E-01
      21    -1     0     0   502   501  0.000000000E+00  0.000000000E+00  3.128452716E+01  3.128452716E+01  0.000000000E+00  0.00000E+00  9.000E+00
      21    -1     0     0   512   502  0.000000000E+00  0.000000000E+00 -2.839805497E+03  2.839805497E+03  0.000000000E+00  0.00000E+00  9.000E+00
      25     1     1     2     0     0 -8.395215547E+01 -6.532998629E+01 -1.038363160E+03  1.051255926E+03  1.250000000E+02  0.00000E+00  9.000E+00
      25     1     1     2     0     0  7.834136685E+01  7.216817009E+01 -2.467787704E+02  2.964293778E+02  1.250000000E+02  0.00000E+00  9.000E+00
      21     1     1     2   512   501  5.610788614E+00 -6.838183807E+00 -1.523379040E+03  1.523404720E+03  2.157918644E-05  0.00000E+00  9.000E+00
#rwgt            1           1   4.0224295209099044E-002           3      196537           0
</event>
<event>
      5   9999  3.79277E-02  8.71918E+01 -1.00000E+00  1.26566E-01
      21    -1     0     0   502   511  0.000000000E+00  0.000000000E+00  6.792870088E+01  6.792870088E+01  0.000000000E+00  0.00000E+00  9.000E+00
      21    -1     0     0   501   502  0.000000000E+00  0.000000000E+00 -7.815909416E+02  7.815909416E+02  0.000000000E+00  0.00000E+00  9.000E+00
      25     1     1     2     0     0 -3.464420391E+01  8.029025063E+01 -3.377469398E+02  3.706005134E+02  1.250000000E+02  0.00000E+00  9.000E+00
      25     1     1     2     0     0  1.064385175E+02 -1.297674372E+02 -2.558552398E+02  3.305384236E+02  1.250000000E+02  0.00000E+00  9.000E+00
      21     1     1     2   501   511 -7.179431358E+01  4.947718661E+01 -1.200600611E+02  1.483807054E+02  3.303624740E-06  0.00000E+00  9.000E+00
#rwgt            1           1   3.7087868603476772E-002           3      196874           0
</event>
<event>
      5   9999  3.79277E-02  1.75486E+02 -1.00000E+00  1.13755E-01
      21    -1     0     0   512   501  0.000000000E+00  0.000000000E+00  4.119112016E+02  4.119112016E+02  0.000000000E+00  0.00000E+00  9.000E+00
      21    -1     0     0   501   502  0.000000000E+00  0.000000000E+00 -3.865311998E+02  3.865311998E+02  0.000000000E+00  0.00000E+00  9.000E+00
      25     1     1     2     0     0  4.186585844E+01 -1.734740463E+02  1.610792991E+02  2.709567040E+02  1.250000000E+02  0.00000E+00  9.000E+00
      25     1     1     2     0     0  3.310916512E+01  1.481015518E+01 -2.744660421E+02  3.037633384E+02  1.250000000E+02  0.00000E+00  9.000E+00
      21     1     1     2   512   502 -7.497502357E+01  1.586638911E+02  1.387667447E+02  2.237223590E+02  3.814697266E-06  0.00000E+00  9.000E+00
#rwgt            1           1   3.0402629087992690E-002           3      197058           0
</event>
<event>
      5   9999 -3.79277E-02  1.18234E+02 -1.00000E+00  1.20642E-01
      21    -1     0     0   502   501  0.000000000E+00  0.000000000E+00  1.149239910E+02  1.149239910E+02  0.000000000E+00  0.00000E+00  9.000E+00
       1    -1     0     0   501     0  0.000000000E+00  0.000000000E+00 -1.246238503E+03  1.246238503E+03  0.000000000E+00  0.00000E+00  9.000E+00
      25     1     1     2     0     0 -3.584517228E+01  2.100077141E+02 -4.807753729E+02  5.405164896E+02  1.250000000E+02  0.00000E+00  9.000E+00
      25     1     1     2     0     0  1.286853919E+02 -1.367952327E+02 -8.216114914E+01  2.401006460E+02  1.250000000E+02  0.00000E+00  9.000E+00
       1     1     1     2   502     0 -9.284021962E+01 -7.321248139E+01 -5.683779901E+02  5.805453586E+02  7.629394531E-06  0.00000E+00  9.000E+00
#rwgt            1           1  -8.2470937901044178E-002           3      197128           0
</event>
<event>
      5   9999 -3.79277E-02  3.31626E+01 -1.00000E+00  1.50077E-01
      21    -1     0     0   502   511  0.000000000E+00  0.000000000E+00  5.726661244E+02  5.726661244E+02  0.000000000E+00  0.00000E+00  9.000E+00
      21    -1     0     0   501   502  0.000000000E+00  0.000000000E+00 -7.440250081E+01  7.440250081E+01  0.000000000E+00  0.00000E+00  9.000E+00
      25     1     1     2     0     0  3.399098708E+01  1.324018853E+02  2.676770704E+02  3.255175271E+02  1.250000000E+02  0.00000E+00  9.000E+00
      25     1     1     2     0     0 -1.064267117E+01 -1.088515956E+02  1.168499598E+02  2.030784317E+02  1.250000000E+02  0.00000E+00  9.000E+00
      21     1     1     2   501   511 -2.334831591E+01 -2.355028969E+01  1.137365935E+02  1.184726664E+02  1.348699152E-06  0.00000E+00  9.000E+00
#rwgt            1           1  -9.5773067649868940E-002           3      197183           0
</event>
<event>
      5   9999  3.79277E-02  1.12750E+02 -1.00000E+00  1.21528E-01
      21    -1     0     0   502   501  0.000000000E+00  0.000000000E+00  1.997313306E+02  1.997313306E+02  0.000000000E+00  0.00000E+00  9.000E+00
      21    -1     0     0   512   502  0.000000000E+00  0.000000000E+00 -4.943577504E+02  4.943577504E+02  0.000000000E+00  0.00000E+00  9.000E+00
      25     1     1     2     0     0 -1.237431439E+02 -1.748106241E+02 -5.486115268E+01  2.539800505E+02  1.250000000E+02  0.00000E+00  9.000E+00
      25     1     1     2     0     0  1.099587935E+01  1.740746268E+02 -5.152798162E+01  2.206876026E+02  1.250000000E+02  0.00000E+00  9.000E+00
      21     1     1     2   512   501  1.127472646E+02  7.359973426E-01 -1.882372855E+02  2.194214279E+02  2.697398305E-06  0.00000E+00  9.000E+00
#rwgt            1           1   4.8936717828158706E-002           3      197313           0
</event>
<event>
      5   9999  3.79277E-02  1.97764E+02 -1.00000E+00  1.11826E-01
      21    -1     0     0   502   501  0.000000000E+00  0.000000000E+00  3.852688679E+02  3.852688679E+02  0.000000000E+00  0.00000E+00  9.000E+00
       2    -1     0     0   501     0  0.000000000E+00  0.000000000E+00 -1.828248836E+03  1.828248836E+03  0.000000000E+00  0.00000E+00  9.000E+00
      25     1     1     2     0     0 -1.629000333E+02 -1.186450594E+01  1.907226506E+02  2.804947715E+02  1.250000000E+02  0.00000E+00  9.000E+00
      25     1     1     2     0     0  4.088333066E+01 -1.437708714E+02  7.803781716E+01  2.098961912E+02  1.250000000E+02  0.00000E+00  9.000E+00
       2     1     1     2   502     0  1.220167026E+02  1.556353773E+02 -1.711740436E+03  1.723126741E+03  2.157918644E-05  0.00000E+00  9.000E+00
#rwgt            1           1   4.2427749030778589E-002           3      197450           0
</event>
<event>
      5   9999  3.79277E-02  5.40707E+00 -1.00000E+00  2.32727E-01
      21    -1     0     0   502   501  0.000000000E+00  0.000000000E+00  5.590508129E+01  5.590508129E+01  0.000000000E+00  0.00000E+00  9.000E+00
      21    -1     0     0   511   502  0.000000000E+00  0.000000000E+00 -7.504166762E+02  7.504166762E+02  0.000000000E+00  0.00000E+00  9.000E+00
      25     1     1     2     0     0 -2.494237871E+01  1.317001353E+02 -4.878904842E+02  5.211805565E+02  1.250000000E+02  0.00000E+00  9.000E+00
      25     1     1     2     0     0  2.110504880E+01 -1.278907599E+02 -1.684217577E+02  2.465610634E+02  1.250000000E+02  0.00000E+00  9.000E+00
      21     1     1     2   511   501  3.837329909E+00 -3.809375478E+00 -3.819935307E+01  3.858013760E+01  0.000000000E+00  0.00000E+00  9.000E+00
#rwgt            1           1   3.9693965669188522E-002           3      197530           0
</event>
<event>
      5   9999  3.79277E-02  3.65280E+01 -1.00000E+00  1.47329E-01
      21    -1     0     0   512   501  0.000000000E+00  0.000000000E+00  4.492415345E+02  4.492415345E+02  0.000000000E+00  0.00000E+00  9.000E+00
      21    -1     0     0   501   502  0.000000000E+00  0.000000000E+00 -1.813748713E+02  1.813748713E+02  0.000000000E+00  0.00000E+00  9.000E+00
      25     1     1     2     0     0  2.965308513E+01 -1.153878726E+02 -6.738165407E+01  1.853616840E+02  1.250000000E+02  0.00000E+00  9.000E+00
      25     1     1     2     0     0 -5.350259106E+01  1.430554097E+02  1.289674876E+02  2.357646928E+02  1.250000000E+02  0.00000E+00  9.000E+00
      21     1     1     2   512   502  2.384950593E+01 -2.766753709E+01  2.062808297E+02  2.094900290E+02  2.697398305E-06  0.00000E+00  9.000E+00
#rwgt            1           1   3.6985519588459609E-002           3      197940           0
</event>
<event>
      5   9999  3.79277E-02  3.28138E+01 -1.00000E+00  1.50384E-01
      21    -1     0     0   502   501  0.000000000E+00  0.000000000E+00  8.213669979E+02  8.213669979E+02  0.000000000E+00  0.00000E+00  9.000E+00
      21    -1     0     0   501   511  0.000000000E+00  0.000000000E+00 -6.460641278E+01  6.460641278E+01  0.000000000E+00  0.00000E+00  9.000E+00
      25     1     1     2     0     0  9.339659434E+01  1.580442083E+02  3.219016163E+02  3.910838097E+02  1.250000000E+02  0.00000E+00  9.000E+00
      25     1     1     2     0     0 -6.378740997E+01 -1.439005102E+02  3.955054285E+02  4.436504643E+02  1.250000000E+02  0.00000E+00  9.000E+00
      21     1     1     2   502   511 -2.960918437E+01 -1.414369810E+01  3.935354028E+01  5.123913668E+01  4.768371582E-07  0.00000E+00  9.000E+00
#rwgt            1           1   3.9646245282006214E-002           3      198078           0
</event>
<event>
      5   9999  3.79277E-02  2.04685E+01 -1.00000E+00  1.65544E-01
      21    -1     0     0   512   501  0.000000000E+00  0.000000000E+00  6.390597820E+02  6.390597820E+02  0.000000000E+00  0.00000E+00  9.000E+00
      21    -1     0     0   501   502  0.000000000E+00  0.000000000E+00 -4.525053468E+02  4.525053468E+02  0.000000000E+00  0.00000E+00  9.000E+00
      25     1     1     2     0     0 -2.004527738E+02  4.708845762E+01 -8.263440334E+01  2.546607193E+02  1.250000000E+02  0.00000E+00  9.000E+00
      25     1     1     2     0     0  2.026955284E+02 -6.743375103E+01 -2.296568636E+02  3.376389536E+02  1.250000000E+02  0.00000E+00  9.000E+00
      21     1     1     2   512   502 -2.242754656E+00  2.034529341E+01  4.988457020E+02  4.992654558E+02  0.000000000E+00  0.00000E+00  9.000E+00
#rwgt            1           1   2.9449001130631734E-002           3      198205           0
</event>
<event>
      5   9999  3.79277E-02  3.32678E+01 -1.00000E+00  1.49985E-01
      21    -1     0     0   502   501  0.000000000E+00  0.000000000E+00  9.328746750E+02  9.328746750E+02  0.000000000E+00  0.00000E+00  9.000E+00
      21    -1     0     0   501   511  0.000000000E+00  0.000000000E+00 -5.118556941E+01  5.118556941E+01  0.000000000E+00  0.00000E+00  9.000E+00
      25     1     1     2     0     0  1.385687984E+02 -3.506334882E+01  3.636288150E+02  4.102214834E+02  1.250000000E+02  0.00000E+00  9.000E+00
      25     1     1     2     0     0 -1.625342374E+02  5.813726500E+01  4.586227590E+02  5.057243864E+02  1.250000000E+02  0.00000E+00  9.000E+00
      21     1     1     2   502   511  2.396543894E+01 -2.307391618E+01  5.943753156E+01  6.811437462E+01  9.536743164E-07  0.00000E+00  9.000E+00
#rwgt            1           1   5.1657532660607540E-002           3      198433           0
</event>
<event>
      5   9999  3.79277E-02  3.36080E+01 -1.00000E+00  1.49691E-01
      21    -1     0     0   512   501  0.000000000E+00  0.000000000E+00  2.380006377E+03  2.380006377E+03  0.000000000E+00  0.00000E+00  9.000E+00
      21    -1     0     0   501   502  0.000000000E+00  0.000000000E+00 -9.916913630E+01  9.916913630E+01  0.000000000E+00  0.00000E+00  9.000E+00
      25     1     1     2     0     0 -3.234337852E+01  1.462971679E+01 -2.536489615E+01  1.323952443E+02  1.250000000E+02  0.00000E+00  9.000E+00
      25     1     1     2     0     0 -4.454224187E-01 -2.200472637E+01  1.796499102E+02  2.199624891E+02  1.250000000E+02  0.00000E+00  9.000E+00
      21     1     1     2   512   502  3.278880094E+01  7.375009574E+00  2.126552227E+03  2.126817780E+03  5.285799584E-05  0.00000E+00  9.000E+00
#rwgt            1           1   3.5104452918289945E-002           3      198594           0
</event>
<event>
      5   9999  3.79277E-02  7.40740E+01 -1.00000E+00  1.29988E-01
       1    -1     0     0   502     0  0.000000000E+00  0.000000000E+00  2.353546671E+03  2.353546671E+03  0.000000000E+00  0.00000E+00  9.000E+00
      21    -1     0     0   501   502  0.000000000E+00  0.000000000E+00 -8.496286442E+01  8.496286442E+01  0.000000000E+00  0.00000E+00  9.000E+00
      25     1     1     2     0     0  2.674540917E+02  5.319048021E+01  1.030592275E+03  1.073362174E+03  1.250000000E+02  0.00000E+00  9.000E+00
      25     1     1     2     0     0 -2.578657638E+02  2.026033878E+01  2.697459797E+02  3.940724896E+02  1.250000000E+02  0.00000E+00  9.000E+00
       1     1     1     2   501     0 -9.588327906E+00 -7.345081899E+01  9.682455513E+02  9.710748717E+02  1.078959322E-05  0.00000E+00  9.000E+00
#rwgt            1           1   5.4607910020142141E-002           3      198732           0
</event>
<event>
      5   9999  3.79277E-02  1.68827E+01 -1.00000E+00  1.72679E-01
      21    -1     0     0   502   511  0.000000000E+00  0.000000000E+00  3.836457109E+02  3.836457109E+02  0.000000000E+00  0.00000E+00  9.000E+00
      21    -1     0     0   501   502  0.000000000E+00  0.000000000E+00 -4.075876037E+02  4.075876037E+02  0.000000000E+00  0.00000E+00  9.000E+00
      25     1     1     2     0     0  1.669772020E+02  1.134858612E+01 -2.667361088E+02  3.387968833E+02  1.250000000E+02  0.00000E+00  9.000E+00
      25     1     1     2     0     0 -1.805735327E+02 -1.340260381E+00  1.086132638E+01  2.198898938E+02  1.250000000E+02  0.00000E+00  9.000E+00
      21     1     1     2   501   511  1.359633072E+01 -1.000832574E+01  2.319328896E+02  2.325465375E+02  3.814697266E-06  0.00000E+00  9.000E+00
#rwgt            1           1   3.7679122197872443E-002           3      198873           0
</event>
<event>
      5   9999  3.79277E-02  2.88612E+01 -1.00000E+00  1.54216E-01
      21    -1     0     0   502   512  0.000000000E+00  0.000000000E+00  1.165664556E+03  1.165664556E+03  0.000000000E+00  0.00000E+00  9.000E+00
      21    -1     0     0   501   502  0.000000000E+00  0.000000000E+00 -5.128726503E+01  5.128726503E+01  0.000000000E+00  0.00000E+00  9.000E+00
      25     1     1     2     0     0 -9.329368994E+01 -2.955653937E-01  1.315063446E+02  2.040164665E+02  1.250000000E+02  0.00000E+00  9.000E+00
      25     1     1     2     0     0  7.711029627E+01 -2.360144164E+01  3.617030175E+02  3.910973008E+02  1.250000000E+02  0.00000E+00  9.000E+00
      21     1     1     2   501   512  1.618339367E+01  2.389700704E+01  6.211679285E+02  6.218380533E+02  7.629394531E-06  0.00000E+00  9.000E+00
#rwgt            1           1   4.6902097320491457E-002           3      199221           0
</event>
<event>
      5   9999  3.79277E-02  9.72174E+01 -1.00000E+00  1.24382E-01
      21    -1     0     0   502   511  0.000000000E+00  0.000000000E+00  2.087908648E+02  2.087908648E+02  0.000000000E+00  0.00000E+00  9.000E+00
      21    -1     0     0   501   502  0.000000000E+00  0.000000000E+00 -3.475428755E+02  3.475428755E+02  0.000000000E+00  0.00000E+00  9.000E+00
      25     1     1     2     0     0 -6.367156433E+01  1.247472992E+02 -2.041027941E+02  2.773065223E+02  1.250000000E+02  0.00000E+00  9.000E+00
      25     1     1     2     0     0 -3.319228770E+01 -1.164636131E+02  4.291258916E+01  1.792539859E+02  1.250000000E+02  0.00000E+00  9.000E+00
      21     1     1     2   501   511  9.686385204E+01 -8.283686040E+00  2.243819421E+01  9.977323211E+01  1.634515429E-06  0.00000E+00  9.000E+00
#rwgt            1           1   3.9605662847623159E-002           3      199426           0
</event>
<event>
      5   9999  3.79277E-02  6.70987E+01 -1.00000E+00  1.32159E-01
      21    -1     0     0   502   512  0.000000000E+00  0.000000000E+00  1.470389608E+03  1.470389608E+03  0.000000000E+00  0.00000E+00  9.000E+00
      21    -1     0     0   501   502  0.000000000E+00  0.000000000E+00 -5.314543426E+02  5.314543426E+02  0.000000000E+00  0.00000E+00  9.000E+00
      25     1     1     2     0     0  1.186075893E+02  3.376243596E+00 -4.684231180E+02  4.991236087E+02  1.250000000E+02  0.00000E+00  9.000E+00
      25     1     1     2     0     0 -1.017473882E+02 -6.832214743E+01  1.168621395E+02  2.104808934E+02  1.250000000E+02  0.00000E+00  9.000E+00
      21     1     1     2   501   512 -1.686020109E+01  6.494590383E+01  1.290496244E+03  1.292239449E+03  2.157918644E-05  0.00000E+00  9.000E+00
#rwgt            1           1   6.7572006134597740E-002           3      199511           0
</event>
<event>
      5   9999  3.79277E-02  2.36871E+01 -1.00000E+00  1.60526E-01
      21    -1     0     0   502   501  0.000000000E+00  0.000000000E+00  1.036833382E+02  1.036833382E+02  0.000000000E+00  0.00000E+00  9.000E+00
      21    -1     0     0   511   502  0.000000000E+00  0.000000000E+00 -7.913796447E+02  7.913796447E+02  0.000000000E+00  0.00000E+00  9.000E+00
      25     1     1     2     0     0  1.129997926E+02 -4.827013006E+01 -5.610419154E+01  1.840424921E+02  1.250000000E+02  0.00000E+00  9.000E+00
      25     1     1     2     0     0 -1.231921657E+02  6.965226312E+01 -1.868295604E+02  2.656276192E+02  1.250000000E+02  0.00000E+00  9.000E+00
      21     1     1     2   511   501  1.019237304E+01 -2.138213306E+01 -4.447625546E+02  4.453928716E+02  0.000000000E+00  0.00000E+00  9.000E+00
#rwgt            1           1   2.5192245772655539E-002           3      199719           0
</event>
<event>
      5   9999 -3.79277E-02  4.03261E+01 -1.00000E+00  1.44622E-01
      21    -1     0     0   502   512  0.000000000E+00  0.000000000E+00  1.658165118E+02  1.658165118E+02  0.000000000E+00  0.00000E+00  9.000E+00
      21    -1     0     0   501   502  0.000000000E+00  0.000000000E+00 -9.633050684E+02  9.633050684E+02  0.000000000E+00  0.00000E+00  9.000E+00
      25     1     1     2     0     0  2.933684134E+02  7.281720649E+01 -5.690049959E+02  6.563223727E+02  1.250000000E+02  0.00000E+00  9.000E+00
      25     1     1     2     0     0 -2.616561094E+02 -4.790680973E+01 -2.809728903E+02  4.066076083E+02  1.250000000E+02  0.00000E+00  9.000E+00
      21     1     1     2   501   512 -3.171230404E+01 -2.491039677E+01  5.248932951E+01  6.619159922E+01  2.236564522E-06  0.00000E+00  9.000E+00
#rwgt            1           1 -0.26344539316197890                3      199866           0
</event>
<event>
      5   9999  3.79277E-02  9.01680E+01 -1.00000E+00  1.25884E-01
       2    -1     0     0   502     0  0.000000000E+00  0.000000000E+00  1.004583042E+03  1.004583042E+03  0.000000000E+00  0.00000E+00  9.000E+00
      21    -1     0     0   501   502  0.000000000E+00  0.000000000E+00 -1.605795520E+02  1.605795520E+02  0.000000000E+00  0.00000E+00  9.000E+00
      25     1     1     2     0     0 -1.672826084E+01 -1.294702620E+02  3.409786187E+02  3.859194241E+02  1.250000000E+02  0.00000E+00  9.000E+00
      25     1     1     2     0     0  1.017005104E+02  9.930427041E+01 -6.800978816E+01  2.011334463E+02  1.250000000E+02  0.00000E+00  9.000E+00
       2     1     1     2   501     0 -8.497224956E+01  3.016599162E+01  5.710346599E+02  5.781097241E+02  1.078959322E-05  0.00000E+00  9.000E+00
#rwgt            1           1   3.9663470974744375E-002           3      199959           0
</event>
<event>
      5   9999  3.79277E-02  3.68224E+01 -1.00000E+00  1.47105E-01
      21    -1     0     0   502   511  0.000000000E+00  0.000000000E+00  5.132187414E+02  5.132187414E+02  0.000000000E+00  0.00000E+00  9.000E+00
      21    -1     0     0   501   502  0.000000000E+00  0.000000000E+00 -1.053495472E+02  1.053495472E+02  0.000000000E+00  0.00000E+00  9.000E+00
      25     1     1     2     0     0  7.921285623E+01 -1.122346012E+02  3.018683498E+02  3.544302229E+02  1.250000000E+02  0.00000E+00  9.000E+00
      25     1     1     2     0     0 -7.725654972E+01  7.546425087E+01  1.488300768E+01  1.658611816E+02  1.250000000E+02  0.00000E+00  9.000E+00
      21     1     1     2   501   511 -1.956306517E+00  3.677035029E+01  9.111783668E+01  9.827688414E+01  1.907348633E-06  0.00000E+00  9.000E+00
#rwgt            1           1   4.0280589880265172E-002           3      200120           0
</event>
<event>
      5   9999  3.79277E-02  2.94261E+01 -1.00000E+00  1.53625E-01
      21    -1     0     0   512   501  0.000000000E+00  0.000000000E+00  7.383898343E+02  7.383898343E+02  0.000000000E+00  0.00000E+00  9.000E+00
      21    -1     0     0   501   502  0.000000000E+00  0.000000000E+00 -7.597145405E+01  7.597145405E+01  0.000000000E+00  0.00000E+00  9.000E+00
      25     1     1     2     0     0 -9.658216257E+01 -4.255946423E+01  5.038665882E+01  1.711818843E+02  1.250000000E+02  0.00000E+00  9.000E+00
      25     1     1     2     0     0  1.023862434E+02  1.371147014E+01  4.461066559E+02  4.746652459E+02  1.250000000E+02  0.00000E+00  9.000E+00
      21     1     1     2   512   502 -5.804080840E+00  2.884799410E+01  1.659250655E+02  1.685141581E+02  1.907348633E-06  0.00000E+00  9.000E+00
#rwgt            1           1   4.4517231020078783E-002           3      200221           0
</event>
<event>
      5   9999  3.79277E-02  2.80172E+01 -1.00000E+00  1.55131E-01
      21    -1     0     0   502   501  0.000000000E+00  0.000000000E+00  1.742560676E+02  1.742560676E+02  0.000000000E+00  0.00000E+00  9.000E+00
      21    -1     0     0   511   502  0.000000000E+00  0.000000000E+00 -1.123716807E+03  1.123716807E+03  0.000000000E+00  0.00000E+00  9.000E+00
      25     1     1     2     0     0 -5.987894964E+01 -1.089518986E+02  6.513190690E+01  1.879445932E+02  1.250000000E+02  0.00000E+00  9.000E+00
      25     1     1     2     0     0  8.789473231E+01  1.092302555E+02 -1.382230318E+02  2.332109328E+02  1.250000000E+02  0.00000E+00  9.000E+00
      21     1     1     2   511   501 -2.801578267E+01 -2.783568833E-01 -8.763696149E+02  8.768173490E+02  0.000000000E+00  0.00000E+00  9.000E+00
#rwgt            1           1   4.3713273179943883E-002           3      200353           0
</event>
<event>
      5   9999  3.79277E-02  3.08300E+01 -1.00000E+00  1.52221E-01
      21    -1     0     0   512   501  0.000000000E+00  0.000000000E+00  1.337777148E+02  1.337777148E+02  0.000000000E+00  0.00000E+00  9.000E+00
      21    -1     0     0   501   502  0.000000000E+00  0.000000000E+00 -2.041212224E+03  2.041212224E+03  0.000000000E+00  0.00000E+00  9.000E+00
      25     1     1     2     0     0 -9.757053940E+01  2.060461699E+02 -6.508438389E+02  7.008550042E+02  1.250000000E+02  0.00000E+00  9.000E+00
      25     1     1     2     0     0  1.244745106E+02 -1.909906862E+02 -1.350497754E+03  1.375296524E+03  1.250000000E+02  0.00000E+00  9.000E+00
      21     1     1     2   512   502 -2.690397120E+01 -1.505548372E+01  9.390708301E+01  9.883841103E+01  3.015782986E-06  0.00000E+00  9.000E+00
#rwgt            1           1  0.10691166515971240                3      200459           0
</event>
<event>
      5   9999  3.79277E-02  5.40014E+01 -1.00000E+00  1.37194E-01
      21    -1     0     0   502   511  0.000000000E+00  0.000000000E+00  5.025855826E+01  5.025855826E+01  0.000000000E+00  0.00000E+00  9.000E+00
      21    -1     0     0   501   502  0.000000000E+00  0.000000000E+00 -1.155648979E+03  1.155648979E+03  0.000000000E+00  0.00000E+00  9.000E+00
      25     1     1     2     0     0 -6.732851386E+00 -2.085533169E+01 -9.234974312E+02  9.321763683E+02  1.250000000E+02  0.00000E+00  9.000E+00
      25     1     1     2     0     0  6.872739430E+00  7.485658304E+01 -1.568973526E+02  2.142253996E+02  1.250000000E+02  0.00000E+00  9.000E+00
      21     1     1     2   501   511 -1.398880444E-01 -5.400125135E+01 -2.499563680E+01  5.950576926E+01  6.743495762E-07  0.00000E+00  9.000E+00
#rwgt            1           1   4.5049603722665803E-002           3      200746           0
</event>
<event>
      5   9999  3.79277E-02  1.77315E+02 -1.00000E+00  1.13585E-01
      21    -1     0     0   502   501  0.000000000E+00  0.000000000E+00  5.159888070E+02  5.159888070E+02  0.000000000E+00  0.00000E+00  9.000E+00
      21    -1     0     0   512   502  0.000000000E+00  0.000000000E+00 -1.555568486E+03  1.555568486E+03  0.000000000E+00  0.00000E+00  9.000E+00
      25     1     1     2     0     0 -2.597235277E+02  3.549356984E+02 -8.614891012E+01  4.652765797E+02  1.250000000E+02  0.00000E+00  9.000E+00
      25     1     1     2     0     0  8.665399420E+01 -3.163659109E+02  2.234518669E+02  4.161154180E+02  1.250000000E+02  0.00000E+00  9.000E+00
      21     1     1     2   512   501  1.730695335E+02 -3.856978749E+01 -1.176882636E+03  1.190165295E+03  2.157918644E-05  0.00000E+00  9.000E+00
#rwgt            1           1   3.0503917150369823E-002           3      200875           0
</event>
<event>
      5   9999  3.79277E-02  2.36441E+01 -1.00000E+00  1.60586E-01
      21    -1     0     0   502   501  0.000000000E+00  0.000000000E+00  4.090793179E+02  4.090793179E+02  0.000000000E+00  0.00000E+00  9.000E+00
      21    -1     0     0   501   511  0.000000000E+00  0.000000000E+00 -3.003135596E+02  3.003135596E+02  0.000000000E+00  0.00000E+00  9.000E+00
      25     1     1     2     0     0  1.404791632E+02  2.084196925E+02  2.205015512E+02  3.569581175E+02  1.250000000E+02  0.00000E+00  9.000E+00
      25     1     1     2     0     0 -1.422069839E+02 -2.320006163E+02 -7.492421249E+01  3.086838996E+02  1.250000000E+02  0.00000E+00  9.000E+00
      21     1     1     2   502   511  1.727820749E+00  2.358092381E+01 -3.681158049E+01  4.375086045E+01  4.768371582E-07  0.00000E+00  9.000E+00
#rwgt            1           1   5.1586833341143161E-002           3      200949           0
</event>
<event>
      5   9999 -3.79277E-02  1.57493E+01 -1.00000E+00  1.75412E-01
      21    -1     0     0   512   501  0.000000000E+00  0.000000000E+00  1.811575038E+02  1.811575038E+02  0.000000000E+00  0.00000E+00  9.000E+00
      21    -1     0     0   501   502  0.000000000E+00  0.000000000E+00 -9.100565737E+02  9.100565737E+02  0.000000000E+00  0.00000E+00  9.000E+00
      25     1     1     2     0     0 -8.498817245E+01  2.241208023E+02 -4.286403116E+02  5.067648767E+02  1.250000000E+02  0.00000E+00  9.000E+00
      25     1     1     2     0     0  8.891193087E+01 -2.088681204E+02 -4.037531692E+02  4.797633217E+02  1.250000000E+02  0.00000E+00  9.000E+00
      21     1     1     2   512   502 -3.923758428E+00 -1.525268182E+01  1.034944110E+02  1.046858791E+02  3.015782986E-06  0.00000E+00  9.000E+00
#rwgt            1           1  -7.8466598485489356E-002           3      201170           0
</event>
<event>
      5   9999  3.79277E-02  4.02959E+01 -1.00000E+00  1.44642E-01
      21    -1     0     0   511   501  0.000000000E+00  0.000000000E+00  1.100876231E+03  1.100876231E+03  0.000000000E+00  0.00000E+00  9.000E+00
      21    -1     0     0   501   502  0.000000000E+00  0.000000000E+00 -4.916757488E+01  4.916757488E+01  0.000000000E+00  0.00000E+00  9.000E+00
      25     1     1     2     0     0  5.523379096E+01  1.431930262E+02  4.769798057E+02  5.164201289E+02  1.250000000E+02  0.00000E+00  9.000E+00
      25     1     1     2     0     0 -9.245403181E+01 -1.586336291E+02  4.383220303E+02  4.913894367E+02  1.250000000E+02  0.00000E+00  9.000E+00
      21     1     1     2   511   502  3.722024085E+01  1.544060291E+01  1.364068203E+02  1.422342405E+02  1.907348633E-06  0.00000E+00  9.000E+00
#rwgt            1           1   2.8243760293019136E-002           3      201359           0
</event>
<event>
      5   9999 -3.79277E-02  1.02229E+02 -1.00000E+00  1.23399E-01
      21    -1     0     0   512   501  0.000000000E+00  0.000000000E+00  1.044651494E+03  1.044651494E+03  0.000000000E+00  0.00000E+00  9.000E+00
      21    -1     0     0   501   502  0.000000000E+00  0.000000000E+00 -1.825244251E+02  1.825244251E+02  0.000000000E+00  0.00000E+00  9.000E+00
      25     1     1     2     0     0  1.065578448E+01 -1.860489357E+02  3.124481722E+01  2.265590229E+02  1.250000000E+02  0.00000E+00  9.000E+00
      25     1     1     2     0     0 -2.787127505E+01  8.528024841E+01 -9.387432916E+00  1.541513952E+02  1.250000000E+02  0.00000E+00  9.000E+00
      21     1     1     2   512   502  1.721549057E+01  1.007686873E+02  8.402696849E+02  8.464655013E+02  0.000000000E+00  0.00000E+00  9.000E+00
#rwgt            1           1  -4.5487580679487827E-002           3      201565           0
</event>
<event>
      5   9999  3.79277E-02  2.72266E+01 -1.00000E+00  1.56025E-01
      21    -1     0     0   511   501  0.000000000E+00  0.000000000E+00  8.559164695E+01  8.559164695E+01  0.000000000E+00  0.00000E+00  9.000E+00
      21    -1     0     0   501   502  0.000000000E+00  0.000000000E+00 -5.309948220E+02  5.309948220E+02  0.000000000E+00  0.00000E+00  9.000E+00
      25     1     1     2     0     0 -1.016617806E+02  1.061086708E+02 -2.003902888E+02  2.781644037E+02  1.250000000E+02  0.00000E+00  9.000E+00
      25     1     1     2     0     0  9.106010692E+01 -8.103095678E+01 -2.553217718E+02  3.093091757E+02  1.250000000E+02  0.00000E+00  9.000E+00
      21     1     1     2   511   502  1.060167363E+01 -2.507771398E+01  1.030888546E+01  2.911288961E+01  1.685873940E-07  0.00000E+00  9.000E+00
#rwgt            1           1   4.0924301976154098E-002           3      201735           0
</event>
<event>
      5   9999  3.79277E-02  1.24031E+02 -1.00000E+00  1.19762E-01
      21    -1     0     0   502   501  0.000000000E+00  0.000000000E+00  7.789495883E+02  7.789495883E+02  0.000000000E+00  0.00000E+00  9.000E+00
      21    -1     0     0   512   502  0.000000000E+00  0.000000000E+00 -1.058245629E+02  1.058245629E+02  0.000000000E+00  0.00000E+00  9.000E+00
      25     1     1     2     0     0  5.140103606E+01  4.682813051E+01  4.346403780E+02  4.575720692E+02  1.250000000E+02  0.00000E+00  9.000E+00
      25     1     1     2     0     0 -1.489276988E+02 -1.234582794E+02  1.595762891E+02  2.801981411E+02  1.250000000E+02  0.00000E+00  9.000E+00
      21     1     1     2   512   501  9.752666274E+01  7.663014888E+01  7.890835831E+01  1.470039410E+02  1.907348633E-06  0.00000E+00  9.000E+00
#rwgt            1           1   4.8906357875096347E-002           3      202030           0
</event>
<event>
      5   9999  3.79277E-02  1.81295E+02 -1.00000E+00  1.13223E-01
       2    -1     0     0   502     0  0.000000000E+00  0.000000000E+00  2.539103869E+02  2.539103869E+02  0.000000000E+00  0.00000E+00  9.000E+00
      21    -1     0     0   501   502  0.000000000E+00  0.000000000E+00 -1.103857715E+03  1.103857715E+03  0.000000000E+00  0.00000E+00  9.000E+00
      25     1     1     2     0     0 -1.411097445E+02 -1.037199768E+02 -3.157168236E+02  3.820626994E+02  1.250000000E+02  0.00000E+00  9.000E+00
      25     1     1     2     0     0  3.222886932E+02  1.102118733E+02 -6.613131118E+02  7.543054359E+02  1.250000000E+02  0.00000E+00  9.000E+00
       2     1     1     2   501     0 -1.811789487E+02 -6.491896502E+00  1.270826072E+02  2.213999666E+02  4.046097457E-06  0.00000E+00  9.000E+00
#rwgt            2          18   1.4847425022049431E-004           3      202182           0
</event>
<event>
      5   9999  3.79277E-02  6.28127E+00 -1.00000E+00  2.22426E-01
      21    -1     0     0   511   501  0.000000000E+00  0.000000000E+00  2.336665031E+02  2.336665031E+02  0.000000000E+00  0.00000E+00  9.000E+00
      21    -1     0     0   501   502  0.000000000E+00  0.000000000E+00 -3.963334211E+02  3.963334211E+02  0.000000000E+00  0.00000E+00  9.000E+00
      25     1     1     2     0     0  8.381739371E+01  1.763179346E+02 -3.152820524E+01  2.339495614E+02  1.250000000E+02  0.00000E+00  9.000E+00
      25     1     1     2     0     0 -8.027859780E+01 -1.815074701E+02 -2.112699844E+02  3.156732825E+02  1.250000000E+02  0.00000E+00  9.000E+00
      21     1     1     2   511   502 -3.538795911E+00  5.189535444E+00  8.013127156E+01  8.037708029E+01  0.000000000E+00  0.00000E+00  9.000E+00
#rwgt            1           1   1.8118685596457695E-002           3      202216           0
</event>
<event>
      5   9999  3.79277E-02  1.95975E+01 -1.00000E+00  1.67101E-01
       1    -1     0     0   502     0  0.000000000E+00  0.000000000E+00  8.140856706E+02  8.140856706E+02  0.000000000E+00  0.00000E+00  9.000E+00
      21    -1     0     0   501   502  0.000000000E+00  0.000000000E+00 -5.761147790E+01  5.761147790E+01  0.000000000E+00  0.00000E+00  9.000E+00
      25     1     1     2     0     0  8.467000904E+01  5.041927791E+01  1.045645178E+02  1.904464555E+02  1.250000000E+02  0.00000E+00  9.000E+00
      25     1     1     2     0     0 -7.988553967E+01 -3.141478936E+01  3.874548886E+02  4.160707622E+02  1.250000000E+02  0.00000E+00  9.000E+00
       1     1     1     2   501     0 -4.784469376E+00 -1.900448856E+01  2.644547862E+02  2.651799308E+02  3.814697266E-06  0.00000E+00  9.000E+00
#rwgt            1           1   3.7269509182931648E-002           3      202693           0
</event>
<event>
      5   9999  3.79277E-02  6.24898E+01 -1.00000E+00  1.33767E-01
      21    -1     0     0   502   501  0.000000000E+00  0.000000000E+00  6.818110191E+01  6.818110191E+01  0.000000000E+00  0.00000E+00  9.000E+00
       1    -1     0     0   501     0  0.000000000E+00  0.000000000E+00 -1.441114620E+03  1.441114620E+03  0.000000000E+00  0.00000E+00  9.000E+00
      25     1     1     2     0     0  1.974370635E+01 -3.741050830E+01 -2.237580576E+02  2.597730325E+02  1.250000000E+02  0.00000E+00  9.000E+00
      25     1     1     2     0     0  1.887349053E+01 -1.171880798E+01 -3.243673353E+01  1.310369444E+02  1.250000000E+02  0.00000E+00  9.000E+00
       1     1     1     2   502     0 -3.861719688E+01  4.912931628E+01 -1.116738727E+03  1.118485745E+03  0.000000000E+00  0.00000E+00  9.000E+00
#rwgt            1           1   7.9067319050978677E-002           3      202823           0
</event>
<event>
      5   9999  3.79277E-02  5.49620E+01 -1.00000E+00  1.36771E-01
      21    -1     0     0   502   511  0.000000000E+00  0.000000000E+00  5.988512071E+02  5.988512071E+02  0.000000000E+00  0.00000E+00  9.000E+00
      21    -1     0     0   501   502  0.000000000E+00  0.000000000E+00 -2.244547005E+02  2.244547005E+02  0.000000000E+00  0.00000E+00  9.000E+00
      25     1     1     2     0     0 -2.144846135E+02  1.841496981E+01 -6.831600592E+01  2.581372449E+02  1.250000000E+02  0.00000E+00  9.000E+00
      25     1     1     2     0     0  2.663276092E+02 -1.633317518E-01  3.483243112E+02  4.559443473E+02  1.250000000E+02  0.00000E+00  9.000E+00
      21     1     1     2   501   511 -5.184299576E+01 -1.825163806E+01  9.438820134E+01  1.092243153E+02  1.907348633E-06  0.00000E+00  9.000E+00
#rwgt            1           1   3.8208726025361572E-002           3      202886           0
</event>
<event>
      5   9999  3.79277E-02  3.08561E+02 -1.00000E+00  1.05196E-01
      21    -1     0     0   502   501  0.000000000E+00  0.000000000E+00  3.360798437E+02  3.360798437E+02  0.000000000E+00  0.00000E+00  9.000E+00
      21    -1     0     0   512   502  0.000000000E+00  0.000000000E+00 -4.594100582E+02  4.594100582E+02  0.000000000E+00  0.00000E+00  9.000E+00
      25     1     1     2     0     0  1.161479420E+02 -2.388304559E+02 -1.255382439E+02  3.192415728E+02  1.250000000E+02  0.00000E+00  9.000E+00
      25     1     1     2     0     0  4.898782533E+01 -2.182232297E+01  8.030822627E+01  1.579570575E+02  1.250000000E+02  0.00000E+00  9.000E+00
      21     1     1     2   512   501 -1.651357674E+02  2.606527789E+02 -7.810019681E+01  3.182912715E+02  3.438521648E-06  0.00000E+00  9.000E+00
#rwgt            2          11   4.5787914164335781E-004           3      202941           0
</event>
<event>
      5   9999  3.79277E-02  8.38330E+01 -1.00000E+00  1.27373E-01
      21    -1     0     0   511   501  0.000000000E+00  0.000000000E+00  1.652256319E+02  1.652256319E+02  0.000000000E+00  0.00000E+00  9.000E+00
      21    -1     0     0   501   502  0.000000000E+00  0.000000000E+00 -4.804324726E+02  4.804324726E+02  0.000000000E+00  0.00000E+00  9.000E+00
      25     1     1     2     0     0 -1.519234232E+02  1.038748129E+02 -2.142767039E+02  3.088854304E+02  1.250000000E+02  0.00000E+00  9.000E+00
      25     1     1     2     0     0  1.381907832E+02 -2.117424565E+01 -1.495464539E+02  2.398628424E+02  1.250000000E+02  0.00000E+00  9.000E+00
      21     1     1     2   511   502  1.373263999E+01 -8.270056721E+01  4.861631713E+01  9.690983185E+01  2.023048729E-06  0.00000E+00  9.000E+00
#rwgt            1           1   4.6022356179321287E-002           3      202961           0
</event>
<event>
      5   9999  3.79277E-02  1.26948E+01 -1.00000E+00  1.84494E-01
      21    -1     0     0   512   501  0.000000000E+00  0.000000000E+00  5.030070585E+01  5.030070585E+01  0.000000000E+00  0.00000E+00  9.000E+00
      21    -1     0     0   501   502  0.000000000E+00  0.000000000E+00 -8.038034552E+02  8.038034552E+02  0.000000000E+00  0.00000E+00  9.000E+00
      25     1     1     2     0     0  4.044888261E+01 -1.273318639E+02 -2.707288934E+02  3.267547236E+02  1.250000000E+02  0.00000E+00  9.000E+00
      25     1     1     2     0     0 -4.032359063E+01  1.400260218E+02 -4.753204725E+02  5.126283550E+02  1.250000000E+02  0.00000E+00  9.000E+00
      21     1     1     2   512   502 -1.252919794E-01 -1.269415796E+01 -7.453383435E+00  1.472108247E+01  3.475518164E-07  0.00000E+00  9.000E+00
#rwgt            1           1   3.9952499474726490E-002           3      203026           0
</event>
<event>
      5   9999  3.79277E-02  1.24717E+02 -1.00000E+00  1.19662E-01
      21    -1     0     0   502   511  0.000000000E+00  0.000000000E+00  5.444297739E+01  5.444297739E+01  0.000000000E+00  0.00000E+00  9.000E+00
      21    -1     0     0   501   502  0.000000000E+00  0.000000000E+00 -1.960499291E+03  1.960499291E+03  0.000000000E+00  0.00000E+00  9.000E+00
      25     1     1     2     0     0  4.974452412E+01  2.953361331E+01 -1.334749815E+03  1.341837852E+03  1.250000000E+02  0.00000E+00  9.000E+00
      25     1     1     2     0     0 -1.288852390E+02 -1.259237354E+02 -2.758288836E+02  3.523843995E+02  1.250000000E+02  0.00000E+00  9.000E+00
      21     1     1     2   501   511  7.914071488E+01  9.639012210E+01 -2.954776153E+02  3.207200173E+02  3.814697266E-06  0.00000E+00  9.000E+00
#rwgt            1           1   3.4536882160649596E-002           3      203261           0
</event>
<event>
      5   9999  3.79277E-02  6.41286E+01 -1.00000E+00  1.33177E-01
       2    -1     0     0   502     0  0.000000000E+00  0.000000000E+00  4.517824619E+02  4.517824619E+02  0.000000000E+00  0.00000E+00  9.000E+00
      21    -1     0     0   501   502  0.000000000E+00  0.000000000E+00 -1.711678405E+03  1.711678405E+03  0.000000000E+00  0.00000E+00  9.000E+00
      25     1     1     2     0     0  5.428318569E+01 -2.305022589E+02 -7.686344747E+02  8.139422039E+02  1.250000000E+02  0.00000E+00  9.000E+00
      25     1     1     2     0     0 -8.613070512E+01  1.748406179E+02 -9.033079841E+02  9.325116911E+02  1.250000000E+02  0.00000E+00  9.000E+00
       2     1     1     2   501     0  3.184751943E+01  5.566164102E+01  4.120465161E+02  4.170069714E+02  0.000000000E+00  0.00000E+00  9.000E+00
#rwgt            1           1   1.8864032120710302E-002           3      203321           0
</event>
<event>
      5   9999  3.79277E-02  2.74554E+01 -1.00000E+00  1.55762E-01
      21    -1     0     0   502   501  0.000000000E+00  0.000000000E+00  4.904072012E+02  4.904072012E+02  0.000000000E+00  0.00000E+00  9.000E+00
      21    -1     0     0   511   502  0.000000000E+00  0.000000000E+00 -1.480561214E+02  1.480561214E+02  0.000000000E+00  0.00000E+00  9.000E+00
      25     1     1     2     0     0 -1.489369125E+02  1.208523157E+02  2.261204617E+02  3.217809026E+02  1.250000000E+02  0.00000E+00  9.000E+00
      25     1     1     2     0     0  1.508287120E+02 -1.482424477E+02  1.378866403E+02  2.817141268E+02  1.250000000E+02  0.00000E+00  9.000E+00
      21     1     1     2   511   501 -1.891799534E+00  2.739013192E+01 -2.165602211E+01  3.496829315E+01  2.384185791E-07  0.00000E+00  9.000E+00
#rwgt            1           1   3.9520700393120202E-002           3      203412           0
</event>
<event>
      5   9999  3.79277E-02  5.08696E+01 -1.00000E+00  1.38650E-01
      21    -1     0     0   502   501  0.000000000E+00  0.000000000E+00  1.944561967E+02  1.944561967E+02  0.000000000E+00  0.00000E+00  9.000E+00
      21    -1     0     0   501   512  0.000000000E+00  0.000000000E+00 -1.014539133E+03  1.014539133E+03  0.000000000E+00  0.00000E+00  9.000E+00
      25     1     1     2     0     0 -1.297164742E+02 -3.691318334E+00 -5.764529351E+01  1.891770847E+02  1.250000000E+02  0.00000E+00  9.000E+00
      25     1     1     2     0     0  1.478350830E+02  5.122482978E+01  4.950107458E+01  2.062875453E+02  1.250000000E+02  0.00000E+00  9.000E+00
      21     1     1     2   502   512 -1.811860878E+01 -4.753351145E+01 -8.119387174E+02  8.135306998E+02  1.078959322E-05  0.00000E+00  9.000E+00
#rwgt            1           1   3.2482437670440747E-002           3      203630           0
</event>
<event>
      5   9999  3.79277E-02  1.59890E+01 -1.00000E+00  1.74810E-01
      21    -1     0     0   502   501  0.000000000E+00  0.000000000E+00  3.500191068E+02  3.500191068E+02  0.000000000E+00  0.00000E+00  9.000E+00
      21    -1     0     0   501   511  0.000000000E+00  0.000000000E+00 -2.420925151E+02  2.420925151E+02  0.000000000E+00  0.00000E+00  9.000E+00
      25     1     1     2     0     0 -1.826090431E+02 -9.763673202E+01  1.709051324E+00  2.418820269E+02  1.250000000E+02  0.00000E+00  9.000E+00
      25     1     1     2     0     0  1.668249716E+02  1.001882956E+02  1.683530067E+02  2.860699225E+02  1.250000000E+02  0.00000E+00  9.000E+00
      21     1     1     2   502   511  1.578407158E+01 -2.551563584E+00 -6.213546632E+01  6.415967244E+01  6.743495762E-07  0.00000E+00  9.000E+00
#rwgt            1           1   3.2129415635981054E-002           3      203758           0
</event>
<event>
      5   9999  3.79277E-02  1.72478E+01 -1.00000E+00  1.71855E-01
      21    -1     0     0   512   501  0.000000000E+00  0.000000000E+00  8.585813353E+01  8.585813353E+01  0.000000000E+00  0.00000E+00  9.000E+00
      21    -1     0     0   501   502  0.000000000E+00  0.000000000E+00 -5.954877858E+02  5.954877858E+02  0.000000000E+00  0.00000E+00  9.000E+00
      25     1     1     2     0     0 -1.198251863E+02 -1.077012094E+02 -1.160953512E+02  2.346502852E+02  1.250000000E+02  0.00000E+00  9.000E+00
      25     1     1     2     0     0  1.082516419E+02  9.491299474E+01 -3.785257330E+02  4.238320718E+02  1.250000000E+02  0.00000E+00  9.000E+00
      21     1     1     2   512   502  1.157354444E+01  1.278821470E+01 -1.500856801E+01  2.286356228E+01  5.591411304E-07  0.00000E+00  9.000E+00
#rwgt            1           1   3.7545523770182776E-002           3      204012           0
</event>
<event>
      5   9999  3.79277E-02  1.61914E+01 -1.00000E+00  1.74313E-01
      21    -1     0     0   502   501  0.000000000E+00  0.000000000E+00  2.720556855E+02  2.720556855E+02  0.000000000E+00  0.00000E+00  9.000E+00
       2    -1     0     0   501     0  0.000000000E+00  0.000000000E+00 -4.021798737E+02  4.021798737E+02  0.000000000E+00  0.00000E+00  9.000E+00
      25     1     1     2     0     0 -1.549467171E+02 -1.866623235E+02  1.732773249E+01  2.734530279E+02  1.250000000E+02  0.00000E+00  9.000E+00
      25     1     1     2     0     0  1.634311522E+02  1.728718850E+02 -1.694002887E+01  2.692701148E+02  1.250000000E+02  0.00000E+00  9.000E+00
       2     1     1     2   502     0 -8.484435127E+00  1.379043849E+01 -1.305118918E+02  1.315124166E+02  1.907348633E-06  0.00000E+00  9.000E+00
#rwgt            1           1   2.8733366335745986E-002           3      204220           0
</event>
<event>
      5   9999  3.79277E-02  3.66269E+01 -1.00000E+00  1.47254E-01
      21    -1     0     0   502   511  0.000000000E+00  0.000000000E+00  9.200267149E+02  9.200267149E+02  0.000000000E+00  0.00000E+00  9.000E+00
      21    -1     0     0   501   502  0.000000000E+00  0.000000000E+00 -1.168142115E+02  1.168142115E+02  0.000000000E+00  0.00000E+00  9.000E+00
      25     1     1     2     0     0  7.923519959E+01  9.481846201E+01  2.602334888E+02  3.140306136E+02  1.250000000E+02  0.00000E+00  9.000E+00
      25     1     1     2     0     0 -1.025835250E+02 -6.659809923E+01 -3.684914778E+00  1.749207392E+02  1.250000000E+02  0.00000E+00  9.000E+00
      21     1     1     2   501   511  2.334832537E+01 -2.822036278E+01  5.466639294E+02  5.478895736E+02  1.078959322E-05  0.00000E+00  9.000E+00
#rwgt            1           1   3.3460593385153933E-002           3      204492           0
</event>
<event>
      5   9999  3.79277E-02  2.27618E+02 -1.00000E+00  1.09641E-01
      21    -1     0     0   512   501  0.000000000E+00  0.000000000E+00  1.484179458E+03  1.484179458E+03  0.000000000E+00  0.00000E+00  9.000E+00
      21    -1     0     0   501   502  0.000000000E+00  0.000000000E+00 -1.275721918E+02  1.275721918E+02  0.000000000E+00  0.00000E+00  9.000E+00
      25     1     1     2     0     0  1.440766886E+02  1.510888855E+02  3.116460638E+02  3.953912146E+02  1.250000000E+02  0.00000E+00  9.000E+00
      25     1     1     2     0     0  2.315900081E+01 -3.054978324E+02  3.352608733E+02  4.710521395E+02  1.250000000E+02  0.00000E+00  9.000E+00
      21     1     1     2   512   502 -1.672356894E+02  1.544089468E+02  7.097003293E+02  7.453082960E+02  1.078959322E-05  0.00000E+00  9.000E+00
#rwgt            1           1   3.1845407230557433E-002           3      204591           0
</event>
<event>
      5   9999  3.79277E-02  6.23503E+01 -1.00000E+00  1.33818E-01
      21    -1     0     0   511   501  0.000000000E+00  0.000000000E+00  5.807684952E+01  5.807684952E+01  0.000000000E+00  0.00000E+00  9.000E+00
      21    -1     0     0   501   502  0.000000000E+00  0.000000000E+00 -1.887237763E+03  1.887237763E+03  0.000000000E+00  0.00000E+00  9.000E+00
      25     1     1     2     0     0  1.403879468E+02  1.039039532E+02 -7.027491361E+02  7.348375027E+02  1.250000000E+02  0.00000E+00  9.000E+00
      25     1     1     2     0     0 -1.996166731E+02 -8.442278347E+01 -1.120219602E+03  1.147820099E+03  1.250000000E+02  0.00000E+00  9.000E+00
      21     1     1     2   511   502  5.922872628E+01 -1.948116972E+01 -6.192175353E+00  6.265701098E+01  2.125806153E-06  0.00000E+00  9.000E+00
#rwgt            1           1   3.0006657595867021E-002           3      204646           0
</event>
<event>
      5   9999  3.79277E-02  2.76904E+01 -1.00000E+00  1.55496E-01
      21    -1     0     0   502   501  0.000000000E+00  0.000000000E+00  3.905808942E+02  3.905808942E+02  0.000000000E+00  0.00000E+00  9.000E+00
      21    -1     0     0   512   502  0.000000000E+00  0.000000000E+00 -1.779303884E+02  1.779303884E+02  0.000000000E+00  0.00000E+00  9.000E+00
      25     1     1     2     0     0  8.352247445E+01  1.950289544E+02  1.234885569E+02  2.754754444E+02  1.250000000E+02  0.00000E+00  9.000E+00
      25     1     1     2     0     0 -5.583593983E+01 -1.945690912E+02  1.061882171E+02  2.605296929E+02  1.250000000E+02  0.00000E+00  9.000E+00
      21     1     1     2   512   501 -2.768653462E+01 -4.598632468E-01 -1.702626826E+01  3.250614533E+01  5.331201500E-07  0.00000E+00  9.000E+00
#rwgt            1           1   4.4159946617601309E-002           3      204767           0
</event>
<event>
      5   9999 -4.01541E-02  5.34097E+01 -1.00000E+00  1.37460E-01
      21    -1     0     0   511   501  0.000000000E+00  0.000000000E+00  4.430535630E+02  4.430535630E+02  0.000000000E+00  0.00000E+00  9.000E+00
      21    -1     0     0   501   502  0.000000000E+00  0.000000000E+00 -2.823466865E+02  2.823466865E+02  0.000000000E+00  0.00000E+00  9.000E+00
      25     1     1     2     0     0 -2.177452122E+02 -1.788472578E+02 -5.329547323E+01  3.128333846E+02  1.250000000E+02  0.00000E+00  9.000E+00
      25     1     1     2     0     0  2.385742584E+02  1.296665369E+02  1.883579313E+02  3.533196822E+02  1.250000000E+02  0.00000E+00  9.000E+00
      21     1     1     2   511   502 -2.082904620E+01  4.918072088E+01  2.564441831E+01  5.924718273E+01  9.536743164E-07  0.00000E+00  9.000E+00
#rwgt            1           1 -0.53005235303194287                3      205037           0
</event>
<event>
      5   9999  3.79277E-02  2.57729E+01 -1.00000E+00  1.57767E-01
      21    -1     0     0   502   501  0.000000000E+00  0.000000000E+00  1.394193789E+02  1.394193789E+02  0.000000000E+00  0.00000E+00  9.000E+00
      21    -1     0     0   512   502  0.000000000E+00  0.000000000E+00 -5.157303804E+02  5.157303804E+02  0.000000000E+00  0.00000E+00  9.000E+00
      25     1     1     2     0     0 -7.971369674E+01  1.574424830E+02 -5.865856023E+01  2.240719429E+02  1.250000000E+02  0.00000E+00  9.000E+00
      25     1     1     2     0     0  5.605432190E+01 -1.676637694E+02 -1.547055562E+02  2.661053094E+02  1.250000000E+02  0.00000E+00  9.000E+00
      21     1     1     2   512   501  2.365937484E+01  1.022128633E+01 -1.629468851E+02  1.649725070E+02  3.303624740E-06  0.00000E+00  9.000E+00
#rwgt            1           1  0.14814445776864357                3      205220           0
</event>
<event>
      5   9999 -3.79277E-02  2.86981E+01 -1.00000E+00  1.54390E-01
      21    -1     0     0   502   511  0.000000000E+00  0.000000000E+00  1.380862021E+03  1.380862021E+03  0.000000000E+00  0.00000E+00  9.000E+00
      21    -1     0     0   501   502  0.000000000E+00  0.000000000E+00 -4.248212252E+01  4.248212252E+01  0.000000000E+00  0.00000E+00  9.000E+00
      25     1     1     2     0     0 -9.639354552E+01 -1.354524795E+02  3.878150841E+02  4.400734362E+02  1.250000000E+02  0.00000E+00  9.000E+00
      25     1     1     2     0     0  7.488774675E+01  1.544546146E+02  7.121020706E+02  7.430873176E+02  1.250000000E+02  0.00000E+00  9.000E+00
      21     1     1     2   501   511  2.150579877E+01 -1.900213515E+01  2.384627441E+02  2.401833900E+02  0.000000000E+00  0.00000E+00  9.000E+00
#rwgt            1           1  -4.8470094959484865E-002           3      205320           0
</event>
<event>
      5   9999  3.79277E-02  1.05336E+01 -1.00000E+00  1.93183E-01
      21    -1     0     0   502   501  0.000000000E+00  0.000000000E+00  1.389022303E+03  1.389022303E+03  0.000000000E+00  0.00000E+00  9.000E+00
      21    -1     0     0   501   512  0.000000000E+00  0.000000000E+00 -1.489479726E+02  1.489479726E+02  0.000000000E+00  0.00000E+00  9.000E+00
      25     1     1     2     0     0  1.034699118E+02  1.221680862E+02  8.379614605E+02  8.622270427E+02  1.250000000E+02  0.00000E+00  9.000E+00
      25     1     1     2     0     0 -1.025157940E+02 -1.326583801E+02  5.183941142E+02  5.589858598E+02  1.250000000E+02  0.00000E+00  9.000E+00
      21     1     1     2   502   512 -9.541178665E-01  1.049029390E+01 -1.162812438E+02  1.167573735E+02  5.394796609E-06  0.00000E+00  9.000E+00
#rwgt            1           1   4.7029915514965277E-002           3      205479           0
</event>
<event>
      5   9999  3.79277E-02  2.36397E+02 -1.00000E+00  1.09067E-01
      21    -1     0     0   511   501  0.000000000E+00  0.000000000E+00  1.827987389E+03  1.827987389E+03  0.000000000E+00  0.00000E+00  9.000E+00
      21    -1     0     0   501   502  0.000000000E+00  0.000000000E+00 -6.127427355E+01  6.127427355E+01  0.000000000E+00  0.00000E+00  9.000E+00
      25     1     1     2     0     0  1.237317404E+02  1.200241918E+01  2.194091089E+02  2.814586270E+02  1.250000000E+02  0.00000E+00  9.000E+00
      25     1     1     2     0     0  6.113182612E+01  1.353370492E+02  5.634816811E+02  5.959780382E+02  1.250000000E+02  0.00000E+00  9.000E+00
      21     1     1     2   511   502 -1.848635666E+02 -1.473394684E+02  9.838223257E+02  1.011824998E+03  1.078959322E-05  0.00000E+00  9.000E+00
#rwgt            1           1   4.5524506505857897E-002           3      205825           0
</event>
<event>
      5   9999  3.79277E-02  8.01637E+01 -1.00000E+00  1.28307E-01
       2    -1     0     0   502     0  0.000000000E+00  0.000000000E+00  4.482895782E+03  4.482895782E+03  0.000000000E+00  0.00000E+00  9.000E+00
      21    -1     0     0   501   502  0.000000000E+00  0.000000000E+00 -5.228940340E+01  5.228940340E+01  0.000000000E+00  0.00000E+00  9.000E+00
      25     1     1     2     0     0  1.307351321E+02  8.596017354E+01  2.828269742E+02  3.465500303E+02  1.250000000E+02  0.00000E+00  9.000E+00
      25     1     1     2     0     0 -1.157422537E+02 -7.210980073E+00  3.433077236E+02  3.833190063E+02  1.250000000E+02  0.00000E+00  9.000E+00
       2     1     1     2   501     0 -1.499287838E+01 -7.874919346E+01  3.804471681E+03  3.805316149E+03  4.315837288E-05  0.00000E+00  9.000E+00
#rwgt            1           1   4.6138640201199170E-002           3      205870           0
</event>
<event>
      5   9999  3.79277E-02  1.02429E+02 -1.00000E+00  1.23361E-01
      21    -1     0     0   502   501  0.000000000E+00  0.000000000E+00  3.119763265E+02  3.119763265E+02  0.000000000E+00  0.00000E+00  9.000E+00
       2    -1     0     0   501     0  0.000000000E+00  0.000000000E+00 -2.020365481E+03  2.020365481E+03  0.000000000E+00  0.00000E+00  9.000E+00
      25     1     1     2     0     0 -1.376688588E+01  6.061877598E+01 -2.373391248E+01  1.416067151E+02  1.250000000E+02  0.00000E+00  9.000E+00
      25     1     1     2     0     0 -6.649168171E+01 -1.242601194E+02  2.164087432E+02  2.869136894E+02  1.250000000E+02  0.00000E+00  9.000E+00
       2     1     1     2   502     0  8.025856760E+01  6.364134346E+01 -1.901063985E+03  1.903821403E+03  0.000000000E+00  0.00000E+00  9.000E+00
#rwgt            1           1   3.7045501468438179E-002           3      205935           0
</event>
<event>
      5   9999  3.79277E-02  9.73238E+01 -1.00000E+00  1.24360E-01
      21    -1     0     0   502   501  0.000000000E+00  0.000000000E+00  1.398367287E+02  1.398367287E+02  0.000000000E+00  0.00000E+00  9.000E+00
      21    -1     0     0   511   502  0.000000000E+00  0.000000000E+00 -3.470540187E+02  3.470540187E+02  0.000000000E+00  0.00000E+00  9.000E+00
      25     1     1     2     0     0  2.962623394E+01 -1.612651345E+01 -1.812686460E+02  2.227579409E+02  1.250000000E+02  0.00000E+00  9.000E+00
      25     1     1     2     0     0  5.622399274E+01 -2.971734208E+01  4.086806094E+01  1.460803073E+02  1.250000000E+02  0.00000E+00  9.000E+00
      21     1     1     2   511   501 -8.585022667E+01  4.584385552E+01 -6.681670489E+01  1.180524992E+02  2.132480600E-06  0.00000E+00  9.000E+00
#rwgt            1           1   5.0406943298101220E-002           3      206056           0
</event>
<event>
      5   9999  3.79277E-02  4.22173E+00 -1.00000E+00  2.58069E-01
      21    -1     0     0   502   512  0.000000000E+00  0.000000000E+00  4.410760646E+02  4.410760646E+02  0.000000000E+00  0.00000E+00  9.000E+00
      21    -1     0     0   501   502  0.000000000E+00  0.000000000E+00 -9.004620214E+01  9.004620214E+01  0.000000000E+00  0.00000E+00  9.000E+00
      25     1     1     2     0     0 -2.539328998E+01 -1.220487103E+01 -2.569547163E+01  1.306867832E+02  1.250000000E+02  0.00000E+00  9.000E+00
      25     1     1     2     0     0  2.711345422E+01  8.349482819E+00  3.381300274E+02  3.616099677E+02  1.250000000E+02  0.00000E+00  9.000E+00
      21     1     1     2   501   512 -1.720164240E+00  3.855388211E+00  3.859530663E+01  3.882551580E+01  6.743495762E-07  0.00000E+00  9.000E+00
#rwgt            1           1   4.1451058863450838E-002           3      206102           0
</event>
<event>
      5   9999  3.79277E-02  2.17323E+01 -1.00000E+00  1.63447E-01
      21    -1     0     0   502   501  0.000000000E+00  0.000000000E+00  2.263768528E+02  2.263768528E+02  0.000000000E+00  0.00000E+00  9.000E+00
      21    -1     0     0   501   511  0.000000000E+00  0.000000000E+00 -2.141961782E+02  2.141961782E+02  0.000000000E+00  0.00000E+00  9.000E+00
      25     1     1     2     0     0  5.386511994E+01 -7.657334838E+01 -1.111995451E+02  1.917166338E+02  1.250000000E+02  0.00000E+00  9.000E+00
      25     1     1     2     0     0 -3.275332129E+01  8.172932118E+01  1.502044567E+02  2.143334803E+02  1.250000000E+02  0.00000E+00  9.000E+00
      21     1     1     2   502   511 -2.111179865E+01 -5.155972800E+00 -2.682423694E+01  3.452291681E+01  3.371747881E-07  0.00000E+00  9.000E+00
#rwgt            1           1   3.7184144251756576E-002           3      206563           0
</event>
<event>
      5   9999  3.79277E-02  7.56489E+01 -1.00000E+00  1.29536E-01
      21    -1     0     0   512   501  0.000000000E+00  0.000000000E+00  7.134722751E+02  7.134722751E+02  0.000000000E+00  0.00000E+00  9.000E+00
      21    -1     0     0   501   502  0.000000000E+00  0.000000000E+00 -5.501586127E+02  5.501586127E+02  0.000000000E+00  0.00000E+00  9.000E+00
      25     1     1     2     0     0  1.148732091E+02 -6.359716238E+00 -4.331803971E+02  4.653026505E+02  1.250000000E+02  0.00000E+00  9.000E+00
      25     1     1     2     0     0 -8.061488559E+01 -6.108752414E+01 -3.313172188E+01  1.641741648E+02  1.250000000E+02  0.00000E+00  9.000E+00
      21     1     1     2   512   502 -3.425832355E+01  6.744724038E+01  6.296257814E+02  6.341540724E+02  0.000000000E+00  0.00000E+00  9.000E+00
#rwgt            1           1   4.6809751472349947E-002           3      206816           0
</event>
<event>
      5   9999  3.79277E-02  2.54494E+01 -1.00000E+00  1.58174E-01
      21    -1     0     0   502   501  0.000000000E+00  0.000000000E+00  2.206624143E+02  2.206624143E+02  0.000000000E+00  0.00000E+00  9.000E+00
      21    -1     0     0   511   502  0.000000000E+00  0.000000000E+00 -1.684925512E+02  1.684925512E+02  0.000000000E+00  0.00000E+00  9.000E+00
      25     1     1     2     0     0 -3.495042067E+01  5.271949560E+01  1.315734428E+02  1.921911756E+02  1.250000000E+02  0.00000E+00  9.000E+00
      25     1     1     2     0     0  4.508111361E+01 -7.606555952E+01 -5.806513055E+01  1.637523604E+02  1.250000000E+02  0.00000E+00  9.000E+00
      21     1     1     2   511   501 -1.013069295E+01  2.334606391E+01 -2.133844915E+01  3.321142954E+01  5.840038640E-07  0.00000E+00  9.000E+00
#rwgt            1           1   5.1817816710172562E-002           3      206893           0
</event>
<event>
      5   9999  3.79277E-02  3.33643E+01 -1.00000E+00  1.49901E-01
      21    -1     0     0   512   501  0.000000000E+00  0.000000000E+00  5.205079107E+02  5.205079107E+02  0.000000000E+00  0.00000E+00  9.000E+00
      21    -1     0     0   501   502  0.000000000E+00  0.000000000E+00 -1.177670709E+02  1.177670709E+02  0.000000000E+00  0.00000E+00  9.000E+00
      25     1     1     2     0     0 -2.020171832E+01  1.246430199E+02  2.292372456E+01  1.791493483E+02  1.250000000E+02  0.00000E+00  9.000E+00
      25     1     1     2     0     0  5.352363472E+01 -1.229623027E+02  1.813398791E+02  2.578636444E+02  1.250000000E+02  0.00000E+00  9.000E+00
      21     1     1     2   512   502 -3.332191640E+01 -1.680717229E+00  1.984772361E+02  2.012619889E+02  2.697398305E-06  0.00000E+00  9.000E+00
#rwgt            1           1   4.2920493269617430E-002           3      207041           0
</event>
<event>
      5   9999  3.79277E-02  8.48507E+00 -1.00000E+00  2.04383E-01
      21    -1     0     0   502   501  0.000000000E+00  0.000000000E+00  3.429157879E+02  3.429157879E+02  0.000000000E+00  0.00000E+00  9.000E+00
      21    -1     0     0   511   502  0.000000000E+00  0.000000000E+00 -1.368138898E+02  1.368138898E+02  0.000000000E+00  0.00000E+00  9.000E+00
      25     1     1     2     0     0 -3.380869292E+01  6.782444147E+01  2.728771031E+02  3.095643648E+02  1.250000000E+02  0.00000E+00  9.000E+00
      25     1     1     2     0     0  2.566565595E+01 -7.020926385E+01 -5.507513819E+01  1.557123549E+02  1.250000000E+02  0.00000E+00  9.000E+00
      21     1     1     2   511   501  8.143036971E+00  2.384822378E+00 -1.170006681E+01  1.445295790E+01  2.384185791E-07  0.00000E+00  9.000E+00
#rwgt            1           1   5.2102134033583263E-002           3      207194           0
</event>
<event>
      5   9999 -3.79277E-02  3.76611E+01 -1.00000E+00  1.46482E-01
      21    -1     0     0   512   501  0.000000000E+00  0.000000000E+00  3.203143519E+02  3.203143519E+02  0.000000000E+00  0.00000E+00  9.000E+00
      21    -1     0     0   501   502  0.000000000E+00  0.000000000E+00 -2.241643314E+02  2.241643314E+02  0.000000000E+00  0.00000E+00  9.000E+00
      25     1     1     2     0     0 -2.078084550E+02 -7.462414701E+01  6.727927562E+01  2.624968919E+02  1.250000000E+02  0.00000E+00  9.000E+00
      25     1     1     2     0     0  1.765982133E+02  9.570216384E+01  3.564989178E+00  2.366084154E+02  1.250000000E+02  0.00000E+00  9.000E+00
      21     1     1     2   512   502  3.121024173E+01 -2.107801683E+01  2.530575565E+01  4.537337602E+01  7.539457465E-07  0.00000E+00  9.000E+00
#rwgt            1           1  -8.1865119252132162E-002           3      207468           0
</event>
<event>
      5   9999  3.79277E-02  1.02728E+01 -1.00000E+00  1.94416E-01
      21    -1     0     0   502   501  0.000000000E+00  0.000000000E+00  1.369657196E+03  1.369657196E+03  0.000000000E+00  0.00000E+00  9.000E+00
      21    -1     0     0   511   502  0.000000000E+00  0.000000000E+00 -5.855579633E+01  5.855579633E+01  0.000000000E+00  0.00000E+00  9.000E+00
      25     1     1     2     0     0  7.605893132E+01  2.123596428E+01  5.553206553E+01  1.579390310E+02  1.250000000E+02  0.00000E+00  9.000E+00
      25     1     1     2     0     0 -8.578841706E+01 -2.453252574E+01  1.248245205E+03  1.257657580E+03  1.250000000E+02  0.00000E+00  9.000E+00
      21     1     1     2   511   501  9.729485740E+00  3.296561462E+00  7.324129718E+00  1.261638167E+01  2.795705652E-07  0.00000E+00  9.000E+00
#rwgt            1           1   4.8194287911699107E-002           3      207607           0
</event>
<event>
      5   9999  3.79277E-02  1.53529E+02 -1.00000E+00  1.15995E-01
      21    -1     0     0   512   501  0.000000000E+00  0.000000000E+00  8.284839290E+01  8.284839290E+01  0.000000000E+00  0.00000E+00  9.000E+00
      21    -1     0     0   501   502  0.000000000E+00  0.000000000E+00 -1.006817026E+03  1.006817026E+03  0.000000000E+00  0.00000E+00  9.000E+00
      25     1     1     2     0     0 -1.236830964E+02  1.632790290E+02 -3.590790026E+02  4.318799367E+02  1.250000000E+02  0.00000E+00  9.000E+00
      25     1     1     2     0     0  1.257217737E+02 -9.763870292E+00 -3.635136667E+02  4.045596167E+02  1.250000000E+02  0.00000E+00  9.000E+00
      21     1     1     2   512   502 -2.038677345E+00 -1.535151587E+02 -2.013759634E+02  2.532258652E+02  4.672030912E-06  0.00000E+00  9.000E+00
#rwgt            1           1   9.2612782138121644E-002           3      207902           0
</event>
<event>
      5   9999  3.79277E-02  1.45202E+01 -1.00000E+00  1.78724E-01
      21    -1     0     0   511   501  0.000000000E+00  0.000000000E+00  1.839581223E+02  1.839581223E+02  0.000000000E+00  0.00000E+00  9.000E+00
      21    -1     0     0   501   502  0.000000000E+00  0.000000000E+00 -2.758279991E+02  2.758279991E+02  0.000000000E+00  0.00000E+00  9.000E+00
      25     1     1     2     0     0 -1.384382149E+01 -1.094962487E+02  2.069975989E+01  1.680314254E+02  1.250000000E+02  0.00000E+00  9.000E+00
      25     1     1     2     0     0 -8.808169726E-02  1.135873738E+02 -1.657404880E+02  2.366368707E+02  1.250000000E+02  0.00000E+00  9.000E+00
      21     1     1     2   511   502  1.393190319E+01 -4.091125075E+00  5.317085124E+01  5.511782518E+01  9.536743164E-07  0.00000E+00  9.000E+00
#rwgt            1           1   2.2415820838118709E-002           3      207977           0
</event>
<event>
      5   9999  3.79277E-02  4.91354E+01 -1.00000E+00  1.39509E-01
      -1    -1     0     0     0   501  0.000000000E+00  0.000000000E+00  2.015411170E+02  2.015411170E+02  0.000000000E+00  0.00000E+00  9.000E+00
      21    -1     0     0   501   502  0.000000000E+00  0.000000000E+00 -4.003407935E+02  4.003407935E+02  0.000000000E+00  0.00000E+00  9.000E+00
      25     1     1     2     0     0 -1.730651237E+01  1.652756266E+02 -1.142592702E+02  2.372672101E+02  1.250000000E+02  0.00000E+00  9.000E+00
      25     1     1     2     0     0  6.480590877E+01 -1.527020823E+02 -1.684155546E+02  2.674070507E+02  1.250000000E+02  0.00000E+00  9.000E+00
      -1     1     1     2     0   502 -4.749939640E+01 -1.257354438E+01  8.387514834E+01  9.720764983E+01  1.907348633E-06  0.00000E+00  9.000E+00
#rwgt            1           1   3.7449586325946048E-002           3      208231           0
</event>
<event>
      5   9999  3.79277E-02  1.28539E+02 -1.00000E+00  1.19115E-01
       2    -1     0     0   502     0  0.000000000E+00  0.000000000E+00  1.138339640E+03  1.138339640E+03  0.000000000E+00  0.00000E+00  9.000E+00
      21    -1     0     0   501   502  0.000000000E+00  0.000000000E+00 -1.561440398E+02  1.561440398E+02  0.000000000E+00  0.00000E+00  9.000E+00
      25     1     1     2     0     0 -1.503277146E+02 -1.820071151E+01  1.125530806E+02  2.263247305E+02  1.250000000E+02  0.00000E+00  9.000E+00
      25     1     1     2     0     0  1.388540454E+02 -1.098255201E+02  3.005992058E+01  2.187937148E+02  1.250000000E+02  0.00000E+00  9.000E+00
       2     1     1     2   501     0  1.147366924E+01  1.280262316E+02  8.395825988E+02  8.493652343E+02  1.868812365E-05  0.00000E+00  9.000E+00
#rwgt            1           1   3.2151183138547479E-002           3      208381           0
</event>
<event>
      5   9999  3.79277E-02  2.86673E+01 -1.00000E+00  1.54423E-01
      21    -1     0     0   502   501  0.000000000E+00  0.000000000E+00  4.260434548E+02  4.260434548E+02  0.000000000E+00  0.00000E+00  9.000E+00
      21    -1     0     0   501   511  0.000000000E+00  0.000000000E+00 -1.850508323E+02  1.850508323E+02  0.000000000E+00  0.00000E+00  9.000E+00
      25     1     1     2     0     0  1.160488930E+02  7.358384401E+01  4.120769722E+01  1.902761203E+02  1.250000000E+02  0.00000E+00  9.000E+00
      25     1     1     2     0     0 -1.149493649E+02 -1.022300117E+02  2.757643369E+02  3.396105140E+02  1.250000000E+02  0.00000E+00  9.000E+00
      21     1     1     2   502   511 -1.099528119E+00  2.864616765E+01 -7.597941151E+01  8.120765270E+01  1.348699152E-06  0.00000E+00  9.000E+00
#rwgt            1           1   5.0906180220134538E-002           3      208464           0
</event>
<event>
      5   9999  3.79277E-02  7.28483E+01 -1.00000E+00  1.30349E-01
      21    -1     0     0   502   501  0.000000000E+00  0.000000000E+00  1.077170709E+03  1.077170709E+03  0.000000000E+00  0.00000E+00  9.000E+00
      21    -1     0     0   512   502  0.000000000E+00  0.000000000E+00 -1.758813609E+02  1.758813609E+02  0.000000000E+00  0.00000E+00  9.000E+00
      25     1     1     2     0     0 -1.136289505E+02 -3.314867586E+02  7.579732853E+02  8.443598230E+02  1.250000000E+02  0.00000E+00  9.000E+00
      25     1     1     2     0     0  1.118664822E+02  2.586598241E+02  1.008405353E+02  3.243652694E+02  1.250000000E+02  0.00000E+00  9.000E+00
      21     1     1     2   512   501  1.762468367E+00  7.282693459E+01  4.247552748E+01  8.432697748E+01  1.168007728E-06  0.00000E+00  9.000E+00
#rwgt            1           1   3.5665909090586582E-002           3      208630           0
</event>
<event>
      5   9999  3.79277E-02  6.80011E+01 -1.00000E+00  1.31861E-01
      21    -1     0     0   502   501  0.000000000E+00  0.000000000E+00  2.143119739E+02  2.143119739E+02  0.000000000E+00  0.00000E+00  9.000E+00
      21    -1     0     0   511   502  0.000000000E+00  0.000000000E+00 -3.650482729E+02  3.650482729E+02  0.000000000E+00  0.00000E+00  9.000E+00
      25     1     1     2     0     0  1.368436411E+02  1.250580086E+02  4.273398814E+01  2.276332168E+02  1.250000000E+02  0.00000E+00  9.000E+00
      25     1     1     2     0     0 -1.507143585E+02 -5.848661051E+01 -8.002887159E+01  2.194655366E+02  1.250000000E+02  0.00000E+00  9.000E+00
      21     1     1     2   511   501  1.387071743E+01 -6.657139814E+01 -1.134414156E+02  1.322614934E+02  0.000000000E+00  0.00000E+00  9.000E+00
#rwgt            1           1   2.9824227990326250E-002           3      208775           0
</event>
<event>
      5   9999  3.79277E-02  2.14645E+01 -1.00000E+00  1.63876E-01
      21    -1     0     0   502   512  0.000000000E+00  0.000000000E+00  3.627265201E+02  3.627265201E+02  0.000000000E+00  0.00000E+00  9.000E+00
      21    -1     0     0   501   502  0.000000000E+00  0.000000000E+00 -1.373379670E+02  1.373379670E+02  0.000000000E+00  0.00000E+00  9.000E+00
      25     1     1     2     0     0  1.225347390E+02 -9.520272493E+01  1.102809356E+01  1.995618699E+02  1.250000000E+02  0.00000E+00  9.000E+00
      25     1     1     2     0     0 -1.056616832E+02  8.193525770E+01  1.640117764E+02  2.457694866E+02  1.250000000E+02  0.00000E+00  9.000E+00
      21     1     1     2   501   512 -1.687305580E+01  1.326746723E+01  5.034868310E+01  5.473313063E+01  6.743495762E-07  0.00000E+00  9.000E+00
#rwgt            1           1   3.3062024869251277E-002           3      208905           0
</event>
<event>
      5   9999  3.79277E-02  7.42188E+01 -1.00000E+00  1.29946E-01
      21    -1     0     0   502   511  0.000000000E+00  0.000000000E+00  2.711683657E+02  2.711683657E+02  0.000000000E+00  0.00000E+00  9.000E+00
      21    -1     0     0   501   502  0.000000000E+00  0.000000000E+00 -2.331437732E+02  2.331437732E+02  0.000000000E+00  0.00000E+00  9.000E+00
      25     1     1     2     0     0  5.081485783E+01 -1.571023498E+02 -2.269189385E+01  2.083343950E+02  1.250000000E+02  0.00000E+00  9.000E+00
      25     1     1     2     0     0 -1.154850179E+02  1.206852803E+02  1.580533731E+01  2.092284277E+02  1.250000000E+02  0.00000E+00  9.000E+00
      21     1     1     2   501   511  6.467016010E+01  3.641706943E+01  4.491114908E+01  8.674931623E+01  8.259061849E-07  0.00000E+00  9.000E+00
#rwgt            1           1   3.5095924766288138E-002           3      209168           0
</event>
<event>
      5   9999  3.79277E-02  6.37152E+01 -1.00000E+00  1.33324E-01
      21    -1     0     0   502   501  0.000000000E+00  0.000000000E+00  6.962151180E+02  6.962151180E+02  0.000000000E+00  0.00000E+00  9.000E+00
      21    -1     0     0   501   512  0.000000000E+00  0.000000000E+00 -1.315783858E+02  1.315783858E+02  0.000000000E+00  0.00000E+00  9.000E+00
      25     1     1     2     0     0 -2.175582213E+02  2.868384836E+01  3.564668802E+02  4.368615106E+02  1.250000000E+02  0.00000E+00  9.000E+00
      25     1     1     2     0     0  1.919979256E+02  2.967967342E+01  2.276195564E+02  3.243142749E+02  1.250000000E+02  0.00000E+00  9.000E+00
      21     1     1     2   502   512  2.556029565E+01 -5.836352179E+01 -1.944970438E+01  6.661771828E+01  7.907449699E-07  0.00000E+00  9.000E+00
#rwgt            1           1   4.0385569020216290E-002           3      209490           0
</event>
<event>
      5   9999  3.79277E-02  8.83998E+00 -1.00000E+00  2.02158E-01
       4    -1     0     0   502     0  0.000000000E+00  0.000000000E+00  1.360958938E+02  1.360958938E+02  0.000000000E+00  0.00000E+00  9.000E+00
      21    -1     0     0   501   502  0.000000000E+00  0.000000000E+00 -4.727305330E+02  4.727305330E+02  0.000000000E+00  0.00000E+00  9.000E+00
      25     1     1     2     0     0 -5.985552480E+01 -6.665377454E+01 -9.351459555E+00  1.540709554E+02  1.250000000E+02  0.00000E+00  9.000E+00
      25     1     1     2     0     0  5.106571368E+01  6.571332909E+01 -3.761904013E+02  4.050557576E+02  1.250000000E+02  0.00000E+00  9.000E+00
       4     1     1     2   501     0  8.789811124E+00  9.404454479E-01  4.890722165E+01  4.969971375E+01  0.000000000E+00  0.00000E+00  9.000E+00
#rwgt            1           1   4.0660672591607668E-002           3      209680           0
</event>
<event>
      5   9999  3.79277E-02  7.66964E+01 -1.00000E+00  1.29242E-01
       2    -1     0     0   502     0  0.000000000E+00  0.000000000E+00  8.951510077E+02  8.951510077E+02  0.000000000E+00  0.00000E+00  9.000E+00
      21    -1     0     0   501   502  0.000000000E+00  0.000000000E+00 -3.322956478E+02  3.322956478E+02  0.000000000E+00  0.00000E+00  9.000E+00
      25     1     1     2     0     0 -2.247159732E+02 -1.183333984E+01 -1.986306738E+01  2.581798559E+02  1.250000000E+02  0.00000E+00  9.000E+00
      25     1     1     2     0     0  2.094139806E+02 -6.332107179E+01 -1.081175955E+02  2.741864108E+02  1.250000000E+02  0.00000E+00  9.000E+00
       2     1     1     2   501     0  1.530199254E+01  7.515441163E+01  6.908360228E+02  6.950803888E+02  0.000000000E+00  0.00000E+00  9.000E+00
#rwgt            1           1   3.5714121776172815E-002           3      210104           0
</event>
<event>
      5   9999  3.79277E-02  1.47872E+02 -1.00000E+00  1.16640E-01
      21    -1     0     0   502   501  0.000000000E+00  0.000000000E+00  2.546384675E+03  2.546384675E+03  0.000000000E+00  0.00000E+00  9.000E+00
      21    -1     0     0   511   502  0.000000000E+00  0.000000000E+00 -1.808361718E+02  1.808361718E+02  0.000000000E+00  0.00000E+00  9.000E+00
      25     1     1     2     0     0 -3.135821983E+02  2.295930693E+02  1.549705764E+03  1.602579086E+03  1.250000000E+02  0.00000E+00  9.000E+00
      25     1     1     2     0     0  2.369335842E+02 -1.031374885E+02  9.067223413E+02  9.510758482E+02  1.250000000E+02  0.00000E+00  9.000E+00
      21     1     1     2   511   501  7.664861408E+01 -1.264555808E+02 -9.087960185E+01  1.735659125E+02  6.325959759E-06  0.00000E+00  9.000E+00
#rwgt            1           1  0.43313051462721935                3      210210           0
</event>
<event>
      5   9999  3.79277E-02  1.26790E+02 -1.00000E+00  1.19362E-01
      21    -1     0     0   502   501  0.000000000E+00  0.000000000E+00  5.110488872E+02  5.110488872E+02  0.000000000E+00  0.00000E+00  9.000E+00
      21    -1     0     0   501   512  0.000000000E+00  0.000000000E+00 -4.957259707E+02  4.957259707E+02  0.000000000E+00  0.00000E+00  9.000E+00
      25     1     1     2     0     0  1.015191684E+01  2.064243840E+02  3.838496946E+02  4.535192121E+02  1.250000000E+02  0.00000E+00  9.000E+00
      25     1     1     2     0     0  1.126165368E+01 -8.145617132E+01  1.398823013E+01  1.502750920E+02  1.250000000E+02  0.00000E+00  9.000E+00
      21     1     1     2   502   512 -2.141357052E+01 -1.249682127E+02 -3.825150083E+02  4.029805538E+02  0.000000000E+00  0.00000E+00  9.000E+00
#rwgt            1           1   3.3318684483700393E-002           3      210465           0
</event>
<event>
      5   9999  3.79277E-02  6.01520E+01 -1.00000E+00  1.34645E-01
      21    -1     0     0   502   501  0.000000000E+00  0.000000000E+00  1.173596477E+02  1.173596477E+02  0.000000000E+00  0.00000E+00  9.000E+00
       2    -1     0     0   501     0  0.000000000E+00  0.000000000E+00 -1.227526199E+03  1.227526199E+03  0.000000000E+00  0.00000E+00  9.000E+00
      25     1     1     2     0     0 -1.689438266E+01 -1.551245507E+02 -3.056564132E+01  2.022580154E+02  1.250000000E+02  0.00000E+00  9.000E+00
      25     1     1     2     0     0  6.218816735E+01  1.947065429E+02 -4.468878974E+02  5.070619280E+02  1.250000000E+02  0.00000E+00  9.000E+00
       2     1     1     2   502     0 -4.529378469E+01 -3.958199226E+01 -6.327130128E+02  6.355659034E+02  7.629394531E-06  0.00000E+00  9.000E+00
#rwgt            1           1   3.7845576047574728E-002           3      210543           0
</event>
<event>
      5   9999  3.79277E-02  3.64031E+01 -1.00000E+00  1.47425E-01
      21    -1     0     0   502   501  0.000000000E+00  0.000000000E+00  1.316094287E+03  1.316094287E+03  0.000000000E+00  0.00000E+00  9.000E+00
      21    -1     0     0   511   502  0.000000000E+00  0.000000000E+00 -1.339657654E+02  1.339657654E+02  0.000000000E+00  0.00000E+00  9.000E+00
      25     1     1     2     0     0  1.022604408E+02  5.131190960E+01  8.832142713E+02  8.993233894E+02  1.250000000E+02  0.00000E+00  9.000E+00
      25     1     1     2     0     0 -1.386277445E+02 -4.969750890E+01  3.995096078E+02  4.437571640E+02  1.250000000E+02  0.00000E+00  9.000E+00
      21     1     1     2   511   501  3.636730362E+01 -1.614400706E+00 -1.005953579E+02  1.069794985E+02  5.223489356E-06  0.00000E+00  9.000E+00
#rwgt            1           1   3.3541349802205994E-002           3      210649           0
</event>
<event>
      5   9999  3.79277E-02  4.81227E+01 -1.00000E+00  1.40030E-01
      21    -1     0     0   512   501  0.000000000E+00  0.000000000E+00  2.534938181E+02  2.534938181E+02  0.000000000E+00  0.00000E+00  9.000E+00
      21    -1     0     0   501   502  0.000000000E+00  0.000000000E+00 -2.389507866E+02  2.389507866E+02  0.000000000E+00  0.00000E+00  9.000E+00
      25     1     1     2     0     0  6.276656070E+01 -1.181254474E+02 -1.454741852E+02  2.338396909E+02  1.250000000E+02  0.00000E+00  9.000E+00
      25     1     1     2     0     0 -2.682012467E+01  8.613095549E+01  1.318286319E+02  2.028340424E+02  1.250000000E+02  0.00000E+00  9.000E+00
      21     1     1     2   512   502 -3.594643603E+01  3.199449194E+01  2.818858488E+01  5.577087139E+01  8.259061849E-07  0.00000E+00  9.000E+00
#rwgt            1           1   4.1314602714198283E-002           3      210935           0
</event>
<event>
      5   9999 -3.79277E-02  8.68442E+01 -1.00000E+00  1.26647E-01
      21    -1     0     0   502   511  0.000000000E+00  0.000000000E+00  2.051700784E+03  2.051700784E+03  0.000000000E+00  0.00000E+00  9.000E+00
      21    -1     0     0   501   502  0.000000000E+00  0.000000000E+00 -1.017883864E+02  1.017883864E+02  0.000000000E+00  0.00000E+00  9.000E+00
      25     1     1     2     0     0  2.325778858E+02 -9.764121484E+01  4.208922761E+02  5.063611240E+02  1.250000000E+02  0.00000E+00  9.000E+00
      25     1     1     2     0     0 -3.188866873E+02  8.801263214E+01  4.889231678E+02  6.034118053E+02  1.250000000E+02  0.00000E+00  9.000E+00
      21     1     1     2   501   511  8.630880145E+01  9.628582699E+00  1.040096953E+03  1.043716241E+03  1.525878906E-05  0.00000E+00  9.000E+00
#rwgt            1           1 -0.16537234567824002                3      211026           0
</event>
<event>
      5   9999  3.79277E-02  3.07951E+01 -1.00000E+00  1.52255E-01
      21    -1     0     0   502   501  0.000000000E+00  0.000000000E+00  3.113304531E+02  3.113304531E+02  0.000000000E+00  0.00000E+00  9.000E+00
      21    -1     0     0   501   512  0.000000000E+00  0.000000000E+00 -1.352930835E+02  1.352930835E+02  0.000000000E+00  0.00000E+00  9.000E+00
      25     1     1     2     0     0 -3.035389079E+01  9.444994485E+01 -2.031755748E+01  1.608724772E+02  1.250000000E+02  0.00000E+00  9.000E+00
      25     1     1     2     0     0  6.109953057E+01 -9.270572937E+01  1.920953722E+02  2.546627906E+02  1.250000000E+02  0.00000E+00  9.000E+00
      21     1     1     2   502   512 -3.074563978E+01 -1.744215481E+00  4.259554890E+00  3.108826887E+01  1.460009660E-07  0.00000E+00  9.000E+00
#rwgt            1           1   3.0304497974292365E-002           3      211151           0
</event>
<event>
      5   9999  3.79277E-02  8.22276E+01 -1.00000E+00  1.27775E-01
       2    -1     0     0   502     0  0.000000000E+00  0.000000000E+00  6.887895167E+02  6.887895167E+02  0.000000000E+00  0.00000E+00  9.000E+00
      21    -1     0     0   501   502  0.000000000E+00  0.000000000E+00 -2.292168981E+02  2.292168981E+02  0.000000000E+00  0.00000E+00  9.000E+00
      25     1     1     2     0     0  2.430234440E+01  1.162909438E+02 -1.699037312E+02  2.420877226E+02  1.250000000E+02  0.00000E+00  9.000E+00
      25     1     1     2     0     0  9.717347154E+00 -4.143077870E+01  2.071103109E+02  2.456229165E+02  1.250000000E+02  0.00000E+00  9.000E+00
       2     1     1     2   501     0 -3.401969155E+01 -7.486016510E+01  4.223660390E+02  4.302957757E+02  5.394796609E-06  0.00000E+00  9.000E+00
#rwgt            1           1   4.2924321379137813E-002           3      211432           0
</event>
<event>
      5   9999  3.79277E-02  4.82637E+01 -1.00000E+00  1.39957E-01
      21    -1     0     0   502   501  0.000000000E+00  0.000000000E+00  1.123127915E+03  1.123127915E+03  0.000000000E+00  0.00000E+00  9.000E+00
       2    -1     0     0   501     0  0.000000000E+00  0.000000000E+00 -1.247760683E+02  1.247760683E+02  0.000000000E+00  0.00000E+00  9.000E+00
      25     1     1     2     0     0  2.229593129E+02  1.628675415E+01  1.835776324E+02  3.151219775E+02  1.250000000E+02  0.00000E+00  9.000E+00
      25     1     1     2     0     0 -2.117984830E+02  3.066876740E+01  8.417592500E+02  8.774866413E+02  1.250000000E+02  0.00000E+00  9.000E+00
       2     1     1     2   502     0 -1.116082987E+01 -4.695552155E+01 -2.698503608E+01  5.529536418E+01  5.840038640E-07  0.00000E+00  9.000E+00
#rwgt            2          13   2.4499451658821973E-005           3      211471           0
</event>
<event>
      5   9999  3.79277E-02  4.09076E+01 -1.00000E+00  1.44238E-01
      21    -1     0     0   502   501  0.000000000E+00  0.000000000E+00  5.273479279E+01  5.273479279E+01  0.000000000E+00  0.00000E+00  9.000E+00
      21    -1     0     0   501   511  0.000000000E+00  0.000000000E+00 -1.506550187E+03  1.506550187E+03  0.000000000E+00  0.00000E+00  9.000E+00
      25     1     1     2     0     0  1.242850835E+02 -1.185991355E+02 -2.843402871E+02  3.549463844E+02  1.250000000E+02  0.00000E+00  9.000E+00
      25     1     1     2     0     0 -1.517666768E+02  1.489008444E+02 -1.015610638E+03  1.045128965E+03  1.250000000E+02  0.00000E+00  9.000E+00
      21     1     1     2   502   511  2.748159328E+01 -3.030170889E+01 -1.538644696E+02  1.592096308E+02  1.907348633E-06  0.00000E+00  9.000E+00
#rwgt            1           1   4.2345813235747792E-002           3      211490           0
</event>
<event>
      5   9999  3.79277E-02  1.56103E+01 -1.00000E+00  1.75767E-01
      21    -1     0     0   502   512  0.000000000E+00  0.000000000E+00  9.281982020E+02  9.281982020E+02  0.000000000E+00  0.00000E+00  9.000E+00
      21    -1     0     0   501   502  0.000000000E+00  0.000000000E+00 -1.280313079E+02  1.280313079E+02  0.000000000E+00  0.00000E+00  9.000E+00
      25     1     1     2     0     0 -5.120745637E+01  2.951035142E+02  2.884707182E+02  4.342218821E+02  1.250000000E+02  0.00000E+00  9.000E+00
      25     1     1     2     0     0  6.503202158E+01 -3.023535645E+02  4.614513102E+02  5.693936718E+02  1.250000000E+02  0.00000E+00  9.000E+00
      21     1     1     2   501   512 -1.382456521E+01  7.250050323E+00  5.024486562E+01  5.261395589E+01  9.536743164E-07  0.00000E+00  9.000E+00
#rwgt            1           1   3.1553053500650845E-002           3      211841           0
</event>
<event>
      5   9999  3.79277E-02  3.26011E+01 -1.00000E+00  1.50573E-01
      21    -1     0     0   502   501  0.000000000E+00  0.000000000E+00  3.238797730E+02  3.238797730E+02  0.000000000E+00  0.00000E+00  9.000E+00
      21    -1     0     0   511   502  0.000000000E+00  0.000000000E+00 -2.421507560E+02  2.421507560E+02  0.000000000E+00  0.00000E+00  9.000E+00
      25     1     1     2     0     0 -9.077296360E+01  2.705000083E+01  2.505981811E+02  2.956279449E+02  1.250000000E+02  0.00000E+00  9.000E+00
      25     1     1     2     0     0  1.069576234E+02 -5.534999694E+01 -1.176578858E+02  2.096948580E+02  1.250000000E+02  0.00000E+00  9.000E+00
      21     1     1     2   511   501 -1.618465984E+01  2.829999611E+01 -5.121127822E+01  6.070772613E+01  6.743495762E-07  0.00000E+00  9.000E+00
#rwgt            1           1   3.9019193144801269E-002           3      212271           0
</event>
<event>
      5   9999  3.79277E-02  5.97038E+01 -1.00000E+00  1.34818E-01
      21    -1     0     0   502   512  0.000000000E+00  0.000000000E+00  1.315540658E+03  1.315540658E+03  0.000000000E+00  0.00000E+00  9.000E+00
      21    -1     0     0   501   502  0.000000000E+00  0.000000000E+00 -5.365480775E+01  5.365480775E+01  0.000000000E+00  0.00000E+00  9.000E+00
      25     1     1     2     0     0  4.007521842E+01 -1.317359104E+02  3.428773124E+02  3.900643851E+02  1.250000000E+02  0.00000E+00  9.000E+00
      25     1     1     2     0     0 -8.305567585E+01  1.731753144E+02  4.369987199E+02  4.934377529E+02  1.250000000E+02  0.00000E+00  9.000E+00
      21     1     1     2   501   512  4.298045743E+01 -4.143940401E+01  4.820098175E+02  4.856933272E+02  0.000000000E+00  0.00000E+00  9.000E+00
#rwgt            1           1   4.3504056950936634E-002           3      212434           0
</event>
<event>
      5   9999  3.79277E-02  4.05495E+01 -1.00000E+00  1.44474E-01
      21    -1     0     0   511   501  0.000000000E+00  0.000000000E+00  7.577298287E+02  7.577298287E+02  0.000000000E+00  0.00000E+00  9.000E+00
      21    -1     0     0   501   502  0.000000000E+00  0.000000000E+00 -1.758243516E+02  1.758243516E+02  0.000000000E+00  0.00000E+00  9.000E+00
      25     1     1     2     0     0  1.190154132E+02  2.824216440E+02  1.314006643E+02  3.561148525E+02  1.250000000E+02  0.00000E+00  9.000E+00
      25     1     1     2     0     0 -1.468378041E+02 -2.529228484E+02  3.748119398E+02  4.915692201E+02  1.250000000E+02  0.00000E+00  9.000E+00
      21     1     1     2   511   502  2.782239085E+01 -2.949879562E+01  7.569287305E+01  8.587010776E+01  9.536743164E-07  0.00000E+00  9.000E+00
#rwgt            1           1   3.6594615632083626E-002           3      212572           0
</event>
<event>
      5   9999  3.79277E-02  3.07845E+01 -1.00000E+00  1.52265E-01
      21    -1     0     0   502   501  0.000000000E+00  0.000000000E+00  1.050123107E+02  1.050123107E+02  0.000000000E+00  0.00000E+00  9.000E+00
      21    -1     0     0   501   512  0.000000000E+00  0.000000000E+00 -5.025809998E+02  5.025809998E+02  0.000000000E+00  0.00000E+00  9.000E+00
      25     1     1     2     0     0 -4.883985332E+01 -1.323369357E+02 -1.845793674E+02  2.638047359E+02  1.250000000E+02  0.00000E+00  9.000E+00
      25     1     1     2     0     0  7.075373470E+01  1.539578826E+02 -1.125761786E+02  2.387624689E+02  1.250000000E+02  0.00000E+00  9.000E+00
      21     1     1     2   502   512 -2.191388138E+01 -2.162094687E+01 -1.004131432E+02  1.050261056E+02  0.000000000E+00  0.00000E+00  9.000E+00
#rwgt            1           1   3.2797233951649823E-002           3      212673           0
</event>
<event>
      5   9999  3.79277E-02  1.62009E+01 -1.00000E+00  1.74290E-01
      21    -1     0     0   511   501  0.000000000E+00  0.000000000E+00  4.775992597E+01  4.775992597E+01  0.000000000E+00  0.00000E+00  9.000E+00
      21    -1     0     0   501   502  0.000000000E+00  0.000000000E+00 -1.109961155E+03  1.109961155E+03  0.000000000E+00  0.00000E+00  9.000E+00
      25     1     1     2     0     0  1.382638378E+02 -6.241463936E+01 -2.378694810E+02  3.085763536E+02  1.250000000E+02  0.00000E+00  9.000E+00
      25     1     1     2     0     0 -1.233233128E+02  5.614972582E+01 -7.893694509E+02  8.106112269E+02  1.250000000E+02  0.00000E+00  9.000E+00
      21     1     1     2   511   502 -1.494052504E+01  6.264913545E+00 -3.496229688E+01  3.853350015E+01  4.768371582E-07  0.00000E+00  9.000E+00
#rwgt            1           1   3.8524868466018145E-002           3      212770           0
</event>
<event>
      5   9999  3.79277E-02  7.47740E+01 -1.00000E+00  1.29786E-01
      21    -1     0     0   502   501  0.000000000E+00  0.000000000E+00  6.197845702E+01  6.197845702E+01  0.000000000E+00  0.00000E+00  9.000E+00
      21    -1     0     0   501   512  0.000000000E+00  0.000000000E+00 -3.217701674E+03  3.217701674E+03  0.000000000E+00  0.00000E+00  9.000E+00
      25     1     1     2     0     0  2.431094121E+02  8.741029354E+01 -4.529778069E+02  5.362430785E+02  1.250000000E+02  0.00000E+00  9.000E+00
      25     1     1     2     0     0 -2.513677787E+02 -1.309370586E+01 -9.915403924E+02  1.030599124E+03  1.250000000E+02  0.00000E+00  9.000E+00
      21     1     1     2   502   512  8.258366617E+00 -7.431658768E+01 -1.711205018E+03  1.712837928E+03  3.051757812E-05  0.00000E+00  9.000E+00
#rwgt            1           1   4.2718633100025383E-002           3      213126           0
</event>
<event>
      5   9999  3.79277E-02  5.58021E+01 -1.00000E+00  1.36409E-01
      21    -1     0     0   502   501  0.000000000E+00  0.000000000E+00  1.086462548E+03  1.086462548E+03  0.000000000E+00  0.00000E+00  9.000E+00
      21    -1     0     0   511   502  0.000000000E+00  0.000000000E+00 -6.427448564E+01  6.427448564E+01  0.000000000E+00  0.00000E+00  9.000E+00
      25     1     1     2     0     0  2.258806592E+01  1.108770085E+02  1.144946226E+02  2.038086120E+02  1.250000000E+02  0.00000E+00  9.000E+00
      25     1     1     2     0     0 -6.480737027E+01 -1.473654311E+02  8.009883080E+02  8.265130580E+02  1.250000000E+02  0.00000E+00  9.000E+00
      21     1     1     2   511   501  4.221930435E+01  3.648842258E+01  1.067051317E+02  1.204153635E+02  1.907348633E-06  0.00000E+00  9.000E+00
#rwgt            1           1   5.7374246832069938E-002           3      213220           0
</event>
<event>
      5   9999  3.79277E-02  1.10506E+01 -1.00000E+00  1.90872E-01
      21    -1     0     0   502   501  0.000000000E+00  0.000000000E+00  1.110661318E+02  1.110661318E+02  0.000000000E+00  0.00000E+00  9.000E+00
      21    -1     0     0   512   502  0.000000000E+00  0.000000000E+00 -3.878350718E+02  3.878350718E+02  0.000000000E+00  0.00000E+00  9.000E+00
      25     1     1     2     0     0  6.407543443E+01 -2.618427069E+01 -2.950270445E+02  3.278067027E+02  1.250000000E+02  0.00000E+00  9.000E+00
      25     1     1     2     0     0 -7.145200480E+01  1.795609026E+01  3.663641128E+01  1.496497137E+02  1.250000000E+02  0.00000E+00  9.000E+00
      21     1     1     2   512   501  7.376570377E+00  8.228180421E+00 -1.837830679E+01  2.144478734E+01  2.384185791E-07  0.00000E+00  9.000E+00
#rwgt            1           1   5.3607533512155511E-002           3      213344           0
</event>
<event>
      5   9999  3.79277E-02  1.46261E+01 -1.00000E+00  1.78423E-01
      21    -1     0     0   502   511  0.000000000E+00  0.000000000E+00  2.648067614E+02  2.648067614E+02  0.000000000E+00  0.00000E+00  9.000E+00
      21    -1     0     0   501   502  0.000000000E+00  0.000000000E+00 -1.306088951E+02  1.306088951E+02  0.000000000E+00  0.00000E+00  9.000E+00
      25     1     1     2     0     0  1.231275516E+02  3.904666392E+00  1.081417462E+01  1.758339750E+02  1.250000000E+02  0.00000E+00  9.000E+00
      25     1     1     2     0     0 -1.101739375E+02 -1.069634990E+01  1.147694280E+02  2.026073296E+02  1.250000000E+02  0.00000E+00  9.000E+00
      21     1     1     2   501   511 -1.295361411E+01  6.791683503E+00  8.614263655E+00  1.697435188E+01  1.685873940E-07  0.00000E+00  9.000E+00
#rwgt            1           1   3.8553931791864414E-002           3      213647           0
</event>
<event>
      5   9999  3.79277E-02  1.03703E+02 -1.00000E+00  1.23122E-01
      21    -1     0     0   502   501  0.000000000E+00  0.000000000E+00  4.701252004E+01  4.701252004E+01  0.000000000E+00  0.00000E+00  9.000E+00
      21    -1     0     0   501   512  0.000000000E+00  0.000000000E+00 -1.462906305E+03  1.462906305E+03  0.000000000E+00  0.00000E+00  9.000E+00
      25     1     1     2     0     0 -1.213875179E+02  8.707548806E+00 -5.877688156E+02  6.131133105E+02  1.250000000E+02  0.00000E+00  9.000E+00
      25     1     1     2     0     0  1.110100702E+02 -1.118897009E+02 -3.182973124E+02  3.765378068E+02  1.250000000E+02  0.00000E+00  9.000E+00
      21     1     1     2   502   512  1.037744767E+01  1.031821521E+02 -5.098276564E+02  5.202677073E+02  9.344061824E-06  0.00000E+00  9.000E+00
#rwgt            1           1   4.4653070179981401E-002           3      213855           0
</event>
<event>
      5   9999  3.79277E-02  2.56195E+01 -1.00000E+00  1.57959E-01
      21    -1     0     0   502   501  0.000000000E+00  0.000000000E+00  1.896968175E+02  1.896968175E+02  0.000000000E+00  0.00000E+00  9.000E+00
      21    -1     0     0   501   511  0.000000000E+00  0.000000000E+00 -3.356896465E+02  3.356896465E+02  0.000000000E+00  0.00000E+00  9.000E+00
      25     1     1     2     0     0 -1.683465968E+02 -3.232083932E+01  3.922224553E+01  2.157512407E+02  1.250000000E+02  0.00000E+00  9.000E+00
      25     1     1     2     0     0  1.485844069E+02  1.601694854E+01 -9.674066818E+01  2.175261490E+02  1.250000000E+02  0.00000E+00  9.000E+00
      21     1     1     2   502   511  1.976218988E+01  1.630389078E+01 -8.847440628E+01  9.210907431E+01  1.651812370E-06  0.00000E+00  9.000E+00
#rwgt            1           1   3.8920613959163228E-002           3      213976           0
</event>
<event>
      5   9999 -3.79277E-02  7.11019E+01 -1.00000E+00  1.30878E-01
      21    -1     0     0   512   501  0.000000000E+00  0.000000000E+00  1.670229023E+03  1.670229023E+03  0.000000000E+00  0.00000E+00  9.000E+00
      21    -1     0     0   501   502  0.000000000E+00  0.000000000E+00 -6.141662257E+01  6.141662257E+01  0.000000000E+00  0.00000E+00  9.000E+00
      25     1     1     2     0     0  2.148935632E+01  1.487988834E+01  7.289591623E+02  7.400605812E+02  1.250000000E+02  0.00000E+00  9.000E+00
      25     1     1     2     0     0 -8.421165132E+01 -4.836718116E+01  6.097976553E+01  1.696305345E+02  1.250000000E+02  0.00000E+00  9.000E+00
      21     1     1     2   512   502  6.272229501E+01  3.348729282E+01  8.188734724E+02  8.219545297E+02  1.078959322E-05  0.00000E+00  9.000E+00
#rwgt            1           1  -1.1786222080403776E-002           3      214102           0
</event>
<event>
      5   9999 -3.79277E-02  2.45484E+01 -1.00000E+00  1.59346E-01
      21    -1     0     0   511   501  0.000000000E+00  0.000000000E+00  3.444572974E+02  3.444572974E+02  0.000000000E+00  0.00000E+00  9.000E+00
      21    -1     0     0   501   502  0.000000000E+00  0.000000000E+00 -1.313920569E+02  1.313920569E+02  0.000000000E+00  0.00000E+00  9.000E+00
      25     1     1     2     0     0 -4.700153268E+01 -1.486609814E+02  5.802371928E+01  2.080888835E+02  1.250000000E+02  0.00000E+00  9.000E+00
      25     1     1     2     0     0  6.141929144E+01  1.287926160E+02  1.182632229E+02  2.235420703E+02  1.250000000E+02  0.00000E+00  9.000E+00
      21     1     1     2   511   502 -1.441775876E+01  1.986836533E+01  3.677829841E+01  4.421840050E+01  0.000000000E+00  0.00000E+00  9.000E+00
#rwgt            1           1  -3.0545852610456291E-002           3      214171           0
</event>
<event>
      5   9999  3.79277E-02  1.57400E+01 -1.00000E+00  1.75436E-01
      21    -1     0     0   502   512  0.000000000E+00  0.000000000E+00  9.652811874E+01  9.652811874E+01  0.000000000E+00  0.00000E+00  9.000E+00
      21    -1     0     0   501   502  0.000000000E+00  0.000000000E+00 -1.866006321E+03  1.866006321E+03  0.000000000E+00  0.00000E+00  9.000E+00
      25     1     1     2     0     0  2.053228290E+02 -2.737429681E+02 -5.085703806E+02  6.255889295E+02  1.250000000E+02  0.00000E+00  9.000E+00
      25     1     1     2     0     0 -1.897422940E+02  2.715082046E+02 -1.270233903E+03  1.318650072E+03  1.250000000E+02  0.00000E+00  9.000E+00
      21     1     1     2   501   512 -1.558053502E+01  2.234763510E+00  9.326082044E+00  1.829543784E+01  6.078504936E-07  0.00000E+00  9.000E+00
#rwgt            1           1   4.4045714817455152E-002           3      214298           0
</event>
<event>
      5   9999  3.79277E-02  2.61938E+01 -1.00000E+00  1.57248E-01
      21    -1     0     0   502   501  0.000000000E+00  0.000000000E+00  1.022956778E+03  1.022956778E+03  0.000000000E+00  0.00000E+00  9.000E+00
      21    -1     0     0   511   502  0.000000000E+00  0.000000000E+00 -5.397664064E+01  5.397664064E+01  0.000000000E+00  0.00000E+00  9.000E+00
      25     1     1     2     0     0  5.146072608E+01 -1.001365287E+02  6.629824392E+02  6.839928694E+02  1.250000000E+02  0.00000E+00  9.000E+00
      25     1     1     2     0     0 -7.315579142E+01  1.148144517E+02  3.150210468E+02  3.652360717E+02  1.250000000E+02  0.00000E+00  9.000E+00
      21     1     1     2   511   501  2.169506534E+01 -1.467792290E+01 -9.023348308E+00  2.770447789E+01  8.429369702E-07  0.00000E+00  9.000E+00
#rwgt            1           1   4.1167089090577723E-002           3      214642           0
</event>
<event>
      5   9999  3.79277E-02  1.21342E+01 -1.00000E+00  1.86522E-01
      21    -1     0     0   502   501  0.000000000E+00  0.000000000E+00  6.243792873E+02  6.243792873E+02  0.000000000E+00  0.00000E+00  9.000E+00
       1    -1     0     0   501     0  0.000000000E+00  0.000000000E+00 -5.780360118E+02  5.780360118E+02  0.000000000E+00  0.00000E+00  9.000E+00
      25     1     1     2     0     0  1.299344701E+02 -2.035344216E+02  1.536910622E+02  3.123382300E+02  1.250000000E+02  0.00000E+00  9.000E+00
      25     1     1     2     0     0 -1.278084054E+02  1.915879235E+02  3.474115047E+02  4.351559198E+02  1.250000000E+02  0.00000E+00  9.000E+00
       1     1     1     2   502     0 -2.126064751E+00  1.194649809E+01 -4.547592914E+02  4.549211493E+02  9.344061824E-06  0.00000E+00  9.000E+00
#rwgt            1           1   3.8637848390416063E-002           3      214879           0
</event>
<event>
      5   9999  3.79277E-02  3.62068E+01 -1.00000E+00  1.47576E-01
      21    -1     0     0   511   501  0.000000000E+00  0.000000000E+00  6.881229940E+01  6.881229940E+01  0.000000000E+00  0.00000E+00  9.000E+00
      21    -1     0     0   501   502  0.000000000E+00  0.000000000E+00 -1.715439717E+03  1.715439717E+03  0.000000000E+00  0.00000E+00  9.000E+00
      25     1     1     2     0     0 -1.521208394E+02 -6.120121256E+01 -8.986157325E+02  9.219661452E+02  1.250000000E+02  0.00000E+00  9.000E+00
      25     1     1     2     0     0  1.882751086E+02  5.925218131E+01 -7.798360864E+02  8.140808676E+02  1.250000000E+02  0.00000E+00  9.000E+00
      21     1     1     2   511   502 -3.615426915E+01  1.949031255E+00  3.182440096E+01  4.820500385E+01  1.215700987E-06  0.00000E+00  9.000E+00
#rwgt            1           1   2.6808907427457465E-002           3      215105           0
</event>
<event>
      5   9999  3.79277E-02  1.80429E+01 -1.00000E+00  1.70146E-01
      21    -1     0     0   502   512  0.000000000E+00  0.000000000E+00  2.687079102E+02  2.687079102E+02  0.000000000E+00  0.00000E+00  9.000E+00
      21    -1     0     0   501   502  0.000000000E+00  0.000000000E+00 -1.746997852E+02  1.746997852E+02  0.000000000E+00  0.00000E+00  9.000E+00
      25     1     1     2     0     0  1.268666742E+02 -3.148171340E+01 -6.207870271E+01  1.912198123E+02  1.250000000E+02  0.00000E+00  9.000E+00
      25     1     1     2     0     0 -1.250111801E+02  1.353449021E+01  1.275085576E+02  2.183904985E+02  1.250000000E+02  0.00000E+00  9.000E+00
      21     1     1     2   501   512 -1.855494073E+00  1.794722319E+01  2.857827014E+01  3.379738456E+01  3.371747881E-07  0.00000E+00  9.000E+00
#rwgt            1           1   3.7406832973975089E-002           3      215242           0
</event>
<event>
      5   9999  3.79277E-02  4.93806E+01 -1.00000E+00  1.39385E-01
      21    -1     0     0   502   511  0.000000000E+00  0.000000000E+00  2.538728577E+02  2.538728577E+02  0.000000000E+00  0.00000E+00  9.000E+00
      21    -1     0     0   501   502  0.000000000E+00  0.000000000E+00 -3.821859057E+02  3.821859057E+02  0.000000000E+00  0.00000E+00  9.000E+00
      25     1     1     2     0     0  4.309289299E+01  1.165692784E+02 -2.825964448E+02  3.330632743E+02  1.250000000E+02  0.00000E+00  9.000E+00
      25     1     1     2     0     0 -8.389302800E+01 -8.875211218E+01  4.112319967E+01  1.795302067E+02  1.250000000E+02  0.00000E+00  9.000E+00
      21     1     1     2   501   511  4.080013501E+01 -2.781716621E+01  1.131601971E+02  1.234652824E+02  1.907348633E-06  0.00000E+00  9.000E+00
#rwgt            1           1   4.5443375866311961E-002           3      215450           0
</event>
<event>
      5   9999  3.79277E-02  1.15875E+01 -1.00000E+00  1.88640E-01
      21    -1     0     0   502   512  0.000000000E+00  0.000000000E+00  2.169307550E+02  2.169307550E+02  0.000000000E+00  0.00000E+00  9.000E+00
      21    -1     0     0   501   502  0.000000000E+00  0.000000000E+00 -1.302363185E+02  1.302363185E+02  0.000000000E+00  0.00000E+00  9.000E+00
      25     1     1     2     0     0 -1.640808982E+01  4.442840522E+01 -5.615314730E+01  1.449871876E+02  1.250000000E+02  0.00000E+00  9.000E+00
      25     1     1     2     0     0  2.041631211E+01 -3.355622645E+01  1.263735654E+02  1.820387985E+02  1.250000000E+02  0.00000E+00  9.000E+00
      21     1     1     2   501   512 -4.008222292E+00 -1.087217877E+01  1.647401841E+01  2.014108735E+01  4.129530925E-07  0.00000E+00  9.000E+00
#rwgt            1           1   5.7625680793197034E-002           3      215672           0
</event>
<event>
      5   9999  3.79277E-02  2.12403E+02 -1.00000E+00  1.10705E-01
      21    -1     0     0   511   501  0.000000000E+00  0.000000000E+00  1.390999355E+03  1.390999355E+03  0.000000000E+00  0.00000E+00  9.000E+00
      21    -1     0     0   501   502  0.000000000E+00  0.000000000E+00 -9.358860598E+01  9.358860598E+01  0.000000000E+00  0.00000E+00  9.000E+00
      25     1     1     2     0     0 -6.827923037E+01 -2.311019185E+02  2.067085117E+02  3.412089666E+02  1.250000000E+02  0.00000E+00  9.000E+00
      25     1     1     2     0     0  2.522847475E+01  2.310744574E+01  4.575107042E+02  4.755118026E+02  1.250000000E+02  0.00000E+00  9.000E+00
      21     1     1     2   511   502  4.305075562E+01  2.079944728E+02  6.331915332E+02  6.678671919E+02  1.525878906E-05  0.00000E+00  9.000E+00
#rwgt            1           1   4.4714006138836797E-002           3      215897           0
</event>
<event>
      5   9999 -3.79277E-02  2.61670E+01 -1.00000E+00  1.57281E-01
      21    -1     0     0   502   512  0.000000000E+00  0.000000000E+00  8.069821623E+01  8.069821623E+01  0.000000000E+00  0.00000E+00  9.000E+00
      21    -1     0     0   501   502  0.000000000E+00  0.000000000E+00 -4.676344984E+02  4.676344984E+02  0.000000000E+00  0.00000E+00  9.000E+00
      25     1     1     2     0     0  9.611410615E+01 -5.130933346E+01 -2.389276682E+02  2.908298467E+02  1.250000000E+02  0.00000E+00  9.000E+00
      25     1     1     2     0     0 -1.213245841E+02  4.429901077E+01 -1.454328807E+02  2.312093853E+02  1.250000000E+02  0.00000E+00  9.000E+00
      21     1     1     2   501   512  2.521047797E+01  7.010322695E+00 -2.575733209E+00  2.629348256E+01  5.118716966E-07  0.00000E+00  9.000E+00
#rwgt            1           1 -0.26361743703155061                3      216032           0
</event>
<event>
      5   9999  3.79277E-02  1.50160E+02 -1.00000E+00  1.16375E-01
      21    -1     0     0   502   501  0.000000000E+00  0.000000000E+00  2.929808832E+02  2.929808832E+02  0.000000000E+00  0.00000E+00  9.000E+00
      21    -1     0     0   501   511  0.000000000E+00  0.000000000E+00 -4.980830396E+02  4.980830396E+02  0.000000000E+00  0.00000E+00  9.000E+00
      25     1     1     2     0     0 -3.452156163E+01  2.297317837E+02 -7.307639543E+01  2.737400048E+02  1.250000000E+02  0.00000E+00  9.000E+00
      25     1     1     2     0     0  1.827154031E+02 -2.055102885E+02  2.117037613E+01  3.028078302E+02  1.250000000E+02  0.00000E+00  9.000E+00
      21     1     1     2   502   511 -1.481938415E+02 -2.422149517E+01 -1.531961371E+02  2.145160878E+02  2.697398305E-06  0.00000E+00  9.000E+00
#rwgt            1           1   4.1870833044165057E-002           3      216194           0
</event>
<event>
      5   9999  3.79277E-02  8.88476E+01 -1.00000E+00  1.26183E-01
      21    -1     0     0   502   512  0.000000000E+00  0.000000000E+00  1.464472976E+03  1.464472976E+03  0.000000000E+00  0.00000E+00  9.000E+00
      21    -1     0     0   501   502  0.000000000E+00  0.000000000E+00 -1.114213392E+02  1.114213392E+02  0.000000000E+00  0.00000E+00  9.000E+00
      25     1     1     2     0     0 -2.686260914E+02  4.810063049E+01  4.873771263E+02  5.723941919E+02  1.250000000E+02  0.00000E+00  9.000E+00
      25     1     1     2     0     0  2.716178467E+02  4.069656925E+01  2.817156771E+02  4.128210122E+02  1.250000000E+02  0.00000E+00  9.000E+00
      21     1     1     2   501   512 -2.991755314E+00 -8.879719974E+01  5.839588337E+02  5.906791114E+02  7.629394531E-06  0.00000E+00  9.000E+00
#rwgt            1           1   4.3997713797110753E-002           3      216251           0
</event>
<event>
      5   9999  3.79277E-02  1.85805E+01 -1.00000E+00  1.69051E-01
      21    -1     0     0   502   511  0.000000000E+00  0.000000000E+00  3.404541290E+02  3.404541290E+02  0.000000000E+00  0.00000E+00  9.000E+00
      21    -1     0     0   501   502  0.000000000E+00  0.000000000E+00 -1.108068474E+02  1.108068474E+02  0.000000000E+00  0.00000E+00  9.000E+00
      25     1     1     2     0     0 -6.381892063E+01 -4.305792911E+00 -2.916858924E+01  1.434126950E+02  1.250000000E+02  0.00000E+00  9.000E+00
      25     1     1     2     0     0  7.877543138E+01 -6.718584853E+00  2.344796101E+02  2.772298605E+02  1.250000000E+02  0.00000E+00  9.000E+00
      21     1     1     2   501   511 -1.495651075E+01  1.102437776E+01  2.433626067E+01  3.061842096E+01  3.371747881E-07  0.00000E+00  9.000E+00
#rwgt            1           1   3.1512658218524142E-002           3      216327           0
</event>
<event>
      5   9999  3.79277E-02  3.89090E+01 -1.00000E+00  1.45589E-01
      21    -1     0     0   512   501  0.000000000E+00  0.000000000E+00  1.884856169E+02  1.884856169E+02  0.000000000E+00  0.00000E+00  9.000E+00
      21    -1     0     0   501   502  0.000000000E+00  0.000000000E+00 -3.368745764E+02  3.368745764E+02  0.000000000E+00  0.00000E+00  9.000E+00
      25     1     1     2     0     0  9.206633235E+01 -1.540717880E+02 -1.878103647E+02  2.882916206E+02  1.250000000E+02  0.00000E+00  9.000E+00
      25     1     1     2     0     0 -9.334747591E+01  1.151838983E+02  2.479646444E+01  1.955017809E+02  1.250000000E+02  0.00000E+00  9.000E+00
      21     1     1     2   512   502  1.281143558E+00  3.888788976E+01  1.462494072E+01  4.156679191E+01  7.348554138E-07  0.00000E+00  9.000E+00
#rwgt            1           1   4.1801843798838507E-002           3      216605           0
</event>
<event>
      5   9999  3.79277E-02  8.26531E+01 -1.00000E+00  1.27667E-01
      21    -1     0     0   502   501  0.000000000E+00  0.000000000E+00  9.514390034E+02  9.514390034E+02  0.000000000E+00  0.00000E+00  9.000E+00
      21    -1     0     0   501   511  0.000000000E+00  0.000000000E+00 -1.003835464E+02  1.003835464E+02  0.000000000E+00  0.00000E+00  9.000E+00
      25     1     1     2     0     0  5.881785168E+01 -6.158871765E+01 -2.093349887E+00  1.512682780E+02  1.250000000E+02  0.00000E+00  9.000E+00
      25     1     1     2     0     0  2.382363207E+01  6.020127834E+01  7.719794841E+02  7.847095534E+02  1.250000000E+02  0.00000E+00  9.000E+00
      21     1     1     2   502   511 -8.264148375E+01  1.387439311E+00  8.116932280E+01  1.158447184E+02  9.536743164E-07  0.00000E+00  9.000E+00
#rwgt            1           1   4.2583929369021389E-002           3      216753           0
</event>
<event>
      5   9999  3.79277E-02  1.06366E+01 -1.00000E+00  1.92709E-01
      21    -1     0     0   512   501  0.000000000E+00  0.000000000E+00  6.719208040E+02  6.719208040E+02  0.000000000E+00  0.00000E+00  9.000E+00
      21    -1     0     0   501   502  0.000000000E+00  0.000000000E+00 -7.921310575E+01  7.921310575E+01  0.000000000E+00  0.00000E+00  9.000E+00
      25     1     1     2     0     0  5.079172320E+01  1.787571589E+02  2.792229548E+02  3.579446599E+02  1.250000000E+02  0.00000E+00  9.000E+00
      25     1     1     2     0     0 -4.176742962E+01 -1.843873822E+02  2.977567867E+02  3.742022567E+02  1.250000000E+02  0.00000E+00  9.000E+00
      21     1     1     2   512   502 -9.024293583E+00  5.630223232E+00  1.572795675E+01  1.898699323E+01  2.384185791E-07  0.00000E+00  9.000E+00
#rwgt            1           1   4.0174969963857970E-002           3      216963           0
</event>
<event>
      5   9999  3.79277E-02  2.05007E+01 -1.00000E+00  1.65488E-01
      21    -1     0     0   502   501  0.000000000E+00  0.000000000E+00  6.860209582E+02  6.860209582E+02  0.000000000E+00  0.00000E+00  9.000E+00
      21    -1     0     0   511   502  0.000000000E+00  0.000000000E+00 -4.883873542E+02  4.883873542E+02  0.000000000E+00  0.00000E+00  9.000E+00
      25     1     1     2     0     0  1.677289790E+02  1.063702121E+02  3.530245674E+02  4.239091620E+02  1.250000000E+02  0.00000E+00  9.000E+00
      25     1     1     2     0     0 -1.719364287E+02 -8.630590809E+01  2.530349949E+02  3.415590051E+02  1.250000000E+02  0.00000E+00  9.000E+00
      21     1     1     2   511   501  4.207449657E+00 -2.006430405E+01 -4.084259584E+02  4.089401453E+02  5.394796609E-06  0.00000E+00  9.000E+00
#rwgt            1           1   3.5494122108519446E-002           3      217204           0
</event>
<event>
      5   9999  3.79277E-02  3.28776E+01 -1.00000E+00  1.50327E-01
      21    -1     0     0   512   501  0.000000000E+00  0.000000000E+00  1.033550604E+03  1.033550604E+03  0.000000000E+00  0.00000E+00  9.000E+00
      21    -1     0     0   501   502  0.000000000E+00  0.000000000E+00 -3.134453679E+02  3.134453679E+02  0.000000000E+00  0.00000E+00  9.000E+00
      25     1     1     2     0     0  2.626059215E+02 -2.242349422E+02 -1.468514494E+02  3.955167854E+02  1.250000000E+02  0.00000E+00  9.000E+00
      25     1     1     2     0     0 -2.344110280E+02  2.411459827E+02  8.051779073E+02  8.814966690E+02  1.250000000E+02  0.00000E+00  9.000E+00
      21     1     1     2   512   502 -2.819489354E+01 -1.691104051E+01  6.177877835E+01  6.998251758E+01  9.536743164E-07  0.00000E+00  9.000E+00
#rwgt            1           1   5.5086195010406146E-002           3      217458           0
</event>
<event>
      5   9999  3.79277E-02  6.55043E+01 -1.00000E+00  1.32698E-01
      21    -1     0     0   502   501  0.000000000E+00  0.000000000E+00  4.279639083E+02  4.279639083E+02  0.000000000E+00  0.00000E+00  9.000E+00
      21    -1     0     0   511   502  0.000000000E+00  0.000000000E+00 -5.004783523E+02  5.004783523E+02  0.000000000E+00  0.00000E+00  9.000E+00
      25     1     1     2     0     0 -1.498389468E+02  9.943200801E+01  1.837437460E+02  2.858761942E+02  1.250000000E+02  0.00000E+00  9.000E+00
      25     1     1     2     0     0  1.363950615E+02 -3.532215078E+01  1.439322362E+02  2.370501123E+02  1.250000000E+02  0.00000E+00  9.000E+00
      21     1     1     2   511   501  1.344388530E+01 -6.410985723E+01 -4.001904261E+02  4.055159541E+02  0.000000000E+00  0.00000E+00  9.000E+00
#rwgt            1           1   3.8905188564439953E-002           3      217733           0
</event>
<event>
      5   9999  3.79277E-02  2.61746E+01 -1.00000E+00  1.57272E-01
      21    -1     0     0   502   512  0.000000000E+00  0.000000000E+00  6.183591628E+02  6.183591628E+02  0.000000000E+00  0.00000E+00  9.000E+00
      21    -1     0     0   501   502  0.000000000E+00  0.000000000E+00 -3.986994483E+02  3.986994483E+02  0.000000000E+00  0.00000E+00  9.000E+00
      25     1     1     2     0     0 -8.167748068E+01  1.930332922E+00 -1.603504852E+02  2.191168983E+02  1.250000000E+02  0.00000E+00  9.000E+00
      25     1     1     2     0     0  7.889168295E+01 -2.795622708E+01 -1.815470146E+02  2.357748222E+02  1.250000000E+02  0.00000E+00  9.000E+00
      21     1     1     2   501   512  2.785797733E+00  2.602589416E+01  5.615572144E+02  5.621668906E+02  7.629394531E-06  0.00000E+00  9.000E+00
#rwgt            1           1   5.5067922810632518E-002           3      217824           0
</event>
<event>
      5   9999  3.79277E-02  9.72420E+00 -1.00000E+00  1.97172E-01
      -2    -1     0     0     0   501  0.000000000E+00  0.000000000E+00  4.447813542E+02  4.447813542E+02  0.000000000E+00  0.00000E+00  9.000E+00
      21    -1     0     0   501   502  0.000000000E+00  0.000000000E+00 -2.975514536E+02  2.975514536E+02  0.000000000E+00  0.00000E+00  9.000E+00
      25     1     1     2     0     0 -5.514166796E+00  2.287952250E+01 -2.255358740E+02  2.589310894E+02  1.250000000E+02  0.00000E+00  9.000E+00
      25     1     1     2     0     0  6.052945883E+00 -1.317025724E+01  1.639822282E+01  1.269015191E+02  1.250000000E+02  0.00000E+00  9.000E+00
      -2     1     1     2     0   502 -5.387790867E-01 -9.709265263E+00  3.563675518E+02  3.565001993E+02  0.000000000E+00  0.00000E+00  9.000E+00
#rwgt            1           1   3.8989296630170756E-002           3      217934           0
</event>
<event>
      5   9999 -4.66226E-02  1.09206E+01 -1.00000E+00  1.91437E-01
      21    -1     0     0   502   501  0.000000000E+00  0.000000000E+00  5.043288791E+01  5.043288791E+01  0.000000000E+00  0.00000E+00  9.000E+00
      21    -1     0     0   511   502  0.000000000E+00  0.000000000E+00 -1.592982476E+03  1.592982476E+03  0.000000000E+00  0.00000E+00  9.000E+00
      25     1     1     2     0     0 -2.302287339E+02  3.486025926E+00 -7.332029312E+02  7.786070644E+02  1.250000000E+02  0.00000E+00  9.000E+00
      25     1     1     2     0     0  2.270622402E+02 -1.393749181E+01 -5.827096821E+02  6.379083698E+02  1.250000000E+02  0.00000E+00  9.000E+00
      21     1     1     2   511   501  3.166493724E+00  1.045146589E+01 -2.266369749E+02  2.268999299E+02  4.672030912E-06  0.00000E+00  9.000E+00
#rwgt            1           1 -0.61005452679618943                3      218162           0
</event>
<event>
      5   9999 -3.79277E-02  5.38118E+01 -1.00000E+00  1.37279E-01
      21    -1     0     0   512   501  0.000000000E+00  0.000000000E+00  2.507755788E+02  2.507755788E+02  0.000000000E+00  0.00000E+00  9.000E+00
      21    -1     0     0   501   502  0.000000000E+00  0.000000000E+00 -3.036584954E+02  3.036584954E+02  0.000000000E+00  0.00000E+00  9.000E+00
      25     1     1     2     0     0  1.686625901E+02 -1.291261343E+02 -6.338068192E+01  2.544852426E+02  1.250000000E+02  0.00000E+00  9.000E+00
      25     1     1     2     0     0 -1.258099353E+02  1.616740043E+02 -1.489976528E+01  2.404446433E+02  1.250000000E+02  0.00000E+00  9.000E+00
      21     1     1     2   512   502 -4.285265479E+01 -3.254787000E+01  2.539753064E+01  5.950418831E+01  1.215700987E-06  0.00000E+00  9.000E+00
#rwgt            1           1  -3.7158034078682949E-002           3      218501           0
</event>
<event>
      5   9999  3.79277E-02  6.52754E+01 -1.00000E+00  1.32776E-01
      21    -1     0     0   502   501  0.000000000E+00  0.000000000E+00  8.058458710E+02  8.058458710E+02  0.000000000E+00  0.00000E+00  9.000E+00
      21    -1     0     0   501   511  0.000000000E+00  0.000000000E+00 -8.837986650E+01  8.837986650E+01  0.000000000E+00  0.00000E+00  9.000E+00
      25     1     1     2     0     0 -1.198123920E+01  1.774244947E+02  1.808429985E+02  2.827581856E+02  1.250000000E+02  0.00000E+00  9.000E+00
      25     1     1     2     0     0 -4.998060419E+01 -1.568913883E+02  4.882773030E+02  5.302383361E+02  1.250000000E+02  0.00000E+00  9.000E+00
      21     1     1     2   502   511  6.196184339E+01 -2.053310640E+01  4.834570306E+01  8.122921579E+01  1.168007728E-06  0.00000E+00  9.000E+00
#rwgt            1           1   3.9707253137282870E-002           3      218690           0
</event>
<event>
      5   9999 -3.79277E-02  2.67532E+01 -1.00000E+00  1.56577E-01
      21    -1     0     0   502   512  0.000000000E+00  0.000000000E+00  3.096023628E+02  3.096023628E+02  0.000000000E+00  0.00000E+00  9.000E+00
      21    -1     0     0   501   502  0.000000000E+00  0.000000000E+00 -2.629721045E+02  2.629721045E+02  0.000000000E+00  0.00000E+00  9.000E+00
      25     1     1     2     0     0  4.035313674E+01  1.626958836E+02  4.981042797E+01  2.149520991E+02  1.250000000E+02  0.00000E+00  9.000E+00
      25     1     1     2     0     0 -5.605139296E+01 -1.843592387E+02 -1.048548260E+02  2.524868751E+02  1.250000000E+02  0.00000E+00  9.000E+00
      21     1     1     2   501   512  1.569825622E+01  2.166335512E+01  1.016746562E+02  1.051354932E+02  0.000000000E+00  0.00000E+00  9.000E+00
#rwgt            1           1 -0.20665960658240115                3      218856           0
</event>
<event>
      5   9999  3.79277E-02  1.34771E+02 -1.00000E+00  1.18267E-01
      21    -1     0     0   502   501  0.000000000E+00  0.000000000E+00  9.103571714E+01  9.103571714E+01  0.000000000E+00  0.00000E+00  9.000E+00
      21    -1     0     0   511   502  0.000000000E+00  0.000000000E+00 -8.104010029E+02  8.104010029E+02  0.000000000E+00  0.00000E+00  9.000E+00
      25     1     1     2     0     0 -1.554790961E+02  1.046545227E+02 -4.142342985E+02  4.715308818E+02  1.250000000E+02  0.00000E+00  9.000E+00
      25     1     1     2     0     0  4.990704034E+01 -2.088285861E+01 -5.723157266E+01  1.477405136E+02  1.250000000E+02  0.00000E+00  9.000E+00
      21     1     1     2   511   501  1.055720557E+02 -8.377166409E+01 -2.478994147E+02  2.821653247E+02  2.697398305E-06  0.00000E+00  9.000E+00
#rwgt            1           1   4.9185837404104760E-002           3      219045           0
</event>
<event>
      5   9999  3.79277E-02  6.77663E+01 -1.00000E+00  1.31938E-01
      21    -1     0     0   502   512  0.000000000E+00  0.000000000E+00  1.631263429E+02  1.631263429E+02  0.000000000E+00  0.00000E+00  9.000E+00
      21    -1     0     0   501   502  0.000000000E+00  0.000000000E+00 -4.319268163E+02  4.319268163E+02  0.000000000E+00  0.00000E+00  9.000E+00
      25     1     1     2     0     0 -1.676282932E+01 -5.779561571E+01 -3.134232639E+02  3.427542385E+02  1.250000000E+02  0.00000E+00  9.000E+00
      25     1     1     2     0     0  3.705799845E+01  1.224514105E+02  4.536687074E+01  1.845285781E+02  1.250000000E+02  0.00000E+00  9.000E+00
      21     1     1     2   501   512 -2.029516913E+01 -6.465579477E+01 -7.440802412E-01  6.777034265E+01  9.750871747E-07  0.00000E+00  9.000E+00
#rwgt            1           1   3.9189851268085808E-002           3      219081           0
</event>
<event>
      5   9999  3.79277E-02  6.54870E+01 -1.00000E+00  1.32703E-01
      21    -1     0     0   502   511  0.000000000E+00  0.000000000E+00  6.617085452E+02  6.617085452E+02  0.000000000E+00  0.00000E+00  9.000E+00
      21    -1     0     0   501   502  0.000000000E+00  0.000000000E+00 -1.511329249E+02  1.511329249E+02  0.000000000E+00  0.00000E+00  9.000E+00
      25     1     1     2     0     0  1.689104233E+02  1.832676933E+02  1.794560611E+02  3.315829555E+02  1.250000000E+02  0.00000E+00  9.000E+00
      25     1     1     2     0     0 -1.064688054E+02 -1.635295162E+02  1.215204357E+02  2.616672037E+02  1.250000000E+02  0.00000E+00  9.000E+00
      21     1     1     2   501   511 -6.244161785E+01 -1.973817708E+01  2.095991235E+02  2.195913110E+02  2.697398305E-06  0.00000E+00  9.000E+00
#rwgt            1           1  0.36828462560169600                3      219213           0
</event>
<event>
      5   9999  3.79277E-02  2.10773E+01 -1.00000E+00  1.64511E-01
      21    -1     0     0   502   501  0.000000000E+00  0.000000000E+00  4.503591483E+01  4.503591483E+01  0.000000000E+00  0.00000E+00  9.000E+00
      21    -1     0     0   512   502  0.000000000E+00  0.000000000E+00 -9.915554893E+02  9.915554893E+02  0.000000000E+00  0.00000E+00  9.000E+00
      25     1     1     2     0     0  5.808660698E+01 -6.396769685E+01 -1.305612047E+02  2.003425774E+02  1.250000000E+02  0.00000E+00  9.000E+00
      25     1     1     2     0     0 -7.912372833E+01  6.526917297E+01 -7.048775096E+02  7.231859601E+02  1.250000000E+02  0.00000E+00  9.000E+00
      21     1     1     2   512   501  2.103712135E+01 -1.301476122E+00 -1.110808602E+02  1.130628666E+02  1.348699152E-06  0.00000E+00  9.000E+00
#rwgt            1           1   3.5565137653543244E-002           3      219504           0
</event>
<event>
      5   9999  3.79277E-02  4.38216E+01 -1.00000E+00  1.42425E-01
      21    -1     0     0   502   511  0.000000000E+00  0.000000000E+00  3.739879165E+02  3.739879165E+02  0.000000000E+00  0.00000E+00  9.000E+00
      21    -1     0     0   501   502  0.000000000E+00  0.000000000E+00 -4.153084711E+02  4.153084711E+02  0.000000000E+00  0.00000E+00  9.000E+00
      25     1     1     2     0     0 -2.220211834E+02 -9.964827018E+00  7.102354746E+01  2.646923648E+02  1.250000000E+02  0.00000E+00  9.000E+00
      25     1     1     2     0     0  2.632060336E+02  2.493624421E+01 -2.471255502E+02  3.828776175E+02  1.250000000E+02  0.00000E+00  9.000E+00
      21     1     1     2   501   511 -4.118485020E+01 -1.497141719E+01  1.347814481E+02  1.417264054E+02  2.697398305E-06  0.00000E+00  9.000E+00
#rwgt            1           1   2.3637855768674845E-002           3      219636           0
</event>
<event>
      5   9999  3.79277E-02  9.93948E+01 -1.00000E+00  1.23947E-01
      21    -1     0     0   502   501  0.000000000E+00  0.000000000E+00  3.789095935E+02  3.789095935E+02  0.000000000E+00  0.00000E+00  9.000E+00
      21    -1     0     0   512   502  0.000000000E+00  0.000000000E+00 -1.484213281E+02  1.484213281E+02  0.000000000E+00  0.00000E+00  9.000E+00
      25     1     1     2     0     0 -1.299713863E+02  2.290164543E+01  1.301539880E+02  2.235667847E+02  1.250000000E+02  0.00000E+00  9.000E+00
      25     1     1     2     0     0  1.163970332E+02  7.556186562E+01  7.438970227E+01  2.010390327E+02  1.250000000E+02  0.00000E+00  9.000E+00
      21     1     1     2   512   501  1.357435303E+01 -9.846351105E+01  2.594457508E+01  1.027251043E+02  7.539457465E-07  0.00000E+00  9.000E+00
#rwgt            1           1   2.9368212224061784E-002           3      219748           0
</event>
<event>
      5   9999  3.79277E-02  9.17103E+01 -1.00000E+00  1.25542E-01
      21    -1     0     0   502   501  0.000000000E+00  0.000000000E+00  4.757078622E+02  4.757078622E+02  0.000000000E+00  0.00000E+00  9.000E+00
      21    -1     0     0   511   502  0.000000000E+00  0.000000000E+00 -1.238784191E+02  1.238784191E+02  0.000000000E+00  0.00000E+00  9.000E+00
      25     1     1     2     0     0  9.540634562E+00  1.359156525E+02  2.455338469E+02  3.073694166E+02  1.250000000E+02  0.00000E+00  9.000E+00
      25     1     1     2     0     0  6.157589983E+01 -7.800861841E+01  1.196428708E+02  1.995403531E+02  1.250000000E+02  0.00000E+00  9.000E+00
      21     1     1     2   511   501 -7.111653439E+01 -5.790703411E+01 -1.334727461E+01  9.267651160E+01  7.725644944E-07  0.00000E+00  9.000E+00
#rwgt            1           1   4.1976134104339827E-002           3      219810           0
</event>
<event>
      5   9999  3.79277E-02  1.88576E+02 -1.00000E+00  1.12586E-01
      21    -1     0     0   502   501  0.000000000E+00  0.000000000E+00  3.059381337E+02  3.059381337E+02  0.000000000E+00  0.00000E+00  9.000E+00
       2    -1     0     0   501     0  0.000000000E+00  0.000000000E+00 -1.552265417E+03  1.552265417E+03  0.000000000E+00  0.00000E+00  9.000E+00
      25     1     1     2     0     0 -1.099521078E+02 -1.324557422E+02  1.494070439E+02  2.599643330E+02  1.250000000E+02  0.00000E+00  9.000E+00
      25     1     1     2     0     0  2.639567419E+02  2.362763132E+01 -1.334923893E+02  3.219885783E+02  1.250000000E+02  0.00000E+00  9.000E+00
       2     1     1     2   502     0 -1.540046341E+02  1.088281109E+02 -1.262241938E+03  1.276250640E+03  1.525878906E-05  0.00000E+00  9.000E+00
#rwgt            1           1   4.4153399966026019E-002           3      219861           0
</event>
<event>
      5   9999  3.79277E-02  7.26159E+01 -1.00000E+00  1.30419E-01
      21    -1     0     0   502   501  0.000000000E+00  0.000000000E+00  5.554117661E+02  5.554117661E+02  0.000000000E+00  0.00000E+00  9.000E+00
      21    -1     0     0   501   511  0.000000000E+00  0.000000000E+00 -8.829634718E+01  8.829634718E+01  0.000000000E+00  0.00000E+00  9.000E+00
      25     1     1     2     0     0  2.360217890E+01  6.428035398E+01  7.826999373E+01  1.626044854E+02  1.250000000E+02  0.00000E+00  9.000E+00
      25     1     1     2     0     0 -4.019796747E+01 -1.349743900E+02  3.530850733E+02  4.001600074E+02  1.250000000E+02  0.00000E+00  9.000E+00
      21     1     1     2   502   511  1.659578857E+01  7.069403598E+01  3.576035181E+01  8.094362040E+01  8.259061849E-07  0.00000E+00  9.000E+00
#rwgt            1           1   4.0460469455464845E-002           3      219930           0
</event>
<event>
      5   9999  3.79277E-02  1.64113E+01 -1.00000E+00  1.73782E-01
      21    -1     0     0   502   501  0.000000000E+00  0.000000000E+00  5.441088313E+02  5.441088313E+02  0.000000000E+00  0.00000E+00  9.000E+00
      21    -1     0     0   501   512  0.000000000E+00  0.000000000E+00 -5.396825501E+01  5.396825501E+01  0.000000000E+00  0.00000E+00  9.000E+00
      25     1     1     2     0     0 -2.006902426E+01 -4.231424016E+01  1.430395840E+02  1.956491330E+02  1.250000000E+02  0.00000E+00  9.000E+00
      25     1     1     2     0     0  1.543113077E+01  5.805653761E+01  3.571863360E+02  3.831654473E+02  1.250000000E+02  0.00000E+00  9.000E+00
      21     1     1     2   502   512  4.637893487E+00 -1.574229745E+01 -1.008534364E+01  1.926250610E+01  6.743495762E-07  0.00000E+00  9.000E+00
#rwgt            1           1   9.9973758728543916E-002           3      220098           0
</event>
<event>
      5   9999 -3.79277E-02  3.35630E+01 -1.00000E+00  1.49730E-01
      21    -1     0     0   502   501  0.000000000E+00  0.000000000E+00  6.807728702E+01  6.807728702E+01  0.000000000E+00  0.00000E+00  9.000E+00
      21    -1     0     0   511   502  0.000000000E+00  0.000000000E+00 -8.455876930E+02  8.455876930E+02  0.000000000E+00  0.00000E+00  9.000E+00
      25     1     1     2     0     0  1.282479779E+02 -1.327222558E+02 -3.528277259E+02  4.173429587E+02  1.250000000E+02  0.00000E+00  9.000E+00
      25     1     1     2     0     0 -1.022815348E+02  1.539876787E+02 -3.633214687E+02  4.263815277E+02  1.250000000E+02  0.00000E+00  9.000E+00
      21     1     1     2   511   501 -2.596644308E+01 -2.126542294E+01 -6.136121142E+01  6.994049361E+01  1.168007728E-06  0.00000E+00  9.000E+00
#rwgt            1           1  -2.0213946059141084E-002           3      220294           0
</event>
<event>
      5   9999  3.79277E-02  2.63070E+01 -1.00000E+00  1.57111E-01
      21    -1     0     0   502   512  0.000000000E+00  0.000000000E+00  6.667335875E+02  6.667335875E+02  0.000000000E+00  0.00000E+00  9.000E+00
      21    -1     0     0   501   502  0.000000000E+00  0.000000000E+00 -1.273183872E+02  1.273183872E+02  0.000000000E+00  0.00000E+00  9.000E+00
      25     1     1     2     0     0  9.054680898E+01 -1.048419304E+02  1.479918408E+02  2.381536057E+02  1.250000000E+02  0.00000E+00  9.000E+00
      25     1     1     2     0     0 -8.463263201E+01  7.920834571E+01  7.044413457E+00  1.706202456E+02  1.250000000E+02  0.00000E+00  9.000E+00
      21     1     1     2   501   512 -5.914176972E+00  2.563358470E+01  3.843789461E+02  3.852781234E+02  5.394796609E-06  0.00000E+00  9.000E+00
#rwgt            1           1   4.3787463908919994E-002           3      220401           0
</event>
<event>
      5   9999  3.79277E-02  4.49336E+01 -1.00000E+00  1.41776E-01
      21    -1     0     0   511   501  0.000000000E+00  0.000000000E+00  1.706295095E+03  1.706295095E+03  0.000000000E+00  0.00000E+00  9.000E+00
      21    -1     0     0   501   502  0.000000000E+00  0.000000000E+00 -4.810756446E+01  4.810756446E+01  0.000000000E+00  0.00000E+00  9.000E+00
      25     1     1     2     0     0 -1.327188658E+02  1.505849233E+02  3.565696902E+02  4.278516804E+02  1.250000000E+02  0.00000E+00  9.000E+00
      25     1     1     2     0     0  1.006533714E+02 -1.191074168E+02  8.730126476E+02  8.955968740E+02  1.250000000E+02  0.00000E+00  9.000E+00
      21     1     1     2   511   502  3.206549443E+01 -3.147750653E+01  4.286051930E+02  4.309541053E+02  0.000000000E+00  0.00000E+00  9.000E+00
#rwgt            1           1   3.5632504922251784E-002           3      220557           0
</event>
<event>
      5   9999 -3.79277E-02  9.19810E+01 -1.00000E+00  1.25483E-01
      21    -1     0     0   502   512  0.000000000E+00  0.000000000E+00  6.428934563E+02  6.428934563E+02  0.000000000E+00  0.00000E+00  9.000E+00
      21    -1     0     0   501   502  0.000000000E+00  0.000000000E+00 -1.864642024E+02  1.864642024E+02  0.000000000E+00  0.00000E+00  9.000E+00
      25     1     1     2     0     0  6.826992528E+01  2.018188771E+02  2.455191123E+01  2.482326292E+02  1.250000000E+02  0.00000E+00  9.000E+00
      25     1     1     2     0     0 -1.594794382E+02 -2.137068639E+02  3.549571278E+02  4.612199882E+02  1.250000000E+02  0.00000E+00  9.000E+00
      21     1     1     2   501   512  9.120951292E+01  1.188798682E+01  7.692021486E+01  1.199050413E+02  1.348699152E-06  0.00000E+00  9.000E+00
#rwgt            1           1 -0.30874220125274165                3      220782           0
</event>
<event>
      5   9999  3.79277E-02  4.99978E+00 -1.00000E+00  2.42549E-01
      21    -1     0     0   511   501  0.000000000E+00  0.000000000E+00  1.106299825E+03  1.106299825E+03  0.000000000E+00  0.00000E+00  9.000E+00
      21    -1     0     0   501   502  0.000000000E+00  0.000000000E+00 -3.063945182E+01  3.063945182E+01  0.000000000E+00  0.00000E+00  9.000E+00
      25     1     1     2     0     0 -2.537752913E+01 -1.057982935E+02  3.155746614E+02  3.564402682E+02  1.250000000E+02  0.00000E+00  9.000E+00
      25     1     1     2     0     0  2.365284344E+01  1.104911886E+02  6.915971813E+02  7.118282244E+02  1.250000000E+02  0.00000E+00  9.000E+00
      21     1     1     2   511   502  1.724685694E+00 -4.692895075E+00  6.848853075E+01  6.867078454E+01  0.000000000E+00  0.00000E+00  9.000E+00
#rwgt            1           1   4.3408445633591627E-002           3      220872           0
</event>
<event>
      5   9999  3.79277E-02  3.48018E+01 -1.00000E+00  1.48692E-01
      21    -1     0     0   502   501  0.000000000E+00  0.000000000E+00  3.594899254E+02  3.594899254E+02  0.000000000E+00  0.00000E+00  9.000E+00
      21    -1     0     0   512   502  0.000000000E+00  0.000000000E+00 -1.835783638E+02  1.835783638E+02  0.000000000E+00  0.00000E+00  9.000E+00
      25     1     1     2     0     0 -5.544448095E+01  1.592436039E+02  2.292355593E+02  3.108159544E+02  1.250000000E+02  0.00000E+00  9.000E+00
      25     1     1     2     0     0  5.753306699E+01 -1.245045368E+02 -6.326529787E+01  1.960584897E+02  1.250000000E+02  0.00000E+00  9.000E+00
      21     1     1     2   512   501 -2.088586033E+00 -3.473906709E+01  9.941300254E+00  3.619384512E+01  5.960464478E-07  0.00000E+00  9.000E+00
#rwgt            1           1   4.7628678227105606E-002           3      221252           0
</event>
<event>
      5   9999  3.79277E-02  4.76028E+01 -1.00000E+00  1.40304E-01
      21    -1     0     0   502   501  0.000000000E+00  0.000000000E+00  8.115343286E+01  8.115343286E+01  0.000000000E+00  0.00000E+00  9.000E+00
      21    -1     0     0   511   502  0.000000000E+00  0.000000000E+00 -1.665449210E+03  1.665449210E+03  0.000000000E+00  0.00000E+00  9.000E+00
      25     1     1     2     0     0  7.213282456E+01  2.674541160E+00 -2.510042194E+02  2.895486413E+02  1.250000000E+02  0.00000E+00  9.000E+00
      25     1     1     2     0     0 -1.167610462E+02  1.388879638E+01 -5.840538688E+01  1.812794246E+02  1.250000000E+02  0.00000E+00  9.000E+00
      21     1     1     2   511   501  4.462822168E+01 -1.656333754E+01 -1.274886171E+03  1.275774577E+03  1.525878906E-05  0.00000E+00  9.000E+00
#rwgt            1           1   3.6585388762247574E-002           3      221488           0
</event>
<event>
      5   9999  3.79277E-02  4.73129E+01 -1.00000E+00  1.40458E-01
      21    -1     0     0   502   501  0.000000000E+00  0.000000000E+00  1.745716788E+02  1.745716788E+02  0.000000000E+00  0.00000E+00  9.000E+00
      21    -1     0     0   512   502  0.000000000E+00  0.000000000E+00 -1.709983772E+02  1.709983772E+02  0.000000000E+00  0.00000E+00  9.000E+00
      25     1     1     2     0     0  6.724894440E+01 -4.772765226E+01 -6.545898236E+00  1.498939562E+02  1.250000000E+02  0.00000E+00  9.000E+00
      25     1     1     2     0     0 -4.122977600E+01  8.211699868E+00  4.225219492E+01  1.384831196E+02  1.250000000E+02  0.00000E+00  9.000E+00
      21     1     1     2   512   501 -2.601916840E+01  3.951595239E+01 -3.213299501E+01  5.719298022E+01  4.768371582E-07  0.00000E+00  9.000E+00
#rwgt            1           1   4.3314499988002089E-002           3      221659           0
</event>
<event>
      5   9999  3.79277E-02  7.05949E+00 -1.00000E+00  2.15036E-01
      21    -1     0     0   511   501  0.000000000E+00  0.000000000E+00  2.567283871E+03  2.567283871E+03  0.000000000E+00  0.00000E+00  9.000E+00
      21    -1     0     0   501   502  0.000000000E+00  0.000000000E+00 -1.410140012E+01  1.410140012E+01  0.000000000E+00  0.00000E+00  9.000E+00
      25     1     1     2     0     0  8.574247001E+00 -1.328614485E+02  1.382479326E+03  1.394489071E+03  1.250000000E+02  0.00000E+00  9.000E+00
      25     1     1     2     0     0 -1.191614484E+01  1.390798172E+02  1.100386228E+03  1.116225802E+03  1.250000000E+02  0.00000E+00  9.000E+00
      21     1     1     2   511   502  3.341897835E+00 -6.218368740E+00  7.031691718E+01  7.067039856E+01  9.536743164E-07  0.00000E+00  9.000E+00
#rwgt            1           1   5.7385753003531999E-002           3      221746           0
</event>
<event>
      5   9999  3.79277E-02  6.95678E+01 -1.00000E+00  1.31357E-01
      21    -1     0     0   502   501  0.000000000E+00  0.000000000E+00  7.011764234E+02  7.011764234E+02  0.000000000E+00  0.00000E+00  9.000E+00
      21    -1     0     0   501   512  0.000000000E+00  0.000000000E+00 -1.237486638E+02  1.237486638E+02  0.000000000E+00  0.00000E+00  9.000E+00
      25     1     1     2     0     0  1.261031482E+02 -1.101628158E+02  2.293326633E+02  3.102520272E+02  1.250000000E+02  0.00000E+00  9.000E+00
      25     1     1     2     0     0 -1.277790474E+02  4.061517255E+01  3.917683754E+02  4.325327006E+02  1.250000000E+02  0.00000E+00  9.000E+00
      21     1     1     2   502   512  1.675899250E+00  6.954764323E+01 -4.367327914E+01  8.214035931E+01  0.000000000E+00  0.00000E+00  9.000E+00
#rwgt            1           1   3.8348245370550871E-002           3      222063           0
</event>
<event>
      5   9999  3.79277E-02  8.23441E+00 -1.00000E+00  2.06044E-01
      21    -1     0     0   502   511  0.000000000E+00  0.000000000E+00  2.016510877E+02  2.016510877E+02  0.000000000E+00  0.00000E+00  9.000E+00
      21    -1     0     0   501   502  0.000000000E+00  0.000000000E+00 -3.849266091E+02  3.849266091E+02  0.000000000E+00  0.00000E+00  9.000E+00
      25     1     1     2     0     0 -5.683428969E+01  2.475689346E+01  1.491391263E+02  2.042315334E+02  1.250000000E+02  0.00000E+00  9.000E+00
      25     1     1     2     0     0  5.091199286E+01 -1.903571406E+01 -3.429090739E+02  3.690068053E+02  1.250000000E+02  0.00000E+00  9.000E+00
      21     1     1     2   501   511  5.922296823E+00 -5.721179396E+00  1.049442616E+01  1.333935808E+01  2.064765462E-07  0.00000E+00  9.000E+00
#rwgt            1           1   2.3408584388973943E-002           3      222407           0
</event>
<event>
      5   9999  3.79277E-02  5.41801E+01 -1.00000E+00  1.37115E-01
       1    -1     0     0   502     0  0.000000000E+00  0.000000000E+00  1.460294607E+03  1.460294607E+03  0.000000000E+00  0.00000E+00  9.000E+00
      21    -1     0     0   501   502  0.000000000E+00  0.000000000E+00 -1.424962829E+02  1.424962829E+02  0.000000000E+00  0.00000E+00  9.000E+00
      25     1     1     2     0     0 -1.640677324E+01  1.478963232E+02  3.059053492E+02  3.624163177E+02  1.250000000E+02  0.00000E+00  9.000E+00
      25     1     1     2     0     0  5.232027818E+01 -1.073290917E+02 -4.775765393E+01  1.793397305E+02  1.250000000E+02  0.00000E+00  9.000E+00
       1     1     1     2   501     0 -3.591350495E+01 -4.056723155E+01  1.059650628E+03  1.061034841E+03  1.525878906E-05  0.00000E+00  9.000E+00
#rwgt            1           1   4.4249895145576527E-002           3      222715           0
</event>
<event>
      5   9999  3.79277E-02  6.10354E+01 -1.00000E+00  1.34308E-01
      21    -1     0     0   502   501  0.000000000E+00  0.000000000E+00  3.711171836E+02  3.711171836E+02  0.000000000E+00  0.00000E+00  9.000E+00
      21    -1     0     0   511   502  0.000000000E+00  0.000000000E+00 -1.443244847E+02  1.443244847E+02  0.000000000E+00  0.00000E+00  9.000E+00
      25     1     1     2     0     0 -1.374546421E+01 -8.419140088E+01 -1.423304094E+01  1.520023330E+02  1.250000000E+02  0.00000E+00  9.000E+00
      25     1     1     2     0     0 -4.676204209E+01  9.220158128E+01  2.536775020E+02  3.011064516E+02  1.250000000E+02  0.00000E+00  9.000E+00
      21     1     1     2   511   501  6.050750630E+01 -8.010180403E+00 -1.265176220E+01  6.233288374E+01  4.460403188E-07  0.00000E+00  9.000E+00
#rwgt            1           1   5.1541426963873392E-002           3      222916           0
</event>
<event>
      5   9999  3.79277E-02  9.47406E+01 -1.00000E+00  1.24893E-01
      21    -1     0     0   502   501  0.000000000E+00  0.000000000E+00  3.415350307E+02  3.415350307E+02  0.000000000E+00  0.00000E+00  9.000E+00
      21    -1     0     0   512   502  0.000000000E+00  0.000000000E+00 -2.408955807E+02  2.408955807E+02  0.000000000E+00  0.00000E+00  9.000E+00
      25     1     1     2     0     0  4.647954465E+01 -1.127108019E+02  2.168182773E+01  1.759521940E+02  1.250000000E+02  0.00000E+00  9.000E+00
      25     1     1     2     0     0 -4.929850931E+01  2.074094903E+02  1.490751900E+02  2.886129795E+02  1.250000000E+02  0.00000E+00  9.000E+00
      21     1     1     2   512   501  2.818964660E+00 -9.469868836E+01 -7.011756767E+01  1.178654378E+02  1.651812370E-06  0.00000E+00  9.000E+00
#rwgt            1           1   4.1611306886980060E-002           3      222996           0
</event>
<event>
      5   9999  3.79277E-02  4.15444E+01 -1.00000E+00  1.43827E-01
      21    -1     0     0   502   511  0.000000000E+00  0.000000000E+00  3.601729267E+02  3.601729267E+02  0.000000000E+00  0.00000E+00  9.000E+00
      21    -1     0     0   501   502  0.000000000E+00  0.000000000E+00 -5.258044076E+02  5.258044076E+02  0.000000000E+00  0.00000E+00  9.000E+00
      25     1     1     2     0     0 -1.704261836E+02 -1.080683377E+01 -2.413707386E+02  3.210088864E+02  1.250000000E+02  0.00000E+00  9.000E+00
      25     1     1     2     0     0  1.813448530E+02 -2.927710450E+01 -1.922266143E+02  2.938012522E+02  1.250000000E+02  0.00000E+00  9.000E+00
      21     1     1     2   501   511 -1.091866935E+01  4.008393827E+01  2.679658720E+02  2.711671957E+02  3.814697266E-06  0.00000E+00  9.000E+00
#rwgt            1           1   3.9407466031728330E-002           3      223107           0
</event>
<event>
      5   9999  3.79277E-02  1.40916E+02 -1.00000E+00  1.17479E-01
      21    -1     0     0   502   501  0.000000000E+00  0.000000000E+00  1.163880304E+03  1.163880304E+03  0.000000000E+00  0.00000E+00  9.000E+00
      21    -1     0     0   512   502  0.000000000E+00  0.000000000E+00 -2.661377035E+02  2.661377035E+02  0.000000000E+00  0.00000E+00  9.000E+00
      25     1     1     2     0     0  2.800702976E+01 -1.344440187E+02  3.736012988E+02  4.172080037E+02  1.250000000E+02  0.00000E+00  9.000E+00
      25     1     1     2     0     0  1.054339262E+02  8.915769393E+01  7.355368083E+02  7.587521358E+02  1.250000000E+02  0.00000E+00  9.000E+00
      21     1     1     2   512   501 -1.334409560E+02  4.528632475E+01 -2.113955068E+02  2.540578679E+02  3.814697266E-06  0.00000E+00  9.000E+00
#rwgt            2          11   1.1552137491225627E-002           3      223333           0
</event>
<event>
      5   9999  3.79277E-02  1.98733E+01 -1.00000E+00  1.66597E-01
      21    -1     0     0   502   501  0.000000000E+00  0.000000000E+00  1.967118683E+02  1.967118683E+02  0.000000000E+00  0.00000E+00  9.000E+00
      21    -1     0     0   501   511  0.000000000E+00  0.000000000E+00 -8.240086286E+02  8.240086286E+02  0.000000000E+00  0.00000E+00  9.000E+00
      25     1     1     2     0     0  3.222879899E+01 -7.175304833E+01  1.245197411E+02  1.931770207E+02  1.250000000E+02  0.00000E+00  9.000E+00
      25     1     1     2     0     0 -4.402299692E+01  5.575790190E+01 -9.932547130E+01  1.747498702E+02  1.250000000E+02  0.00000E+00  9.000E+00
      21     1     1     2   502   511  1.179419793E+01  1.599514642E+01 -6.524910300E+02  6.527936060E+02  7.629394531E-06  0.00000E+00  9.000E+00
#rwgt            1           1   5.0888914653217987E-002           3      223353           0
</event>
<event>
      5   9999  3.79277E-02  5.80852E+01 -1.00000E+00  1.35460E-01
      21    -1     0     0   502   512  0.000000000E+00  0.000000000E+00  2.051080899E+03  2.051080899E+03  0.000000000E+00  0.00000E+00  9.000E+00
      21    -1     0     0   501   502  0.000000000E+00  0.000000000E+00 -4.730551319E+01  4.730551319E+01  0.000000000E+00  0.00000E+00  9.000E+00
      25     1     1     2     0     0 -1.183054954E+02  2.849550850E+01  8.555083813E+02  8.731138383E+02  1.250000000E+02  0.00000E+00  9.000E+00
      25     1     1     2     0     0  1.735581237E+02 -1.057801947E+01  2.678097521E+02  3.429014146E+02  1.250000000E+02  0.00000E+00  9.000E+00
      21     1     1     2   501   512 -5.525262833E+01 -1.791748903E+01  8.804572528E+02  8.823711597E+02  1.078959322E-05  0.00000E+00  9.000E+00
#rwgt            1           1   1.2283812637060784E-002           3      223459           0
</event>
<event>
      5   9999  3.79277E-02  6.80893E+01 -1.00000E+00  1.31832E-01
      21    -1     0     0   502   511  0.000000000E+00  0.000000000E+00  1.909081630E+02  1.909081630E+02  0.000000000E+00  0.00000E+00  9.000E+00
      21    -1     0     0   501   502  0.000000000E+00  0.000000000E+00 -1.038590111E+03  1.038590111E+03  0.000000000E+00  0.00000E+00  9.000E+00
      25     1     1     2     0     0  1.395183454E+02  8.552244990E+01 -5.649044248E+02  6.012665526E+02  1.250000000E+02  0.00000E+00  9.000E+00
      25     1     1     2     0     0 -8.574234576E+01 -1.272872706E+02 -4.259496125E+02  4.696933803E+02  1.250000000E+02  0.00000E+00  9.000E+00
      21     1     1     2   501   511 -5.377599964E+01  4.176482074E+01  1.431720894E+02  1.585383410E+02  4.672030912E-06  0.00000E+00  9.000E+00
#rwgt            1           1   2.7798412506877236E-002           3      223553           0
</event>
<event>
      5   9999  3.79277E-02  8.44780E+01 -1.00000E+00  1.27215E-01
      21    -1     0     0   502   501  0.000000000E+00  0.000000000E+00  2.377297309E+03  2.377297309E+03  0.000000000E+00  0.00000E+00  9.000E+00
      21    -1     0     0   512   502  0.000000000E+00  0.000000000E+00 -4.663066770E+01  4.663066770E+01  0.000000000E+00  0.00000E+00  9.000E+00
      25     1     1     2     0     0 -1.670444013E+02  2.957073161E+01  1.340318822E+03  1.356782151E+03  1.250000000E+02  0.00000E+00  9.000E+00
      25     1     1     2     0     0  2.490493331E+02 -4.986154387E+01  8.999332320E+02  9.434068931E+02  1.250000000E+02  0.00000E+00  9.000E+00
      21     1     1     2   512   501 -8.200493180E+01  2.029081226E+01  9.041458742E+01  1.237389329E+02  2.861022949E-06  0.00000E+00  9.000E+00
#rwgt            1           1   6.6184374323088310E-002           3      223649           0
</event>
<event>
      5   9999  3.79277E-02  1.42963E+01 -1.00000E+00  1.79372E-01
      21    -1     0     0   502   501  0.000000000E+00  0.000000000E+00  4.964013039E+02  4.964013039E+02  0.000000000E+00  0.00000E+00  9.000E+00
      21    -1     0     0   511   502  0.000000000E+00  0.000000000E+00 -1.623221118E+02  1.623221118E+02  0.000000000E+00  0.00000E+00  9.000E+00
      25     1     1     2     0     0 -9.761669586E+01  2.024653166E+02  9.394143003E+01  2.738087216E+02  1.250000000E+02  0.00000E+00  9.000E+00
      25     1     1     2     0     0  8.336731953E+01 -2.013080971E+02  2.592904700E+02  3.610146919E+02  1.250000000E+02  0.00000E+00  9.000E+00
      21     1     1     2   511   501  1.424937633E+01 -1.157219487E+00 -1.915270796E+01  2.390000219E+01  3.371747881E-07  0.00000E+00  9.000E+00
#rwgt            1           1   1.5073314834441151E-002           3      223794           0
</event>
<event>
      5   9999  3.79277E-02  8.52056E+01 -1.00000E+00  1.27038E-01
      21    -1     0     0   502   501  0.000000000E+00  0.000000000E+00  3.587886499E+02  3.587886499E+02  0.000000000E+00  0.00000E+00  9.000E+00
      21    -1     0     0   501   512  0.000000000E+00  0.000000000E+00 -1.809572504E+02  1.809572504E+02  0.000000000E+00  0.00000E+00  9.000E+00
      25     1     1     2     0     0 -8.393041153E+00 -2.884482397E+01 -4.521555052E+01  1.362788062E+02  1.250000000E+02  0.00000E+00  9.000E+00
      25     1     1     2     0     0  9.359565654E+01  2.955730588E+01  2.646058838E+02  3.086665757E+02  1.250000000E+02  0.00000E+00  9.000E+00
      21     1     1     2   502   512 -8.520261539E+01 -7.124819092E-01 -4.155893378E+01  9.480051833E+01  1.507891493E-06  0.00000E+00  9.000E+00
#rwgt            1           1   5.1484486978797366E-002           3      224172           0
</event>
<event>
      5   9999  3.79277E-02  1.15816E+01 -1.00000E+00  1.88663E-01
      21    -1     0     0   511   501  0.000000000E+00  0.000000000E+00  8.550738351E+01  8.550738351E+01  0.000000000E+00  0.00000E+00  9.000E+00
      21    -1     0     0   501   502  0.000000000E+00  0.000000000E+00 -3.727036594E+02  3.727036594E+02  0.000000000E+00  0.00000E+00  9.000E+00
      25     1     1     2     0     0  1.035608489E+02 -4.620707214E+01 -1.737324151E+02  2.422145640E+02  1.250000000E+02  0.00000E+00  9.000E+00
      25     1     1     2     0     0 -1.001623067E+02  3.513534024E+01 -1.195255586E+02  2.029244662E+02  1.250000000E+02  0.00000E+00  9.000E+00
      21     1     1     2   511   502 -3.398542166E+00  1.107173190E+01  6.061697819E+00  1.307201272E+01  1.192092896E-07  0.00000E+00  9.000E+00
#rwgt            1           1   3.6301362991576283E-002           3      224307           0
</event>
<event>
      5   9999  3.79277E-02  3.06506E+01 -1.00000E+00  1.52395E-01
      -4    -1     0     0     0   501  0.000000000E+00  0.000000000E+00  1.916897455E+02  1.916897455E+02  0.000000000E+00  0.00000E+00  9.000E+00
      21    -1     0     0   501   502  0.000000000E+00  0.000000000E+00 -3.746503512E+02  3.746503512E+02  0.000000000E+00  0.00000E+00  9.000E+00
      25     1     1     2     0     0 -2.135375251E+02  5.421084539E+01 -1.225408975E+02  2.813864992E+02  1.250000000E+02  0.00000E+00  9.000E+00
      25     1     1     2     0     0  1.957251470E+02 -7.915435476E+01 -4.123824177E+01  2.487957750E+02  1.250000000E+02  0.00000E+00  9.000E+00
      -4     1     1     2     0   502  1.781237802E+01  2.494350938E+01 -1.918146645E+01  3.615782247E+01  6.743495762E-07  0.00000E+00  9.000E+00
#rwgt            1           1   8.3116063390466927E-002           3      224561           0
</event>
<event>
      5   9999  3.79277E-02  2.11050E+01 -1.00000E+00  1.64465E-01
      21    -1     0     0   511   501  0.000000000E+00  0.000000000E+00  1.784223688E+02  1.784223688E+02  0.000000000E+00  0.00000E+00  9.000E+00
      21    -1     0     0   501   502  0.000000000E+00  0.000000000E+00 -2.270136720E+02  2.270136720E+02  0.000000000E+00  0.00000E+00  9.000E+00
      25     1     1     2     0     0 -8.095132753E+01 -4.726733760E+01  9.826440710E+00  1.565531142E+02  1.250000000E+02  0.00000E+00  9.000E+00
      25     1     1     2     0     0  8.407144898E+01  2.639428912E+01 -1.131362902E+02  1.902353468E+02  1.250000000E+02  0.00000E+00  9.000E+00
      21     1     1     2   511   502 -3.120121448E+00  2.087304847E+01  5.471854628E+01  5.864757980E+01  0.000000000E+00  0.00000E+00  9.000E+00
#rwgt            1           1   4.7817333817505310E-002           3      224666           0
</event>
<event>
      5   9999  3.79277E-02  5.24231E+01 -1.00000E+00  1.37913E-01
      21    -1     0     0   502   501  0.000000000E+00  0.000000000E+00  5.793935002E+01  5.793935002E+01  0.000000000E+00  0.00000E+00  9.000E+00
      21    -1     0     0   501   512  0.000000000E+00  0.000000000E+00 -1.000175797E+03  1.000175797E+03  0.000000000E+00  0.00000E+00  9.000E+00
      25     1     1     2     0     0 -3.202436757E+01 -1.387735990E+02 -2.806720840E+02  3.386524629E+02  1.250000000E+02  0.00000E+00  9.000E+00
      25     1     1     2     0     0  5.729037030E+01  1.847063162E+02 -5.453676643E+02  5.919877524E+02  1.250000000E+02  0.00000E+00  9.000E+00
      21     1     1     2   502   512 -2.526600273E+01 -4.593271721E+01 -1.161966983E+02  1.274749313E+02  1.907348633E-06  0.00000E+00  9.000E+00
#rwgt            1           1   3.7940991441535378E-002           3      224766           0
</event>
<event>
      5   9999  3.79277E-02  4.30106E+01 -1.00000E+00  1.42912E-01
      21    -1     0     0   511   501  0.000000000E+00  0.000000000E+00  9.798617685E+01  9.798617685E+01  0.000000000E+00  0.00000E+00  9.000E+00
      21    -1     0     0   501   502  0.000000000E+00  0.000000000E+00 -7.239711240E+02  7.239711240E+02  0.000000000E+00  0.00000E+00  9.000E+00
      25     1     1     2     0     0  1.150996255E+02 -1.443078011E+01 -1.719179975E+02  2.421507156E+02  1.250000000E+02  0.00000E+00  9.000E+00
      25     1     1     2     0     0 -1.144910495E+02  5.743702760E+01 -4.913217623E+02  5.229046631E+02  1.250000000E+02  0.00000E+00  9.000E+00
      21     1     1     2   511   502 -6.085759706E-01 -4.300624749E+01  3.725481261E+01  5.690192220E+01  1.261592536E-06  0.00000E+00  9.000E+00
#rwgt            1           1  0.13001342889706208                3      224981           0
</event>
<event>
      5   9999  3.79277E-02  2.16072E+02 -1.00000E+00  1.10440E-01
      21    -1     0     0   502   501  0.000000000E+00  0.000000000E+00  4.129072154E+02  4.129072154E+02  0.000000000E+00  0.00000E+00  9.000E+00
       1    -1     0     0   501     0  0.000000000E+00  0.000000000E+00 -1.717804066E+03  1.717804066E+03  0.000000000E+00  0.00000E+00  9.000E+00
      25     1     1     2     0     0  2.557819462E+02  5.664063932E+01  1.007187562E+02  3.072488143E+02  1.250000000E+02  0.00000E+00  9.000E+00
      25     1     1     2     0     0 -4.144227700E+02 -2.033386432E+02 -8.555733530E+01  4.858373120E+02  1.250000000E+02  0.00000E+00  9.000E+00
       1     1     1     2   502     0  1.586408238E+02  1.466980039E+02 -1.320058271E+03  1.337625155E+03  1.525878906E-05  0.00000E+00  9.000E+00
#rwgt            1           1   3.7304071281586165E-002           3      225070           0
</event>
<event>
      5   9999  3.79277E-02  3.75659E+01 -1.00000E+00  1.46552E-01
      21    -1     0     0   511   501  0.000000000E+00  0.000000000E+00  2.949152682E+02  2.949152682E+02  0.000000000E+00  0.00000E+00  9.000E+00
      21    -1     0     0   501   502  0.000000000E+00  0.000000000E+00 -1.217676243E+02  1.217676243E+02  0.000000000E+00  0.00000E+00  9.000E+00
      25     1     1     2     0     0 -9.652347013E+00 -5.389424051E+01 -3.958448272E+01  1.420904227E+02  1.250000000E+02  0.00000E+00  9.000E+00
      25     1     1     2     0     0  3.106533973E+01  2.302868385E+01  1.336244413E+02  1.870183598E+02  1.250000000E+02  0.00000E+00  9.000E+00
      21     1     1     2   511   502 -2.141299272E+01  3.086555665E+01  7.910768530E+01  8.757410986E+01  0.000000000E+00  0.00000E+00  9.000E+00
#rwgt            1           1   4.0402041703106240E-002           3      225195           0
</event>
<event>
      5   9999  3.79277E-02  2.16617E+01 -1.00000E+00  1.63559E-01
      21    -1     0     0   502   512  0.000000000E+00  0.000000000E+00  4.436856305E+03  4.436856305E+03  0.000000000E+00  0.00000E+00  9.000E+00
      21    -1     0     0   501   502  0.000000000E+00  0.000000000E+00 -1.314753722E+01  1.314753722E+01  0.000000000E+00  0.00000E+00  9.000E+00
      25     1     1     2     0     0 -8.876795522E+01  1.246224494E+02  1.096833613E+03  1.114486195E+03  1.250000000E+02  0.00000E+00  9.000E+00
      25     1     1     2     0     0  8.583994267E+01 -1.460853590E+02  2.671584463E+03  2.679869021E+03  1.250000000E+02  0.00000E+00  9.000E+00
      21     1     1     2   501   512  2.928012547E+00  2.146290954E+01  6.552906920E+02  6.556486260E+02  7.629394531E-06  0.00000E+00  9.000E+00
#rwgt            1           1   7.5365305310164396E-003           3      225394           0
</event>
<event>
      5   9999  3.79277E-02  9.90729E+00 -1.00000E+00  1.96226E-01
      21    -1     0     0   502   501  0.000000000E+00  0.000000000E+00  4.382019488E+02  4.382019488E+02  0.000000000E+00  0.00000E+00  9.000E+00
      21    -1     0     0   501   511  0.000000000E+00  0.000000000E+00 -2.071699393E+02  2.071699393E+02  0.000000000E+00  0.00000E+00  9.000E+00
      25     1     1     2     0     0 -1.229012769E+02  7.481486191E+01 -1.014440612E+02  2.159117527E+02  1.250000000E+02  0.00000E+00  9.000E+00
      25     1     1     2     0     0  1.319139598E+02 -7.892898582E+01  3.540509173E+02  4.057192744E+02  1.250000000E+02  0.00000E+00  9.000E+00
      21     1     1     2   502   511 -9.012682913E+00  4.114123909E+00 -2.157484664E+01  2.374086090E+01  4.129530925E-07  0.00000E+00  9.000E+00
#rwgt            1           1   2.1785885799987886E-002           3      225584           0
</event>
<event>
      5   9999  3.79277E-02  2.89643E+02 -1.00000E+00  1.06090E-01
      21    -1     0     0   502   512  0.000000000E+00  0.000000000E+00  5.469566656E+02  5.469566656E+02  0.000000000E+00  0.00000E+00  9.000E+00
      21    -1     0     0   501   502  0.000000000E+00  0.000000000E+00 -5.911785444E+02  5.911785444E+02  0.000000000E+00  0.00000E+00  9.000E+00
      25     1     1     2     0     0  2.561467543E+02  1.498261078E+02  1.310617888E+02  3.476509957E+02  1.250000000E+02  0.00000E+00  9.000E+00
      25     1     1     2     0     0 -1.433206939E+02  1.169382032E+02 -3.765660281E+02  4.377697319E+02  1.250000000E+02  0.00000E+00  9.000E+00
      21     1     1     2   501   512 -1.128260604E+02 -2.667643109E+02  2.012823604E+02  3.527144824E+02  3.814697266E-06  0.00000E+00  9.000E+00
#rwgt            1           1   4.4787995793476691E-002           3      225809           0
</event>
<event>
      5   9999  3.79277E-02  1.41066E+02 -1.00000E+00  1.17460E-01
      21    -1     0     0   511   501  0.000000000E+00  0.000000000E+00  2.824800833E+02  2.824800833E+02  0.000000000E+00  0.00000E+00  9.000E+00
      21    -1     0     0   501   502  0.000000000E+00  0.000000000E+00 -2.852786433E+02  2.852786433E+02  0.000000000E+00  0.00000E+00  9.000E+00
      25     1     1     2     0     0  4.366139798E+01 -1.760742617E+01 -1.304224800E+02  1.866851960E+02  1.250000000E+02  0.00000E+00  9.000E+00
      25     1     1     2     0     0 -3.178184235E+01  1.581721336E+02  2.287566571E+01  2.053699234E+02  1.250000000E+02  0.00000E+00  9.000E+00
      21     1     1     2   511   502 -1.187955563E+01 -1.405647074E+02  1.047482543E+02  1.757036072E+02  2.697398305E-06  0.00000E+00  9.000E+00
#rwgt            1           1   2.5912828714294785E-002           3      225991           0
</event>
<event>
      5   9999  3.79277E-02  2.65717E+01 -1.00000E+00  1.56793E-01
      21    -1     0     0   512   501  0.000000000E+00  0.000000000E+00  2.266289663E+02  2.266289663E+02  0.000000000E+00  0.00000E+00  9.000E+00
      21    -1     0     0   501   502  0.000000000E+00  0.000000000E+00 -1.973045982E+02  1.973045982E+02  0.000000000E+00  0.00000E+00  9.000E+00
      25     1     1     2     0     0  8.445386872E+01  8.107579809E+01  9.731140490E+01  1.969777919E+02  1.250000000E+02  0.00000E+00  9.000E+00
      25     1     1     2     0     0 -1.108986386E+02 -7.848216331E+01 -7.532252900E+01  1.993901737E+02  1.250000000E+02  0.00000E+00  9.000E+00
      21     1     1     2   512   502  2.644476987E+01 -2.593634780E+00  7.335492249E+00  2.756559888E+01  5.462855929E-07  0.00000E+00  9.000E+00
#rwgt            1           1   3.9054960935504368E-002           3      226246           0
</event>
<event>
      5   9999  3.79277E-02  3.84638E+01 -1.00000E+00  1.45903E-01
      21    -1     0     0   502   501  0.000000000E+00  0.000000000E+00  3.149733120E+02  3.149733120E+02  0.000000000E+00  0.00000E+00  9.000E+00
      21    -1     0     0   511   502  0.000000000E+00  0.000000000E+00 -1.688993248E+02  1.688993248E+02  0.000000000E+00  0.00000E+00  9.000E+00
      25     1     1     2     0     0  6.961565615E+01  1.289318758E+02 -1.769590562E+01  1.934112542E+02  1.250000000E+02  0.00000E+00  9.000E+00
      25     1     1     2     0     0 -3.449945142E+01 -1.446264438E+02  1.602852914E+02  2.518400187E+02  1.250000000E+02  0.00000E+00  9.000E+00
      21     1     1     2   511   501 -3.511620473E+01  1.569456796E+01  3.484601456E+00  3.862136385E+01  7.300048300E-08  0.00000E+00  9.000E+00
#rwgt            1           1   3.8756245845428139E-002           3      226389           0
</event>
<event>
      5   9999  3.79277E-02  1.64847E+01 -1.00000E+00  1.73607E-01
      21    -1     0     0   502   501  0.000000000E+00  0.000000000E+00  2.485852835E+02  2.485852835E+02  0.000000000E+00  0.00000E+00  9.000E+00
       2    -1     0     0   501     0  0.000000000E+00  0.000000000E+00 -1.675150683E+03  1.675150683E+03  0.000000000E+00  0.00000E+00  9.000E+00
      25     1     1     2     0     0  7.450835029E+01 -7.343748759E+00 -5.887788363E+01  1.571528876E+02  1.250000000E+02  0.00000E+00  9.000E+00
      25     1     1     2     0     0 -7.846594972E+01 -8.658795386E+00  1.720008525E+02  2.268064665E+02  1.250000000E+02  0.00000E+00  9.000E+00
       2     1     1     2   502     0  3.957599436E+00  1.600254415E+01 -1.539688368E+03  1.539776612E+03  2.157918644E-05  0.00000E+00  9.000E+00
#rwgt            1           1   3.5678730482398696E-002           3      226528           0
</event>
<event>
      5   9999  3.79277E-02  6.45867E+01 -1.00000E+00  1.33016E-01
      21    -1     0     0   502   511  0.000000000E+00  0.000000000E+00  3.877145567E+02  3.877145567E+02  0.000000000E+00  0.00000E+00  9.000E+00
      21    -1     0     0   501   502  0.000000000E+00  0.000000000E+00 -1.564158964E+02  1.564158964E+02  0.000000000E+00  0.00000E+00  9.000E+00
      25     1     1     2     0     0  1.434564573E+02 -2.892235718E+01 -1.305516294E+00  1.924654833E+02  1.250000000E+02  0.00000E+00  9.000E+00
      25     1     1     2     0     0 -1.449024683E+02 -3.564819734E+01  1.445375139E+02  2.424533197E+02  1.250000000E+02  0.00000E+00  9.000E+00
      21     1     1     2   501   511  1.446011072E+00  6.457055452E+01  8.806666261E+01  1.092116501E+02  9.536743164E-07  0.00000E+00  9.000E+00
#rwgt            1           1   2.9884551374593591E-002           3      226691           0
</event>
<event>
      5   9999  3.79277E-02  2.87810E+01 -1.00000E+00  1.54302E-01
      21    -1     0     0   502   501  0.000000000E+00  0.000000000E+00  1.165735482E+02  1.165735482E+02  0.000000000E+00  0.00000E+00  9.000E+00
      21    -1     0     0   501   512  0.000000000E+00  0.000000000E+00 -6.638357943E+02  6.638357943E+02  0.000000000E+00  0.00000E+00  9.000E+00
      25     1     1     2     0     0  4.121088863E+01  1.173075656E+02 -1.328583184E+01  1.768075667E+02  1.250000000E+02  0.00000E+00  9.000E+00
      25     1     1     2     0     0 -2.881232225E+01 -9.133413157E+01 -1.465692069E+02  2.151269530E+02  1.250000000E+02  0.00000E+00  9.000E+00
      21     1     1     2   502   512 -1.239856638E+01 -2.597343407E+01 -3.874072073E+02  3.884748229E+02  7.629394531E-06  0.00000E+00  9.000E+00
#rwgt            1           1   6.2598244847224441E-002           3      226955           0
</event>
<event>
      5   9999  3.79277E-02  3.92118E+01 -1.00000E+00  1.45378E-01
      21    -1     0     0   502   501  0.000000000E+00  0.000000000E+00  4.673555000E+01  4.673555000E+01  0.000000000E+00  0.00000E+00  9.000E+00
      21    -1     0     0   501   511  0.000000000E+00  0.000000000E+00 -1.038942147E+03  1.038942147E+03  0.000000000E+00  0.00000E+00  9.000E+00
      25     1     1     2     0     0 -1.999263114E+01  1.434603882E+02 -5.266580374E+02  5.603340760E+02  1.250000000E+02  0.00000E+00  9.000E+00
      25     1     1     2     0     0 -1.806915300E+01 -1.528874049E+02 -3.377477780E+02  3.916626283E+02  1.250000000E+02  0.00000E+00  9.000E+00
      21     1     1     2   502   511  3.806178413E+01  9.427016703E+00 -1.278007818E+02  1.336809930E+02  1.348699152E-06  0.00000E+00  9.000E+00
#rwgt            1           1   4.0692896565415138E-002           3      227155           0
</event>
<event>
      5   9999  3.79277E-02  1.30519E+01 -1.00000E+00  1.83271E-01
      21    -1     0     0   502   501  0.000000000E+00  0.000000000E+00  1.693579189E+02  1.693579189E+02  0.000000000E+00  0.00000E+00  9.000E+00
      21    -1     0     0   512   502  0.000000000E+00  0.000000000E+00 -4.093610898E+02  4.093610898E+02  0.000000000E+00  0.00000E+00  9.000E+00
      25     1     1     2     0     0  1.733573250E+02 -4.279022389E+01 -1.090265990E+02  2.437120528E+02  1.250000000E+02  0.00000E+00  9.000E+00
      25     1     1     2     0     0 -1.701916772E+02  3.012803981E+01 -1.021999878E+01  2.135470771E+02  1.250000000E+02  0.00000E+00  9.000E+00
      21     1     1     2   512   501 -3.165647799E+00  1.266218407E+01 -1.207565730E+02  1.214598788E+02  1.348699152E-06  0.00000E+00  9.000E+00
#rwgt            1           1   2.9375508120894001E-002           3      227301           0
</event>
<event>
      5   9999  3.79277E-02  2.59623E+01 -1.00000E+00  1.57532E-01
      21    -1     0     0   502   511  0.000000000E+00  0.000000000E+00  6.438061344E+02  6.438061344E+02  0.000000000E+00  0.00000E+00  9.000E+00
      21    -1     0     0   501   502  0.000000000E+00  0.000000000E+00 -1.219868161E+02  1.219868161E+02  0.000000000E+00  0.00000E+00  9.000E+00
      25     1     1     2     0     0 -1.638236195E+02  1.054135527E+02  1.335748402E+02  2.672404036E+02  1.250000000E+02  0.00000E+00  9.000E+00
      25     1     1     2     0     0  1.431851736E+02 -8.966243289E+01  1.483162899E+02  2.572237696E+02  1.250000000E+02  0.00000E+00  9.000E+00
      21     1     1     2   501   511  2.063844589E+01 -1.575111985E+01  2.399281882E+02  2.413287772E+02  0.000000000E+00  0.00000E+00  9.000E+00
#rwgt            1           1   3.7893176516722180E-002           3      227535           0
</event>
<event>
      5   9999  3.79277E-02  2.87654E+01 -1.00000E+00  1.54318E-01
      21    -1     0     0   502   512  0.000000000E+00  0.000000000E+00  6.823432689E+01  6.823432689E+01  0.000000000E+00  0.00000E+00  9.000E+00
      21    -1     0     0   501   502  0.000000000E+00  0.000000000E+00 -1.684288375E+03  1.684288375E+03  0.000000000E+00  0.00000E+00  9.000E+00
      25     1     1     2     0     0  3.779600869E+01 -1.146681565E+02 -9.205823763E+02  9.368426954E+02  1.250000000E+02  0.00000E+00  9.000E+00
      25     1     1     2     0     0 -9.415640592E+00  1.099775682E+02 -7.422570454E+02  7.607589903E+02  1.250000000E+02  0.00000E+00  9.000E+00
      21     1     1     2   501   512 -2.838036810E+01  4.690588330E+00  4.678537325E+01  5.492101658E+01  2.861022949E-06  0.00000E+00  9.000E+00
#rwgt            1           1   3.6584936105438733E-002           3      227831           0
</event>
<event>
      5   9999  3.79277E-02  1.68160E+01 -1.00000E+00  1.72832E-01
      21    -1     0     0   502   511  0.000000000E+00  0.000000000E+00  5.313818940E+01  5.313818940E+01  0.000000000E+00  0.00000E+00  9.000E+00
      21    -1     0     0   501   502  0.000000000E+00  0.000000000E+00 -1.111564785E+03  1.111564785E+03  0.000000000E+00  0.00000E+00  9.000E+00
      25     1     1     2     0     0 -8.999230844E+01  3.653348253E+01 -9.448757345E+02  9.580440828E+02  1.250000000E+02  0.00000E+00  9.000E+00
      25     1     1     2     0     0  9.054270128E+01 -1.972647840E+01 -1.056456891E+02  1.880774477E+02  1.250000000E+02  0.00000E+00  9.000E+00
      21     1     1     2   501   511 -5.503928359E-01 -1.680700413E+01 -7.905172330E+00  1.858144423E+01  6.583548198E-07  0.00000E+00  9.000E+00
#rwgt            1           1   8.6483186612518859E-002           3      227965           0
</event>
<event>
      5   9999  3.79277E-02  2.76638E+01 -1.00000E+00  1.55526E-01
      21    -1     0     0   502   501  0.000000000E+00  0.000000000E+00  4.107516645E+01  4.107516645E+01  0.000000000E+00  0.00000E+00  9.000E+00
      21    -1     0     0   512   502  0.000000000E+00  0.000000000E+00 -8.078271885E+02  8.078271885E+02  0.000000000E+00  0.00000E+00  9.000E+00
      25     1     1     2     0     0 -8.954124216E+01  3.557824866E+00 -2.739330968E+02  3.141570207E+02  1.250000000E+02  0.00000E+00  9.000E+00
      25     1     1     2     0     0  1.016633384E+02 -2.842423899E+01 -3.166792660E+02  3.564465307E+02  1.250000000E+02  0.00000E+00  9.000E+00
      21     1     1     2   512   501 -1.212209621E+01  2.486641413E+01 -1.761396592E+02  1.782988035E+02  0.000000000E+00  0.00000E+00  9.000E+00
#rwgt            1           1   4.6310921763880138E-002           3      228201           0
</event>
<event>
      5   9999  3.79277E-02  2.24424E+01 -1.00000E+00  1.62344E-01
      21    -1     0     0   502   501  0.000000000E+00  0.000000000E+00  7.217973272E+02  7.217973272E+02  0.000000000E+00  0.00000E+00  9.000E+00
      21    -1     0     0   511   502  0.000000000E+00  0.000000000E+00 -5.378462840E+01  5.378462840E+01  0.000000000E+00  0.00000E+00  9.000E+00
      25     1     1     2     0     0 -1.349939125E+02 -4.746625901E+00  3.455685280E+02  3.915207459E+02  1.250000000E+02  0.00000E+00  9.000E+00
      25     1     1     2     0     0  1.362160059E+02 -1.766247522E+01  2.952267474E+02  3.487844545E+02  1.250000000E+02  0.00000E+00  9.000E+00
      21     1     1     2   511   501 -1.222093428E+00  2.240910112E+01  2.721742333E+01  3.527675521E+01  3.371747881E-07  0.00000E+00  9.000E+00
#rwgt            1           1   4.0404987416116020E-002           3      228344           0
</event>
<event>
      5   9999  3.79277E-02  1.62681E+01 -1.00000E+00  1.74126E-01
      21    -1     0     0   512   501  0.000000000E+00  0.000000000E+00  1.552009891E+02  1.552009891E+02  0.000000000E+00  0.00000E+00  9.000E+00
      21    -1     0     0   501   502  0.000000000E+00  0.000000000E+00 -2.862368375E+02  2.862368375E+02  0.000000000E+00  0.00000E+00  9.000E+00
      25     1     1     2     0     0  1.828879187E+01 -6.258927067E+01 -1.949655634E+02  2.406002237E+02  1.250000000E+02  0.00000E+00  9.000E+00
      25     1     1     2     0     0 -1.988316268E+01  4.639946502E+01 -6.425599850E-02  1.348082143E+02  1.250000000E+02  0.00000E+00  9.000E+00
      21     1     1     2   512   502  1.594370807E+00  1.618980565E+01  6.399397110E+01  6.602938863E+01  1.168007728E-06  0.00000E+00  9.000E+00
#rwgt            1           1   3.1358277487394802E-002           3      228447           0
</event>
<event>
      5   9999  3.79277E-02  2.23811E+02 -1.00000E+00  1.09898E-01
      21    -1     0     0   502   511  0.000000000E+00  0.000000000E+00  2.251258314E+02  2.251258314E+02  0.000000000E+00  0.00000E+00  9.000E+00
      21    -1     0     0   501   502  0.000000000E+00  0.000000000E+00 -4.976230980E+02  4.976230980E+02  0.000000000E+00  0.00000E+00  9.000E+00
      25     1     1     2     0     0 -1.130481420E+02 -3.539002865E+01 -2.783255629E+02  3.272956699E+02  1.250000000E+02  0.00000E+00  9.000E+00
      25     1     1     2     0     0 -8.468782765E+01 -6.945220636E+01  3.472752166E+01  1.697840920E+02  1.250000000E+02  0.00000E+00  9.000E+00
      21     1     1     2   501   511  1.977359697E+02  1.048422350E+02 -2.889922538E+01  2.256691675E+02  2.132480600E-06  0.00000E+00  9.000E+00
#rwgt            1           1   3.1671689269370557E-002           3      228548           0
</event>
<event>
      5   9999 -3.79277E-02  6.11915E+01 -1.00000E+00  1.34249E-01
      21    -1     0     0   512   501  0.000000000E+00  0.000000000E+00  4.426551055E+02  4.426551055E+02  0.000000000E+00  0.00000E+00  9.000E+00
      21    -1     0     0   501   502  0.000000000E+00  0.000000000E+00 -2.701534938E+02  2.701534938E+02  0.000000000E+00  0.00000E+00  9.000E+00
      25     1     1     2     0     0  9.988448112E+01 -1.271423885E+02 -7.929013030E+00  2.045237536E+02  1.250000000E+02  0.00000E+00  9.000E+00
      25     1     1     2     0     0 -1.368181662E+02  1.759307372E+02 -5.808153027E+01  2.620482762E+02  1.250000000E+02  0.00000E+00  9.000E+00
      21     1     1     2   512   502  3.693368513E+01 -4.878834866E+01  2.385121551E+02  2.462365695E+02  3.814697266E-06  0.00000E+00  9.000E+00
#rwgt            1           1  -9.5368716954496391E-002           3      228621           0
</event>
<event>
      5   9999  3.79277E-02  1.00758E+02 -1.00000E+00  1.23681E-01
      21    -1     0     0   502   501  0.000000000E+00  0.000000000E+00  4.689146183E+02  4.689146183E+02  0.000000000E+00  0.00000E+00  9.000E+00
      21    -1     0     0   511   502  0.000000000E+00  0.000000000E+00 -2.434800595E+02  2.434800595E+02  0.000000000E+00  0.00000E+00  9.000E+00
      25     1     1     2     0     0  1.935461843E+02 -9.733336273E-01  5.069425453E+01  2.359151973E+02  1.250000000E+02  0.00000E+00  9.000E+00
      25     1     1     2     0     0 -1.063289483E+02 -4.947719177E+01  2.815658028E+02  3.296333403E+02  1.250000000E+02  0.00000E+00  9.000E+00
      21     1     1     2   511   501 -8.721723608E+01  5.045052540E+01 -1.068254985E+02  1.468461403E+02  2.336015456E-06  0.00000E+00  9.000E+00
#rwgt            1           1   3.7009297578248335E-002           3      228727           0
</event>
<event>
      5   9999  3.79277E-02  2.01848E+01 -1.00000E+00  1.66040E-01
       5    -1     0     0   502     0  0.000000000E+00  0.000000000E+00  1.368343763E+03  1.368343763E+03  0.000000000E+00  0.00000E+00  9.000E+00
      21    -1     0     0   501   502  0.000000000E+00  0.000000000E+00 -8.066336331E+01  8.066336331E+01  0.000000000E+00  0.00000E+00  9.000E+00
      25     1     1     2     0     0 -1.030916777E+02  5.604733327E+01  4.038194479E+01  1.761388629E+02  1.250000000E+02  0.00000E+00  9.000E+00
      25     1     1     2     0     0  1.085218899E+02 -3.660671901E+01  5.559441690E+02  5.812193833E+02  1.250000000E+02  0.00000E+00  9.000E+00
       5     1     1     2   501     0 -5.430212269E+00 -1.944061425E+01  6.913542854E+02  6.916488796E+02  1.321449896E-05  0.00000E+00  9.000E+00
#rwgt            1           1   4.4227857544867702E-002           3      228779           0
</event>
<event>
      5   9999  3.79277E-02  3.60402E+01 -1.00000E+00  1.47705E-01
      21    -1     0     0   502   501  0.000000000E+00  0.000000000E+00  7.833447648E+01  7.833447648E+01  0.000000000E+00  0.00000E+00  9.000E+00
       3    -1     0     0   501     0  0.000000000E+00  0.000000000E+00 -7.038354739E+02  7.038354739E+02  0.000000000E+00  0.00000E+00  9.000E+00
      25     1     1     2     0     0  1.738926586E+02 -4.762017197E+01 -3.909236414E+02  4.482774040E+02  1.250000000E+02  0.00000E+00  9.000E+00
      25     1     1     2     0     0 -1.431852676E+02  6.648686469E+01 -1.938593262E+02  2.795155852E+02  1.250000000E+02  0.00000E+00  9.000E+00
       3     1     1     2   502     0 -3.070739104E+01 -1.886669271E+01 -4.071802981E+01  5.437696121E+01  6.743495762E-07  0.00000E+00  9.000E+00
#rwgt            1           1   5.2387994594414273E-003           3      228943           0
</event>
<event>
      5   9999  3.79277E-02  1.12366E+02 -1.00000E+00  1.21592E-01
      21    -1     0     0   511   501  0.000000000E+00  0.000000000E+00  1.503844900E+02  1.503844900E+02  0.000000000E+00  0.00000E+00  9.000E+00
      21    -1     0     0   501   502  0.000000000E+00  0.000000000E+00 -7.192848248E+02  7.192848248E+02  0.000000000E+00  0.00000E+00  9.000E+00
      25     1     1     2     0     0 -8.509425925E+01 -1.733003638E+02 -3.859754763E+02  4.493062624E+02  1.250000000E+02  0.00000E+00  9.000E+00
      25     1     1     2     0     0  1.912407701E+02  1.364343496E+02 -1.293957834E+02  2.958980105E+02  1.250000000E+02  0.00000E+00  9.000E+00
      21     1     1     2   511   502 -1.061465108E+02  3.686601424E+01 -5.352907510E+01  1.244650419E+02  9.536743164E-07  0.00000E+00  9.000E+00
#rwgt            1           1   9.0716724443580393E-002           3      229095           0
</event>
<event>
      5   9999  3.79277E-02  4.25056E+01 -1.00000E+00  1.43222E-01
      21    -1     0     0   502   512  0.000000000E+00  0.000000000E+00  5.171824862E+01  5.171824862E+01  0.000000000E+00  0.00000E+00  9.000E+00
      21    -1     0     0   501   502  0.000000000E+00  0.000000000E+00 -1.186494825E+03  1.186494825E+03  0.000000000E+00  0.00000E+00  9.000E+00
      25     1     1     2     0     0  4.007672817E+01 -4.831274327E+00 -7.474845560E+01  1.511350951E+02  1.250000000E+02  0.00000E+00  9.000E+00
      25     1     1     2     0     0 -2.483822264E+01 -3.484890433E+01 -1.020550956E+03  1.029067848E+03  1.250000000E+02  0.00000E+00  9.000E+00
      21     1     1     2   501   512 -1.523850554E+01  3.968017866E+01 -3.947716492E+01  5.801012998E+01  8.259061849E-07  0.00000E+00  9.000E+00
#rwgt            1           1   4.0616361425321622E-002           3      229177           0
</event>
<event>
      5   9999  3.79277E-02  9.29790E+00 -1.00000E+00  1.99484E-01
      21    -1     0     0   511   501  0.000000000E+00  0.000000000E+00  6.739662818E+01  6.739662818E+01  0.000000000E+00  0.00000E+00  9.000E+00
      21    -1     0     0   501   502  0.000000000E+00  0.000000000E+00 -5.516941435E+02  5.516941435E+02  0.000000000E+00  0.00000E+00  9.000E+00
      25     1     1     2     0     0  6.639397387E+01  1.147575027E+02 -1.860008092E+02  2.603819218E+02  1.250000000E+02  0.00000E+00  9.000E+00
      25     1     1     2     0     0 -7.485725853E+01 -1.186076547E+02 -2.928496271E+02  3.479328800E+02  1.250000000E+02  0.00000E+00  9.000E+00
      21     1     1     2   511   502  8.463284655E+00  3.850151960E+00 -5.447079120E+00  1.077596994E+01  2.858538343E-07  0.00000E+00  9.000E+00
#rwgt            1           1   2.7387155536070379E-002           3      229269           0
</event>
<event>
      5   9999  3.79277E-02  6.62865E+01 -1.00000E+00  1.32431E-01
      21    -1     0     0   502   501  0.000000000E+00  0.000000000E+00  1.020167073E+03  1.020167073E+03  0.000000000E+00  0.00000E+00  9.000E+00
      21    -1     0     0   501   512  0.000000000E+00  0.000000000E+00 -1.075771267E+03  1.075771267E+03  0.000000000E+00  0.00000E+00  9.000E+00
      25     1     1     2     0     0 -1.512421240E+02  9.247915651E+01  5.310203510E+02  5.736150169E+02  1.250000000E+02  0.00000E+00  9.000E+00
      25     1     1     2     0     0  1.580575172E+02 -2.654393679E+01  4.446596600E+02  4.889110068E+02  1.250000000E+02  0.00000E+00  9.000E+00
      21     1     1     2   502   512 -6.815393189E+00 -6.593521972E+01 -1.031284205E+03  1.033412316E+03  1.525878906E-05  0.00000E+00  9.000E+00
#rwgt            1           1   4.5930723576544152E-002           3      229540           0
</event>
<event>
      5   9999  3.79277E-02  5.77297E+01 -1.00000E+00  1.35605E-01
      21    -1     0     0   511   501  0.000000000E+00  0.000000000E+00  2.018723202E+03  2.018723202E+03  0.000000000E+00  0.00000E+00  9.000E+00
      21    -1     0     0   501   502  0.000000000E+00  0.000000000E+00 -1.876761080E+03  1.876761080E+03  0.000000000E+00  0.00000E+00  9.000E+00
      25     1     1     2     0     0 -1.469139972E+02 -1.202480419E+01 -4.059680939E+02  4.496258575E+02  1.250000000E+02  0.00000E+00  9.000E+00
      25     1     1     2     0     0  1.240818580E+02  6.504750983E+01 -1.442461474E+03  1.454629709E+03  1.250000000E+02  0.00000E+00  9.000E+00
      21     1     1     2   511   502  2.283213923E+01 -5.302270564E+01  1.990391691E+03  1.991228715E+03  2.157918644E-05  0.00000E+00  9.000E+00
#rwgt            1           1   4.3510020454643500E-002           3      229622           0
</event>
<event>
      5   9999  3.79277E-02  1.20690E+02 -1.00000E+00  1.20263E-01
      21    -1     0     0   512   501  0.000000000E+00  0.000000000E+00  3.290609370E+01  3.290609370E+01  0.000000000E+00  0.00000E+00  9.000E+00
      21    -1     0     0   501   502  0.000000000E+00  0.000000000E+00 -2.269832971E+03  2.269832971E+03  0.000000000E+00  0.00000E+00  9.000E+00
      25     1     1     2     0     0 -2.934935252E+01  4.626957526E+01 -1.513426605E+03  1.519568145E+03  1.250000000E+02  0.00000E+00  9.000E+00
      25     1     1     2     0     0 -9.073737922E+01 -5.832459601E+01 -2.956957598E+02  3.386679980E+02  1.250000000E+02  0.00000E+00  9.000E+00
      21     1     1     2   512   502  1.200867317E+02  1.205502075E+01 -4.278045127E+02  4.445029221E+02  7.629394531E-06  0.00000E+00  9.000E+00
#rwgt            1           1   3.8823140636791521E-002           3      229682           0
</event>
<event>
      5   9999  3.79277E-02  6.77809E+01 -1.00000E+00  1.31933E-01
      21    -1     0     0   502   511  0.000000000E+00  0.000000000E+00  1.140337539E+02  1.140337539E+02  0.000000000E+00  0.00000E+00  9.000E+00
      21    -1     0     0   501   502  0.000000000E+00  0.000000000E+00 -1.559497777E+03  1.559497777E+03  0.000000000E+00  0.00000E+00  9.000E+00
      25     1     1     2     0     0  2.683967815E+02 -6.736446868E+01 -1.102493401E+03  1.143543398E+03  1.250000000E+02  0.00000E+00  9.000E+00
      25     1     1     2     0     0 -2.757292621E+02  1.347476336E+02 -3.131783487E+02  4.559487129E+02  1.250000000E+02  0.00000E+00  9.000E+00
      21     1     1     2   501   511  7.332480536E+00 -6.738316494E+01 -2.979227400E+01  7.403942043E+01  8.920806376E-07  0.00000E+00  9.000E+00
#rwgt            1           1   2.2037613634025264E-002           3      229730           0
</event>
<event>
      5   9999  3.79277E-02  4.22442E+01 -1.00000E+00  1.43385E-01
      21    -1     0     0   502   501  0.000000000E+00  0.000000000E+00  2.686259280E+02  2.686259280E+02  0.000000000E+00  0.00000E+00  9.000E+00
      21    -1     0     0   501   512  0.000000000E+00  0.000000000E+00 -2.307913596E+02  2.307913596E+02  0.000000000E+00  0.00000E+00  9.000E+00
      25     1     1     2     0     0 -1.900990843E+01  4.849272167E+00 -9.608791046E+01  1.588797614E+02  1.250000000E+02  0.00000E+00  9.000E+00
      25     1     1     2     0     0  4.903357627E+01 -3.456717879E+01  2.110960483E+02  2.525583558E+02  1.250000000E+02  0.00000E+00  9.000E+00
      21     1     1     2   502   512 -3.002366783E+01  2.971790662E+01 -7.717356948E+01  8.797917043E+01  0.000000000E+00  0.00000E+00  9.000E+00
#rwgt            1           1   3.8995665213618066E-002           3      229849           0
</event>
<event>
      5   9999  3.79277E-02  1.35518E+02 -1.00000E+00  1.18168E-01
      21    -1     0     0   502   501  0.000000000E+00  0.000000000E+00  1.343642882E+03  1.343642882E+03  0.000000000E+00  0.00000E+00  9.000E+00
      21    -1     0     0   501   511  0.000000000E+00  0.000000000E+00 -2.369057281E+02  2.369057281E+02  0.000000000E+00  0.00000E+00  9.000E+00
      25     1     1     2     0     0  7.447165274E+01 -2.543905793E+02  4.962837966E+02  5.763533644E+02  1.250000000E+02  0.00000E+00  9.000E+00
      25     1     1     2     0     0 -3.913890489E+01  1.235597029E+02  7.723518046E+02  7.930644136E+02  1.250000000E+02  0.00000E+00  9.000E+00
      21     1     1     2   502   511 -3.533274786E+01  1.308308764E+02 -1.618984470E+02  2.111308325E+02  3.303624740E-06  0.00000E+00  9.000E+00
#rwgt            1           1   2.8342848404191209E-002           3      229975           0
</event>
<event>
      5   9999  3.79277E-02  3.14224E+01 -1.00000E+00  1.51656E-01
      21    -1     0     0   512   501  0.000000000E+00  0.000000000E+00  6.986612993E+02  6.986612993E+02  0.000000000E+00  0.00000E+00  9.000E+00
      21    -1     0     0   501   502  0.000000000E+00  0.000000000E+00 -8.153242700E+01  8.153242700E+01  0.000000000E+00  0.00000E+00  9.000E+00
      25     1     1     2     0     0  4.328304231E+01 -1.165985595E+02  1.659481472E+02  2.421413500E+02  1.250000000E+02  0.00000E+00  9.000E+00
      25     1     1     2     0     0 -7.224124706E+01  1.044006357E+02  1.434954883E+02  2.287667932E+02  1.250000000E+02  0.00000E+00  9.000E+00
      21     1     1     2   512   502  2.895820475E+01  1.219792381E+01  3.076852368E+02  3.092855831E+02  5.394796609E-06  0.00000E+00  9.000E+00
#rwgt            1           1   4.1918440455049978E-002           3      230031           0
</event>
<event>
      5   9999  3.79277E-02  9.82677E+00 -1.00000E+00  1.96639E-01
      21    -1     0     0   502   501  0.000000000E+00  0.000000000E+00  7.259333937E+01  7.259333937E+01  0.000000000E+00  0.00000E+00  9.000E+00
      21    -1     0     0   511   502  0.000000000E+00  0.000000000E+00 -5.747273919E+02  5.747273919E+02  0.000000000E+00  0.00000E+00  9.000E+00
      25     1     1     2     0     0  1.252736078E+02  5.507967488E+01 -2.916373998E+02  3.455497364E+02  1.250000000E+02  0.00000E+00  9.000E+00
      25     1     1     2     0     0 -1.172412737E+02 -6.074068145E+01 -1.371012252E+02  2.277206459E+02  1.250000000E+02  0.00000E+00  9.000E+00
      21     1     1     2   511   501 -8.032334154E+00  5.661006568E+00 -7.339542752E+01  7.405034887E+01  1.348699152E-06  0.00000E+00  9.000E+00
#rwgt            1           1   3.7913165244668583E-002           3      230218           0
</event>
<event>
      5   9999  3.79277E-02  3.54954E+01 -1.00000E+00  1.48133E-01
      21    -1     0     0   502   501  0.000000000E+00  0.000000000E+00  2.501286711E+02  2.501286711E+02  0.000000000E+00  0.00000E+00  9.000E+00
       1    -1     0     0   501     0  0.000000000E+00  0.000000000E+00 -1.395492068E+03  1.395492068E+03  0.000000000E+00  0.00000E+00  9.000E+00
      25     1     1     2     0     0 -1.125777231E+02 -8.382669738E+01  7.520869091E+01  2.024401297E+02  1.250000000E+02  0.00000E+00  9.000E+00
      25     1     1     2     0     0  1.475582164E+02  7.780260009E+01  1.322809424E+01  2.088699459E+02  1.250000000E+02  0.00000E+00  9.000E+00
       1     1     1     2   502     0 -3.498049329E+01  6.024097290E+00 -1.233800182E+03  1.234310664E+03  2.157918644E-05  0.00000E+00  9.000E+00
#rwgt            1           1   3.7224784100962298E-002           3      230613           0
</event>
<event>
      5   9999  3.79277E-02  7.42936E+01 -1.00000E+00  1.29925E-01
      21    -1     0     0   511   501  0.000000000E+00  0.000000000E+00  4.107058997E+01  4.107058997E+01  0.000000000E+00  0.00000E+00  9.000E+00
      21    -1     0     0   501   502  0.000000000E+00  0.000000000E+00 -1.629532181E+03  1.629532181E+03  0.000000000E+00  0.00000E+00  9.000E+00
      25     1     1     2     0     0  1.331471316E+02  9.185592441E+01 -3.828304110E+02  4.339928492E+02  1.250000000E+02  0.00000E+00  9.000E+00
      25     1     1     2     0     0 -5.958004710E+01 -8.149111946E+01 -1.069712373E+03  1.081711674E+03  1.250000000E+02  0.00000E+00  9.000E+00
      21     1     1     2   511   502 -7.356708453E+01 -1.036480495E+01 -1.359188073E+02  1.548982481E+02  0.000000000E+00  0.00000E+00  9.000E+00
#rwgt            1           1   4.6399610941619013E-002           3      230776           0
</event>
<event>
      5   9999 -3.79277E-02  3.22936E+01 -1.00000E+00  1.50850E-01
      21    -1     0     0   502   501  0.000000000E+00  0.000000000E+00  6.427506316E+01  6.427506316E+01  0.000000000E+00  0.00000E+00  9.000E+00
      21    -1     0     0   501   512  0.000000000E+00  0.000000000E+00 -1.057321474E+03  1.057321474E+03  0.000000000E+00  0.00000E+00  9.000E+00
      25     1     1     2     0     0 -1.278721902E+02 -5.311793079E+00 -4.436298246E+02  4.783429036E+02  1.250000000E+02  0.00000E+00  9.000E+00
      25     1     1     2     0     0  1.468771369E+02 -2.079742029E+01 -1.571305621E+02  2.496406209E+02  1.250000000E+02  0.00000E+00  9.000E+00
      21     1     1     2   502   512 -1.900494672E+01  2.610921336E+01 -3.922860239E+02  3.936130125E+02  7.629394531E-06  0.00000E+00  9.000E+00
#rwgt            1           1 -0.18110586747946331                3      231034           0
</event>
<event>
      5   9999 -3.79277E-02  3.52470E+01 -1.00000E+00  1.48332E-01
      21    -1     0     0   502   501  0.000000000E+00  0.000000000E+00  9.050331818E+02  9.050331818E+02  0.000000000E+00  0.00000E+00  9.000E+00
      21    -1     0     0   511   502  0.000000000E+00  0.000000000E+00 -5.159113817E+01  5.159113817E+01  0.000000000E+00  0.00000E+00  9.000E+00
      25     1     1     2     0     0  2.373622643E+01  1.141681651E+02  2.012474916E+02  2.640517587E+02  1.250000000E+02  0.00000E+00  9.000E+00
      25     1     1     2     0     0 -5.444156463E+01 -1.314752874E+02  6.030505047E+02  6.320953618E+02  1.250000000E+02  0.00000E+00  9.000E+00
      21     1     1     2   511   501  3.070533820E+01  1.730712230E+01  4.914404731E+01  6.047719953E+01  1.348699152E-06  0.00000E+00  9.000E+00
#rwgt            1           1  -4.9236212682385497E-002           3      231295           0
</event>
<event>
      5   9999  3.79277E-02  6.69710E+00 -1.00000E+00  2.18305E-01
      21    -1     0     0   502   512  0.000000000E+00  0.000000000E+00  1.711528308E+02  1.711528308E+02  0.000000000E+00  0.00000E+00  9.000E+00
      21    -1     0     0   501   502  0.000000000E+00  0.000000000E+00 -1.384773306E+03  1.384773306E+03  0.000000000E+00  0.00000E+00  9.000E+00
      25     1     1     2     0     0 -1.083966572E+02  6.627501670E+01 -4.390644562E+02  4.738615935E+02  1.250000000E+02  0.00000E+00  9.000E+00
      25     1     1     2     0     0  1.019733893E+02 -6.817046562E+01 -9.199726863E+02  9.364937416E+02  1.250000000E+02  0.00000E+00  9.000E+00
      21     1     1     2   501   512  6.423267887E+00  1.895448919E+00  1.454166674E+02  1.455708015E+02  1.907348633E-06  0.00000E+00  9.000E+00
#rwgt            1           1   6.3571470079922060E-002           3      231450           0
</event>
<event>
      5   9999  3.79277E-02  4.78336E+01 -1.00000E+00  1.40182E-01
      -4    -1     0     0     0   501  0.000000000E+00  0.000000000E+00  2.007403138E+02  2.007403138E+02  0.000000000E+00  0.00000E+00  9.000E+00
      21    -1     0     0   501   502  0.000000000E+00  0.000000000E+00 -4.162682239E+02  4.162682239E+02  0.000000000E+00  0.00000E+00  9.000E+00
      25     1     1     2     0     0 -1.954433241E+02 -5.196361676E+01 -1.338808568E+02  2.728504979E+02  1.250000000E+02  0.00000E+00  9.000E+00
      25     1     1     2     0     0  1.546892036E+02  2.692050539E+01 -1.570658796E+02  2.548492768E+02  1.250000000E+02  0.00000E+00  9.000E+00
      -4     1     1     2     0   502  4.075412053E+01  2.504311137E+01  7.541882634E+01  8.930876291E+01  9.536743164E-07  0.00000E+00  9.000E+00
#rwgt            1           1   3.1514269037926847E-002           3      231750           0
</event>
<event>
      5   9999  3.79277E-02  5.15075E+01 -1.00000E+00  1.38343E-01
      21    -1     0     0   502   501  0.000000000E+00  0.000000000E+00  1.158794570E+03  1.158794570E+03  0.000000000E+00  0.00000E+00  9.000E+00
      21    -1     0     0   501   511  0.000000000E+00  0.000000000E+00 -5.753415340E+01  5.753415340E+01  0.000000000E+00  0.00000E+00  9.000E+00
      25     1     1     2     0     0 -1.317793990E+00  1.171015451E+02  8.201696925E+02  8.378650445E+02  1.250000000E+02  0.00000E+00  9.000E+00
      25     1     1     2     0     0  3.712164508E+01 -1.541300356E+02  2.261095947E+02  3.031247816E+02  1.250000000E+02  0.00000E+00  9.000E+00
      21     1     1     2   502   511 -3.580385109E+01  3.702849047E+01  5.498112989E+01  7.533889767E+01  6.743495762E-07  0.00000E+00  9.000E+00
#rwgt            1           1   4.3750542853421864E-002           3      231879           0
</event>
<event>
      5   9999  3.79277E-02  3.17295E+01 -1.00000E+00  1.51368E-01
      21    -1     0     0   502   501  0.000000000E+00  0.000000000E+00  2.630245809E+02  2.630245809E+02  0.000000000E+00  0.00000E+00  9.000E+00
      21    -1     0     0   501   512  0.000000000E+00  0.000000000E+00 -2.001146234E+02  2.001146234E+02  0.000000000E+00  0.00000E+00  9.000E+00
      25     1     1     2     0     0 -5.556389497E+01 -1.333510098E+01  2.037504597E+02  2.457731091E+02  1.250000000E+02  0.00000E+00  9.000E+00
      25     1     1     2     0     0  3.744233380E+01 -1.271047467E+01 -1.277148157E+02  1.830288466E+02  1.250000000E+02  0.00000E+00  9.000E+00
      21     1     1     2   502   512  1.812156117E+01  2.604557565E+01 -1.312568652E+01  3.433724853E+01  2.384185791E-07  0.00000E+00  9.000E+00
#rwgt            1           1   4.9676588869761076E-002           3      231969           0
</event>
<event>
      5   9999  3.79277E-02  3.41097E+01 -1.00000E+00  1.49265E-01
      21    -1     0     0   502   511  0.000000000E+00  0.000000000E+00  9.735762593E+02  9.735762593E+02  0.000000000E+00  0.00000E+00  9.000E+00
      21    -1     0     0   501   502  0.000000000E+00  0.000000000E+00 -4.971299199E+01  4.971299199E+01  0.000000000E+00  0.00000E+00  9.000E+00
      25     1     1     2     0     0 -1.265153557E+01  9.332155812E+01  2.955455951E+02  3.344266338E+02  1.250000000E+02  0.00000E+00  9.000E+00
      25     1     1     2     0     0  3.569234211E+01 -1.184729798E+02  2.322701478E+02  2.913489519E+02  1.250000000E+02  0.00000E+00  9.000E+00
      21     1     1     2   501   511 -2.304080654E+01  2.515142168E+01  3.960475244E+02  3.975136656E+02  0.000000000E+00  0.00000E+00  9.000E+00
#rwgt            1           1   3.7914805715127425E-002           3      232099           0
</event>
<event>
      5   9999  3.79277E-02  4.10895E+01 -1.00000E+00  1.44120E-01
      21    -1     0     0   502   501  0.000000000E+00  0.000000000E+00  1.789246603E+02  1.789246603E+02  0.000000000E+00  0.00000E+00  9.000E+00
       2    -1     0     0   501     0  0.000000000E+00  0.000000000E+00 -1.746237165E+03  1.746237165E+03  0.000000000E+00  0.00000E+00  9.000E+00
      25     1     1     2     0     0 -3.126877913E+02  1.035689814E+02 -6.399099725E+01  3.580782547E+02  1.250000000E+02  0.00000E+00  9.000E+00
      25     1     1     2     0     0  3.521682767E+02 -9.218326954E+01 -1.447319581E+03  1.497624526E+03  1.250000000E+02  0.00000E+00  9.000E+00
       2     1     1     2   502     0 -3.948048541E+01 -1.138571189E+01 -5.600192689E+01  6.945904534E+01  9.536743164E-07  0.00000E+00  9.000E+00
#rwgt            1           1   4.9238969437339339E-002           3      232330           0
</event>
<event>
      5   9999  3.79277E-02  1.08349E+02 -1.00000E+00  1.22282E-01
      21    -1     0     0   502   511  0.000000000E+00  0.000000000E+00  8.574590751E+02  8.574590751E+02  0.000000000E+00  0.00000E+00  9.000E+00
      21    -1     0     0   501   502  0.000000000E+00  0.000000000E+00 -4.495236396E+02  4.495236396E+02  0.000000000E+00  0.00000E+00  9.000E+00
      25     1     1     2     0     0 -3.652883265E+02  2.272496046E+02 -1.394374900E+02  4.691969287E+02  1.250000000E+02  0.00000E+00  9.000E+00
      25     1     1     2     0     0  3.705067640E+02 -1.190258669E+02  1.657289648E+02  4.410595299E+02  1.250000000E+02  0.00000E+00  9.000E+00
      21     1     1     2   501   511 -5.218437449E+00 -1.082237377E+02  3.816439608E+02  3.967262561E+02  5.394796609E-06  0.00000E+00  9.000E+00
#rwgt            1           1  0.59047269037221184                3      232488           0
</event>
<event>
      5   9999  3.79277E-02  5.72740E+01 -1.00000E+00  1.35791E-01
       3    -1     0     0   502     0  0.000000000E+00  0.000000000E+00  2.243782061E+02  2.243782061E+02  0.000000000E+00  0.00000E+00  9.000E+00
      21    -1     0     0   501   502  0.000000000E+00  0.000000000E+00 -1.795413460E+02  1.795413460E+02  0.000000000E+00  0.00000E+00  9.000E+00
      25     1     1     2     0     0  3.393662572E+01 -2.018965186E+01 -4.750428756E+01  1.394308931E+02  1.250000000E+02  0.00000E+00  9.000E+00
      25     1     1     2     0     0 -8.826393922E+01  2.055379795E+00  1.258466383E+02  1.981341059E+02  1.250000000E+02  0.00000E+00  9.000E+00
       3     1     1     2   501     0  5.432731351E+01  1.813427206E+01 -3.350549067E+01  6.635455313E+01  6.743495762E-07  0.00000E+00  9.000E+00
#rwgt            1           1   2.5444565512398293E-002           3      232564           0
</event>
<event>
      5   9999  3.79277E-02  5.21116E+01 -1.00000E+00  1.38058E-01
      21    -1     0     0   502   501  0.000000000E+00  0.000000000E+00  1.560115203E+02  1.560115203E+02  0.000000000E+00  0.00000E+00  9.000E+00
       3    -1     0     0   501     0  0.000000000E+00  0.000000000E+00 -3.887269949E+02  3.887269949E+02  0.000000000E+00  0.00000E+00  9.000E+00
      25     1     1     2     0     0  3.028025727E+01  7.391598517E+01 -1.757329745E+02  2.299729227E+02  1.250000000E+02  0.00000E+00  9.000E+00
      25     1     1     2     0     0  2.181037119E+01 -7.539499209E+01  8.022768177E+01  1.679927917E+02  1.250000000E+02  0.00000E+00  9.000E+00
       3     1     1     2   502     0 -5.209062846E+01  1.479006923E+00 -1.372101820E+02  1.467728009E+02  1.907348633E-06  0.00000E+00  9.000E+00
#rwgt            1           1   3.4222793985950246E-002           3      232617           0
</event>
<event>
      5   9999  3.79277E-02  1.20089E+02 -1.00000E+00  1.20355E-01
      21    -1     0     0   502   501  0.000000000E+00  0.000000000E+00  6.704495881E+02  6.704495881E+02  0.000000000E+00  0.00000E+00  9.000E+00
      21    -1     0     0   511   502  0.000000000E+00  0.000000000E+00 -4.854136932E+02  4.854136932E+02  0.000000000E+00  0.00000E+00  9.000E+00
      25     1     1     2     0     0  4.991735943E+02  1.514555487E+02  1.685883760E+02  5.622811583E+02  1.250000000E+02  0.00000E+00  9.000E+00
      25     1     1     2     0     0 -3.823990346E+02 -1.794726106E+02  9.424483495E+01  4.504958696E+02  1.250000000E+02  0.00000E+00  9.000E+00
      21     1     1     2   511   501 -1.167745596E+02  2.801706188E+01 -7.779731601E+01  1.430862534E+02  3.303624740E-06  0.00000E+00  9.000E+00
#rwgt            2          11   2.5817244279414432E-003           3      232777           0
</event>
<event>
      5   9999  3.79277E-02  3.95807E+01 -1.00000E+00  1.45125E-01
      21    -1     0     0   512   501  0.000000000E+00  0.000000000E+00  1.264966844E+02  1.264966844E+02  0.000000000E+00  0.00000E+00  9.000E+00
      21    -1     0     0   501   502  0.000000000E+00  0.000000000E+00 -7.546737184E+02  7.546737184E+02  0.000000000E+00  0.00000E+00  9.000E+00
      25     1     1     2     0     0 -8.432962916E+01 -5.136863101E+01 -3.680589425E+02  4.010518767E+02  1.250000000E+02  0.00000E+00  9.000E+00
      25     1     1     2     0     0  1.208653368E+02  6.659284695E+01 -3.418719965E+02  3.892871677E+02  1.250000000E+02  0.00000E+00  9.000E+00
      21     1     1     2   512   502 -3.653570762E+01 -1.522421594E+01  8.175390509E+01  9.083135846E+01  2.697398305E-06  0.00000E+00  9.000E+00
#rwgt            1           1  0.14798741319858133                3      232872           0
</event>
<event>
      5   9999  3.79277E-02  9.45590E+01 -1.00000E+00  1.24931E-01
      21    -1     0     0   502   511  0.000000000E+00  0.000000000E+00  6.568685454E+01  6.568685454E+01  0.000000000E+00  0.00000E+00  9.000E+00
      21    -1     0     0   501   502  0.000000000E+00  0.000000000E+00 -9.211420713E+02  9.211420713E+02  0.000000000E+00  0.00000E+00  9.000E+00
      25     1     1     2     0     0 -5.097516672E+01 -1.473591074E+01 -5.678257040E+02  5.838378583E+02  1.250000000E+02  0.00000E+00  9.000E+00
      25     1     1     2     0     0  1.057437413E+02 -6.234725966E+01 -2.399186959E+02  2.970772631E+02  1.250000000E+02  0.00000E+00  9.000E+00
      21     1     1     2   501   511 -5.476857460E+01  7.708317040E+01 -4.771081689E+01  1.059138044E+02  1.348699152E-06  0.00000E+00  9.000E+00
#rwgt            1           1   4.8682741378688554E-002           3      232976           0
</event>
<event>
      5   9999  3.79277E-02  1.07847E+02 -1.00000E+00  1.22370E-01
       2    -1     0     0   502     0  0.000000000E+00  0.000000000E+00  4.205138035E+02  4.205138035E+02  0.000000000E+00  0.00000E+00  9.000E+00
      21    -1     0     0   501   502  0.000000000E+00  0.000000000E+00 -8.156899469E+02  8.156899469E+02  0.000000000E+00  0.00000E+00  9.000E+00
      25     1     1     2     0     0  1.822113166E+02  2.196410994E+02 -9.596821344E+00  3.117054306E+02  1.250000000E+02  0.00000E+00  9.000E+00
      25     1     1     2     0     0 -7.931789417E+01 -1.873299425E+02 -6.211254606E+02  6.654364534E+02  1.250000000E+02  0.00000E+00  9.000E+00
       2     1     1     2   501     0 -1.028934225E+02 -3.231115694E+01  2.355461386E+02  2.590618664E+02  5.394796609E-06  0.00000E+00  9.000E+00
#rwgt            1           1   2.2824611096173789E-002           3      233122           0
</event>
<event>
      5   9999  3.79277E-02  6.22545E+01 -1.00000E+00  1.33853E-01
      21    -1     0     0   502   501  0.000000000E+00  0.000000000E+00  3.762340957E+02  3.762340957E+02  0.000000000E+00  0.00000E+00  9.000E+00
      21    -1     0     0   501   511  0.000000000E+00  0.000000000E+00 -8.342391626E+02  8.342391626E+02  0.000000000E+00  0.00000E+00  9.000E+00
      25     1     1     2     0     0  3.358805668E+02  3.743045397E+02 -4.381658024E+01  5.200620504E+02  1.250000000E+02  0.00000E+00  9.000E+00
      25     1     1     2     0     0 -2.996859356E+02 -3.236530244E+02 -2.668694194E+02  5.304783004E+02  1.250000000E+02  0.00000E+00  9.000E+00
      21     1     1     2   502   511 -3.619463119E+01 -5.065151523E+01 -1.473190672E+02  1.599329075E+02  1.907348633E-06  0.00000E+00  9.000E+00
#rwgt            1           1   8.3775464551892845E-002           3      233244           0
</event>
<event>
      5   9999  3.79277E-02  2.98576E+01 -1.00000E+00  1.53183E-01
      21    -1     0     0   502   501  0.000000000E+00  0.000000000E+00  3.561759803E+02  3.561759803E+02  0.000000000E+00  0.00000E+00  9.000E+00
      -2    -1     0     0     0   502  0.000000000E+00  0.000000000E+00 -1.088862892E+03  1.088862892E+03  0.000000000E+00  0.00000E+00  9.000E+00
      25     1     1     2     0     0  1.470853575E+02  1.416156992E+02 -3.774921208E-01  2.394039498E+02  1.250000000E+02  0.00000E+00  9.000E+00
      25     1     1     2     0     0 -1.467445517E+02 -1.117600305E+02  1.839183446E+02  2.889207942E+02  1.250000000E+02  0.00000E+00  9.000E+00
      -2     1     1     2     0   501 -3.408058674E-01 -2.985566867E+01 -9.162277645E+02  9.167141286E+02  1.078959322E-05  0.00000E+00  9.000E+00
#rwgt            1           1   3.8559492427619364E-002           3      233389           0
</event>
<event>
      5   9999  3.79277E-02  3.66309E+01 -1.00000E+00  1.47251E-01
       2    -1     0     0   502     0  0.000000000E+00  0.000000000E+00  1.839428765E+02  1.839428765E+02  0.000000000E+00  0.00000E+00  9.000E+00
      21    -1     0     0   501   502  0.000000000E+00  0.000000000E+00 -3.951360795E+02  3.951360795E+02  0.000000000E+00  0.00000E+00  9.000E+00
      25     1     1     2     0     0 -1.521966191E+02 -4.987391347E+01 -2.688529317E+02  3.369838527E+02  1.250000000E+02  0.00000E+00  9.000E+00
      25     1     1     2     0     0  1.293410542E+02  7.849989946E+01  3.597162496E+01  1.995251872E+02  1.250000000E+02  0.00000E+00  9.000E+00
       2     1     1     2   501     0  2.285556492E+01 -2.862598598E+01  2.168810366E+01  4.256991615E+01  0.000000000E+00  0.00000E+00  9.000E+00
#rwgt            1           1   4.7594519800741940E-002           3      233573           0
</event>
<event>
      5   9999  3.79277E-02  2.05544E+01 -1.00000E+00  1.65395E-01
       4    -1     0     0   502     0  0.000000000E+00  0.000000000E+00  3.862800325E+02  3.862800325E+02  0.000000000E+00  0.00000E+00  9.000E+00
      21    -1     0     0   501   502  0.000000000E+00  0.000000000E+00 -1.506216602E+03  1.506216602E+03  0.000000000E+00  0.00000E+00  9.000E+00
      25     1     1     2     0     0  9.556113092E+01  1.846254998E+02 -5.901349213E+02  6.380460252E+02  1.250000000E+02  0.00000E+00  9.000E+00
      25     1     1     2     0     0 -1.089745159E+02 -1.690510460E+02 -8.761011265E+02  9.075416713E+02  1.250000000E+02  0.00000E+00  9.000E+00
       4     1     1     2   501     0  1.341338503E+01 -1.557445384E+01  3.462994784E+02  3.469089379E+02  7.629394531E-06  0.00000E+00  9.000E+00
#rwgt            1           1   4.0860033363180170E-002           3      233706           0
</event>
<event>
      5   9999  3.79277E-02  1.11030E+02 -1.00000E+00  1.21818E-01
      21    -1     0     0   502   511  0.000000000E+00  0.000000000E+00  6.193526591E+02  6.193526591E+02  0.000000000E+00  0.00000E+00  9.000E+00
      21    -1     0     0   501   502  0.000000000E+00  0.000000000E+00 -1.571802138E+02  1.571802138E+02  0.000000000E+00  0.00000E+00  9.000E+00
      25     1     1     2     0     0 -1.505559785E+02  1.759072521E+02  3.339902880E+02  4.251881660E+02  1.250000000E+02  0.00000E+00  9.000E+00
      25     1     1     2     0     0  5.331282057E+01 -1.223211734E+02  1.434687490E+00  1.828436070E+02  1.250000000E+02  0.00000E+00  9.000E+00
      21     1     1     2   501   511  9.724315791E+01 -5.358607864E+01  1.267474698E+02  1.685010999E+02  2.336015456E-06  0.00000E+00  9.000E+00
#rwgt            1           1   3.0782817109890396E-002           3      234093           0
</event>
<event>
      5   9999  3.79277E-02  6.86422E+01 -1.00000E+00  1.31653E-01
      21    -1     0     0   502   501  0.000000000E+00  0.000000000E+00  1.123037913E+03  1.123037913E+03  0.000000000E+00  0.00000E+00  9.000E+00
      21    -1     0     0   501   512  0.000000000E+00  0.000000000E+00 -4.969407937E+01  4.969407937E+01  0.000000000E+00  0.00000E+00  9.000E+00
      25     1     1     2     0     0 -4.485086244E+01  1.593974423E+02  3.863516684E+02  4.385336431E+02  1.250000000E+02  0.00000E+00  9.000E+00
      25     1     1     2     0     0  8.944728005E+01 -1.072158703E+02  5.484295375E+02  5.795653685E+02  1.250000000E+02  0.00000E+00  9.000E+00
      21     1     1     2   502   512 -4.459641761E+01 -5.218157205E+01  1.385626276E+02  1.546329806E+02  0.000000000E+00  0.00000E+00  9.000E+00
#rwgt            1           1  0.26448831458100774                3      234163           0
</event>
<event>
      5   9999  3.79277E-02  1.30976E+02 -1.00000E+00  1.18777E-01
      21    -1     0     0   502   511  0.000000000E+00  0.000000000E+00  4.641266481E+02  4.641266481E+02  0.000000000E+00  0.00000E+00  9.000E+00
      21    -1     0     0   501   502  0.000000000E+00  0.000000000E+00 -5.437765370E+02  5.437765370E+02  0.000000000E+00  0.00000E+00  9.000E+00
      25     1     1     2     0     0 -2.712941636E+02  6.691855854E+00  1.040583897E+02  3.163833950E+02  1.250000000E+02  0.00000E+00  9.000E+00
      25     1     1     2     0     0  3.005042588E+02 -1.343691600E+02 -3.387194302E+02  4.885833942E+02  1.250000000E+02  0.00000E+00  9.000E+00
      21     1     1     2   501   511 -2.921009515E+01  1.276773042E+02  1.550111516E+02  2.029363959E+02  2.697398305E-06  0.00000E+00  9.000E+00
#rwgt            1           1   2.5509326975636043E-002           3      234225           0
</event>
<event>
      5   9999  3.79277E-02  4.03211E+01 -1.00000E+00  1.44625E-01
      21    -1     0     0   502   512  0.000000000E+00  0.000000000E+00  3.294981930E+02  3.294981930E+02  0.000000000E+00  0.00000E+00  9.000E+00
      21    -1     0     0   501   502  0.000000000E+00  0.000000000E+00 -2.542348364E+02  2.542348364E+02  0.000000000E+00  0.00000E+00  9.000E+00
      25     1     1     2     0     0 -1.223357624E+02  1.950325550E+02  3.371728872E+01  2.641317698E+02  1.250000000E+02  0.00000E+00  9.000E+00
      25     1     1     2     0     0  8.876719050E+01 -2.173695545E+02  6.338245616E+00  2.660720029E+02  1.250000000E+02  0.00000E+00  9.000E+00
      21     1     1     2   501   512  3.356857191E+01  2.233699956E+01  3.520782230E+01  5.352925668E+01  4.768371582E-07  0.00000E+00  9.000E+00
#rwgt            1           1  0.10022448985490336                3      234308           0
</event>
<event>
      5   9999  3.79277E-02  4.08809E+01 -1.00000E+00  1.44256E-01
      21    -1     0     0   502   501  0.000000000E+00  0.000000000E+00  1.576426290E+03  1.576426290E+03  0.000000000E+00  0.00000E+00  9.000E+00
       2    -1     0     0   501     0  0.000000000E+00  0.000000000E+00 -4.906097414E+01  4.906097414E+01  0.000000000E+00  0.00000E+00  9.000E+00
      25     1     1     2     0     0  1.761447560E+01 -1.712668847E+02  8.288297599E+02  8.557022767E+02  1.250000000E+02  0.00000E+00  9.000E+00
      25     1     1     2     0     0 -5.694313170E+01  1.824249890E+02  6.915938642E+02  7.283189342E+02  1.250000000E+02  0.00000E+00  9.000E+00
       2     1     1     2   502     0  3.932865610E+01 -1.115810431E+01  6.941691699E+00  4.146605318E+01  1.445335824E-06  0.00000E+00  9.000E+00
#rwgt            1           1   4.6738493481202778E-002           3      234461           0
</event>
<event>
      5   9999  3.79277E-02  6.03451E+00 -1.00000E+00  2.25086E-01
      21    -1     0     0   502   501  0.000000000E+00  0.000000000E+00  1.287384395E+02  1.287384395E+02  0.000000000E+00  0.00000E+00  9.000E+00
      21    -1     0     0   511   502  0.000000000E+00  0.000000000E+00 -1.561536942E+03  1.561536942E+03  0.000000000E+00  0.00000E+00  9.000E+00
      25     1     1     2     0     0 -2.396697703E+02 -1.873952128E+02 -5.756478400E+02  6.629886879E+02  1.250000000E+02  0.00000E+00  9.000E+00
      25     1     1     2     0     0  2.455953377E+02  1.862537342E+02 -2.401327506E+02  4.102392732E+02  1.250000000E+02  0.00000E+00  9.000E+00
      21     1     1     2   511   501 -5.925567361E+00  1.141478661E+00 -6.170179118E+02  6.170474203E+02  1.078959322E-05  0.00000E+00  9.000E+00
#rwgt            1           1   3.8480232425634357E-002           3      234559           0
</event>
<event>
      5   9999  3.79277E-02  1.02264E+02 -1.00000E+00  1.23392E-01
      -3    -1     0     0     0   501  0.000000000E+00  0.000000000E+00  1.065815786E+03  1.065815786E+03  0.000000000E+00  0.00000E+00  9.000E+00
      21    -1     0     0   501   502  0.000000000E+00  0.000000000E+00 -1.065104015E+02  1.065104015E+02  0.000000000E+00  0.00000E+00  9.000E+00
      25     1     1     2     0     0  6.985006829E+01 -1.329710876E+02  3.844413073E+01  1.991564545E+02  1.250000000E+02  0.00000E+00  9.000E+00
      25     1     1     2     0     0 -1.030493695E+02  3.624612930E+01  2.906636245E+02  3.347286917E+02  1.250000000E+02  0.00000E+00  9.000E+00
      -3     1     1     2     0   502  3.319930124E+01  9.672495830E+01  6.301976290E+02  6.384410409E+02  0.000000000E+00  0.00000E+00  9.000E+00
#rwgt            1           1   4.6007359504077944E-002           3      235089           0
</event>
<event>
      5   9999  3.79277E-02  1.91308E+01 -1.00000E+00  1.67977E-01
      21    -1     0     0   502   511  0.000000000E+00  0.000000000E+00  1.670094580E+02  1.670094580E+02  0.000000000E+00  0.00000E+00  9.000E+00
      21    -1     0     0   501   502  0.000000000E+00  0.000000000E+00 -2.855398583E+02  2.855398583E+02  0.000000000E+00  0.00000E+00  9.000E+00
      25     1     1     2     0     0 -5.727941376E+01  6.071514065E+01 -1.994241301E+02  2.497243344E+02  1.250000000E+02  0.00000E+00  9.000E+00
      25     1     1     2     0     0  5.738871755E+01 -7.984567517E+01  5.041495375E+01  1.668396365E+02  1.250000000E+02  0.00000E+00  9.000E+00
      21     1     1     2   501   511 -1.093037881E-01  1.913053452E+01  3.047877596E+01  3.598534539E+01  4.768371582E-07  0.00000E+00  9.000E+00
#rwgt            1           1   3.9776772176232010E-002           3      235185           0
</event>
<event>
      5   9999  3.79277E-02  2.20994E+01 -1.00000E+00  1.62870E-01
      21    -1     0     0   502   501  0.000000000E+00  0.000000000E+00  3.356552728E+02  3.356552728E+02  0.000000000E+00  0.00000E+00  9.000E+00
      21    -1     0     0   501   512  0.000000000E+00  0.000000000E+00 -2.747092961E+02  2.747092961E+02  0.000000000E+00  0.00000E+00  9.000E+00
      25     1     1     2     0     0 -8.163890937E+01  2.294804472E+02  9.161349995E+00  2.739253867E+02  1.250000000E+02  0.00000E+00  9.000E+00
      25     1     1     2     0     0  8.311774761E+01 -2.515303405E+02  7.704010043E+01  3.028799255E+02  1.250000000E+02  0.00000E+00  9.000E+00
      21     1     1     2   502   512 -1.478838237E+00  2.204989334E+01 -2.525547374E+01  3.355925674E+01  3.371747881E-07  0.00000E+00  9.000E+00
#rwgt            1           1   3.9538405548710423E-002           3      235316           0
</event>
<event>
      5   9999  3.79277E-02  3.53723E+01 -1.00000E+00  1.48231E-01
      21    -1     0     0   502   501  0.000000000E+00  0.000000000E+00  3.501146831E+02  3.501146831E+02  0.000000000E+00  0.00000E+00  9.000E+00
      21    -1     0     0   501   511  0.000000000E+00  0.000000000E+00 -2.633775507E+02  2.633775507E+02  0.000000000E+00  0.00000E+00  9.000E+00
      25     1     1     2     0     0 -1.479782271E+02 -1.541645426E+02 -1.128970026E+02  2.720937248E+02  1.250000000E+02  0.00000E+00  9.000E+00
      25     1     1     2     0     0  1.479149039E+02  1.187922816E+02  2.045255513E+02  3.056895911E+02  1.250000000E+02  0.00000E+00  9.000E+00
      21     1     1     2   502   511  6.332325372E-02  3.537226098E+01 -4.891416324E+00  3.570891780E+01  4.500051996E-07  0.00000E+00  9.000E+00
#rwgt            1           1   3.3955325166466696E-002           3      235515           0
</event>
<event>
      5   9999  3.79277E-02  2.03503E+02 -1.00000E+00  1.11374E-01
      21    -1     0     0   512   501  0.000000000E+00  0.000000000E+00  5.856428987E+02  5.856428987E+02  0.000000000E+00  0.00000E+00  9.000E+00
      21    -1     0     0   501   502  0.000000000E+00  0.000000000E+00 -3.865694469E+02  3.865694469E+02  0.000000000E+00  0.00000E+00  9.000E+00
      25     1     1     2     0     0  1.003710935E+02 -2.694481617E+02 -1.941863472E+02  3.687953439E+02  1.250000000E+02  0.00000E+00  9.000E+00
      25     1     1     2     0     0  8.609158686E+01  1.879292599E+02  1.424764437E+02  2.804526788E+02  1.250000000E+02  0.00000E+00  9.000E+00
      21     1     1     2   512   502 -1.864626804E+02  8.151890179E+01  2.507833554E+02  3.229643229E+02  4.672030912E-06  0.00000E+00  9.000E+00
#rwgt            1           1   4.3100387143556185E-002           3      235662           0
</event>
<event>
      5   9999  3.79277E-02  4.96326E+01 -1.00000E+00  1.39259E-01
      21    -1     0     0   502   511  0.000000000E+00  0.000000000E+00  1.027039925E+02  1.027039925E+02  0.000000000E+00  0.00000E+00  9.000E+00
      21    -1     0     0   501   502  0.000000000E+00  0.000000000E+00 -1.764964176E+03  1.764964176E+03  0.000000000E+00  0.00000E+00  9.000E+00
      25     1     1     2     0     0 -4.217709211E+01  2.007983781E+02 -8.682021282E+02  9.008322991E+02  1.250000000E+02  0.00000E+00  9.000E+00
      25     1     1     2     0     0  8.912075044E+01 -1.846836587E+02 -8.550873486E+02  8.881722444E+02  1.250000000E+02  0.00000E+00  9.000E+00
      21     1     1     2   501   511 -4.694365833E+01 -1.611471939E+01  6.102929340E+01  7.866362496E+01  3.873843386E-06  0.00000E+00  9.000E+00
#rwgt            1           1   3.8986699319149463E-002           3      235752           0
</event>
<event>
      5   9999  3.79277E-02  4.20915E+01 -1.00000E+00  1.43481E-01
      21    -1     0     0   502   501  0.000000000E+00  0.000000000E+00  4.343135921E+02  4.343135921E+02  0.000000000E+00  0.00000E+00  9.000E+00
      21    -1     0     0   512   502  0.000000000E+00  0.000000000E+00 -1.277290331E+02  1.277290331E+02  0.000000000E+00  0.00000E+00  9.000E+00
      25     1     1     2     0     0 -1.545960166E+02  1.792755413E+01  1.164679829E+02  2.311084520E+02  1.250000000E+02  0.00000E+00  9.000E+00
      25     1     1     2     0     0  1.707781996E+02 -5.678408200E+01  1.881171428E+02  2.887952300E+02  1.250000000E+02  0.00000E+00  9.000E+00
      21     1     1     2   512   501 -1.618218304E+01  3.885652787E+01  1.999433363E+00  4.213894327E+01  7.102713160E-07  0.00000E+00  9.000E+00
#rwgt            1           1   4.4486377756688428E-002           3      235903           0
</event>
<event>
      5   9999  3.79277E-02  1.04829E+01 -1.00000E+00  1.93419E-01
      21    -1     0     0   502   501  0.000000000E+00  0.000000000E+00  2.453858650E+02  2.453858650E+02  0.000000000E+00  0.00000E+00  9.000E+00
      21    -1     0     0   511   502  0.000000000E+00  0.000000000E+00 -1.350713511E+02  1.350713511E+02  0.000000000E+00  0.00000E+00  9.000E+00
      25     1     1     2     0     0  1.064132246E+01  1.985319925E+01 -3.549186240E+01  1.318789580E+02  1.250000000E+02  0.00000E+00  9.000E+00
      25     1     1     2     0     0 -1.115741033E+01 -9.383033736E+00  1.761434691E+02  2.164810634E+02  1.250000000E+02  0.00000E+00  9.000E+00
      21     1     1     2   511   501  5.160878704E-01 -1.047016551E+01 -3.033709276E+01  3.209719473E+01  5.840038640E-07  0.00000E+00  9.000E+00
#rwgt            1           1   4.1063311488989986E-002           3      236040           0
</event>
<event>
      5   9999  3.79277E-02  3.08454E+01 -1.00000E+00  1.52206E-01
      21    -1     0     0   502   501  0.000000000E+00  0.000000000E+00  3.962163951E+01  3.962163951E+01  0.000000000E+00  0.00000E+00  9.000E+00
      -4    -1     0     0     0   502  0.000000000E+00  0.000000000E+00 -1.672475641E+03  1.672475641E+03  0.000000000E+00  0.00000E+00  9.000E+00
      25     1     1     2     0     0 -1.025044086E+02 -1.017229301E+02 -4.774133084E+02  5.142014929E+02  1.250000000E+02  0.00000E+00  9.000E+00
      25     1     1     2     0     0  8.866345402E+01  7.415726591E+01 -3.250934774E+02  3.669758537E+02  1.250000000E+02  0.00000E+00  9.000E+00
      -4     1     1     2     0   501  1.384095455E+01  2.756566421E+01 -8.303472160E+02  8.309199341E+02  1.078959322E-05  0.00000E+00  9.000E+00
#rwgt            1           1   2.1465656062429377E-002           3      236250           0
</event>
<event>
      5   9999  3.79277E-02  2.05643E+01 -1.00000E+00  1.65378E-01
      21    -1     0     0   502   511  0.000000000E+00  0.000000000E+00  2.037759821E+02  2.037759821E+02  0.000000000E+00  0.00000E+00  9.000E+00
      21    -1     0     0   501   502  0.000000000E+00  0.000000000E+00 -3.802953416E+02  3.802953416E+02  0.000000000E+00  0.00000E+00  9.000E+00
      25     1     1     2     0     0  1.534091559E+02  1.244978028E+02 -2.145452927E+02  3.173149140E+02  1.250000000E+02  0.00000E+00  9.000E+00
      25     1     1     2     0     0 -1.497401780E+02 -1.447321924E+02  3.975355199E+01  2.461196321E+02  1.250000000E+02  0.00000E+00  9.000E+00
      21     1     1     2   501   511 -3.668977912E+00  2.023438966E+01 -1.727618663E+00  2.063677761E+01  2.010276551E-07  0.00000E+00  9.000E+00
#rwgt            1           1   3.6422678002774232E-002           3      236330           0
</event>
<event>
      5   9999  3.79277E-02  1.14510E+02 -1.00000E+00  1.21238E-01
      21    -1     0     0   502   501  0.000000000E+00  0.000000000E+00  6.211274850E+01  6.211274850E+01  0.000000000E+00  0.00000E+00  9.000E+00
       1    -1     0     0   501     0  0.000000000E+00  0.000000000E+00 -1.420674213E+03  1.420674213E+03  0.000000000E+00  0.00000E+00  9.000E+00
      25     1     1     2     0     0  7.806226313E+01  6.958263045E+01 -1.736534402E+02  2.381511635E+02  1.250000000E+02  0.00000E+00  9.000E+00
      25     1     1     2     0     0  8.162918525E+00 -1.449329367E+02 -3.259207761E+02  3.780496550E+02  1.250000000E+02  0.00000E+00  9.000E+00
       1     1     1     2   502     0 -8.622518166E+01  7.535030621E+01 -8.589872480E+02  8.665861427E+02  1.078959322E-05  0.00000E+00  9.000E+00
#rwgt            1           1   5.9000693080743002E-002           3      236508           0
</event>
<event>
      5   9999  3.79277E-02  3.81396E+01 -1.00000E+00  1.46135E-01
      21    -1     0     0   502   501  0.000000000E+00  0.000000000E+00  1.671868956E+02  1.671868956E+02  0.000000000E+00  0.00000E+00  9.000E+00
      21    -1     0     0   511   502  0.000000000E+00  0.000000000E+00 -8.289116343E+02  8.289116343E+02  0.000000000E+00  0.00000E+00  9.000E+00
      25     1     1     2     0     0  7.705357972E+01 -2.334783589E+02 -3.876855735E+01  2.785271966E+02  1.250000000E+02  0.00000E+00  9.000E+00
      25     1     1     2     0     0 -8.707772866E+01  1.966796414E+02 -2.885090040E+02  3.809565035E+02  1.250000000E+02  0.00000E+00  9.000E+00
      21     1     1     2   511   501  1.002414894E+01  3.679871746E+01 -3.344471774E+02  3.366148298E+02  3.814697266E-06  0.00000E+00  9.000E+00
#rwgt            1           1   5.5401136395611221E-002           3      236620           0
</event>
<event>
      5   9999  3.79277E-02  6.74202E+01 -1.00000E+00  1.32052E-01
      21    -1     0     0   502   501  0.000000000E+00  0.000000000E+00  5.041805216E+02  5.041805216E+02  0.000000000E+00  0.00000E+00  9.000E+00
      21    -1     0     0   501   512  0.000000000E+00  0.000000000E+00 -2.569704366E+02  2.569704366E+02  0.000000000E+00  0.00000E+00  9.000E+00
      25     1     1     2     0     0 -2.079739827E+01 -3.019799234E+02  7.597795009E+01  3.361875292E+02  1.250000000E+02  0.00000E+00  9.000E+00
      25     1     1     2     0     0 -3.788439411E+01  2.687845655E+02  1.910502437E+02  3.546908028E+02  1.250000000E+02  0.00000E+00  9.000E+00
      21     1     1     2   502   512  5.868179237E+01  3.319535783E+01 -1.981810885E+01  7.027262608E+01  1.545128989E-06  0.00000E+00  9.000E+00
#rwgt            1           1   3.7220716837946227E-002           3      236856           0
</event>
<event>
      5   9999  3.79277E-02  1.64440E+02 -1.00000E+00  1.14833E-01
      21    -1     0     0   502   501  0.000000000E+00  0.000000000E+00  5.205988049E+02  5.205988049E+02  0.000000000E+00  0.00000E+00  9.000E+00
       1    -1     0     0   501     0  0.000000000E+00  0.000000000E+00 -1.482633643E+03  1.482633643E+03  0.000000000E+00  0.00000E+00  9.000E+00
      25     1     1     2     0     0  1.557995969E+02  1.587993534E+02  3.298603323E+02  4.170414702E+02  1.250000000E+02  0.00000E+00  9.000E+00
      25     1     1     2     0     0 -2.680677316E+02 -3.864742503E+01 -1.491436078E+01  2.986659845E+02  1.250000000E+02  0.00000E+00  9.000E+00
       1     1     1     2   502     0  1.122681347E+02 -1.201519284E+02 -1.276980810E+03  1.287524994E+03  1.525878906E-05  0.00000E+00  9.000E+00
#rwgt            1           1   4.7905779484218404E-002           3      236944           0
</event>
<event>
      5   9999  3.79277E-02  3.93732E+01 -1.00000E+00  1.45267E-01
      21    -1     0     0   511   501  0.000000000E+00  0.000000000E+00  2.278223759E+02  2.278223759E+02  0.000000000E+00  0.00000E+00  9.000E+00
      21    -1     0     0   501   502  0.000000000E+00  0.000000000E+00 -2.018490473E+02  2.018490473E+02  0.000000000E+00  0.00000E+00  9.000E+00
      25     1     1     2     0     0 -3.815525155E+01  1.134980290E+02  1.731163818E+01  1.739606813E+02  1.250000000E+02  0.00000E+00  9.000E+00
      25     1     1     2     0     0  7.485745789E+01 -1.277526858E+02 -3.500633945E+01  1.969132589E+02  1.250000000E+02  0.00000E+00  9.000E+00
      21     1     1     2   511   502 -3.670220633E+01  1.425465678E+01  4.366802987E+01  5.879748313E+01  9.536743164E-07  0.00000E+00  9.000E+00
#rwgt            1           1   4.5508480120938326E-002           3      237003           0
</event>
<event>
      5   9999  3.79277E-02  4.06945E+01 -1.00000E+00  1.44378E-01
      21    -1     0     0   502   501  0.000000000E+00  0.000000000E+00  9.482069769E+02  9.482069769E+02  0.000000000E+00  0.00000E+00  9.000E+00
      21    -1     0     0   512   502  0.000000000E+00  0.000000000E+00 -8.460594186E+01  8.460594186E+01  0.000000000E+00  0.00000E+00  9.000E+00
      25     1     1     2     0     0 -1.798613699E+01 -2.292823740E+01  8.371212645E+02  8.469039005E+02  1.250000000E+02  0.00000E+00  9.000E+00
      25     1     1     2     0     0  2.474320665E+01 -1.720131357E+01  5.108136924E+01  1.383561265E+02  1.250000000E+02  0.00000E+00  9.000E+00
      21     1     1     2   512   501 -6.757069662E+00  4.012955097E+01 -2.460159871E+01  4.755289172E+01  4.768371582E-07  0.00000E+00  9.000E+00
#rwgt            1           1   4.7387861508532858E-002           3      237173           0
</event>
<event>
      5   9999  3.79277E-02  2.28169E+01 -1.00000E+00  1.61782E-01
      21    -1     0     0   502   501  0.000000000E+00  0.000000000E+00  6.016338913E+01  6.016338913E+01  0.000000000E+00  0.00000E+00  9.000E+00
      21    -1     0     0   501   511  0.000000000E+00  0.000000000E+00 -5.644666686E+02  5.644666686E+02  0.000000000E+00  0.00000E+00  9.000E+00
      25     1     1     2     0     0  8.100548517E+01  4.454981020E+01 -2.340833501E+02  2.810099447E+02  1.250000000E+02  0.00000E+00  9.000E+00
      25     1     1     2     0     0 -5.851230987E+01 -4.071964005E+01 -1.082963842E+02  1.800968804E+02  1.250000000E+02  0.00000E+00  9.000E+00
      21     1     1     2   502   511 -2.249317530E+01 -3.830170144E+00 -1.619235453E+02  1.635232328E+02  1.907348633E-06  0.00000E+00  9.000E+00
#rwgt            1           1   2.6295028667147727E-002           3      237332           0
</event>
<event>
      5   9999  3.79277E-02  7.66612E+01 -1.00000E+00  1.29252E-01
       2    -1     0     0   502     0  0.000000000E+00  0.000000000E+00  1.328879429E+02  1.328879429E+02  0.000000000E+00  0.00000E+00  9.000E+00
      21    -1     0     0   501   502  0.000000000E+00  0.000000000E+00 -8.606107921E+02  8.606107921E+02  0.000000000E+00  0.00000E+00  9.000E+00
      25     1     1     2     0     0  8.641801305E+01  1.363090756E+02 -4.768304598E+02  5.186911648E+02  1.250000000E+02  0.00000E+00  9.000E+00
      25     1     1     2     0     0 -1.347595921E+02 -7.681085944E+01 -3.164532954E+02  3.739354810E+02  1.250000000E+02  0.00000E+00  9.000E+00
       2     1     1     2   501     0  4.834157906E+01 -5.949821614E+01  6.556090600E+01  1.008720892E+02  2.523185073E-06  0.00000E+00  9.000E+00
#rwgt            1           1   2.3224606055121725E-002           3      237452           0
</event>
<event>
      5   9999  3.79277E-02  1.23788E+02 -1.00000E+00  1.19798E-01
      21    -1     0     0   502   511  0.000000000E+00  0.000000000E+00  5.867216311E+02  5.867216311E+02  0.000000000E+00  0.00000E+00  9.000E+00
      21    -1     0     0   501   502  0.000000000E+00  0.000000000E+00 -1.635603945E+02  1.635603945E+02  0.000000000E+00  0.00000E+00  9.000E+00
      25     1     1     2     0     0 -1.060143056E+02 -7.346651758E+01  6.319937270E+01  1.904088309E+02  1.250000000E+02  0.00000E+00  9.000E+00
      25     1     1     2     0     0  4.049229018E+01  1.784914104E+02  5.156235644E+01  2.275576537E+02  1.250000000E+02  0.00000E+00  9.000E+00
      21     1     1     2   501   511  6.552201540E+01 -1.050248928E+02  3.083995074E+02  3.323155410E+02  0.000000000E+00  0.00000E+00  9.000E+00
#rwgt            2          11   1.7974068839584556E-003           3      237572           0
</event>
<event>
      5   9999  3.79277E-02  7.42586E+01 -1.00000E+00  1.29935E-01
      21    -1     0     0   512   501  0.000000000E+00  0.000000000E+00  3.352009589E+01  3.352009589E+01  0.000000000E+00  0.00000E+00  9.000E+00
      21    -1     0     0   501   502  0.000000000E+00  0.000000000E+00 -1.183749567E+03  1.183749567E+03  0.000000000E+00  0.00000E+00  9.000E+00
      25     1     1     2     0     0 -7.731285969E+01 -9.858517748E+01 -6.748220696E+02  6.976432764E+02  1.250000000E+02  0.00000E+00  9.000E+00
      25     1     1     2     0     0  3.643150554E+01  3.659276643E+01 -3.190175792E+02  3.465018051E+02  1.250000000E+02  0.00000E+00  9.000E+00
      21     1     1     2   512   502  4.088135415E+01  6.199241106E+01 -1.563898227E+02  1.731245817E+02  2.697398305E-06  0.00000E+00  9.000E+00
#rwgt            1           1   3.5504245985826979E-002           3      237682           0
</event>
<event>
      5   9999  3.79277E-02  1.73514E+02 -1.00000E+00  1.13941E-01
      21    -1     0     0   502   501  0.000000000E+00  0.000000000E+00  1.317314759E+03  1.317314759E+03  0.000000000E+00  0.00000E+00  9.000E+00
       2    -1     0     0   501     0  0.000000000E+00  0.000000000E+00 -2.959697041E+02  2.959697041E+02  0.000000000E+00  0.00000E+00  9.000E+00
      25     1     1     2     0     0 -1.620286984E+02 -1.280945877E+02  2.172150671E+02  3.247597695E+02  1.250000000E+02  0.00000E+00  9.000E+00
      25     1     1     2     0     0  2.263179699E+01  2.314170281E+02  9.956732047E+02  1.030075808E+03  1.250000000E+02  0.00000E+00  9.000E+00
       2     1     1     2   502     0  1.393969014E+02 -1.033224403E+02 -1.915432167E+02  2.584488860E+02  7.629394531E-06  0.00000E+00  9.000E+00
#rwgt            1           1   4.4010485784468881E-002           3      237746           0
</event>
<event>
      5   9999  3.79277E-02  3.46073E+01 -1.00000E+00  1.48852E-01
      21    -1     0     0   502   501  0.000000000E+00  0.000000000E+00  8.629176722E+01  8.629176722E+01  0.000000000E+00  0.00000E+00  9.000E+00
       3    -1     0     0   501     0  0.000000000E+00  0.000000000E+00 -7.961031212E+02  7.961031212E+02  0.000000000E+00  0.00000E+00  9.000E+00
      25     1     1     2     0     0  4.970868231E+01  5.699217094E-01 -4.981213164E+02  5.159662041E+02  1.250000000E+02  0.00000E+00  9.000E+00
      25     1     1     2     0     0 -6.893072950E+01  2.820810926E+01  6.363870286E+00  1.456456032E+02  1.250000000E+02  0.00000E+00  9.000E+00
       3     1     1     2   502     0  1.922204719E+01 -2.877803097E+01 -2.180539079E+02  2.207830811E+02  0.000000000E+00  0.00000E+00  9.000E+00
#rwgt            1           1   4.1310180501926842E-002           3      237960           0
</event>
<event>
      5   9999  3.79277E-02  2.58470E+01 -1.00000E+00  1.57675E-01
      21    -1     0     0   502   501  0.000000000E+00  0.000000000E+00  3.295798168E+02  3.295798168E+02  0.000000000E+00  0.00000E+00  9.000E+00
      21    -1     0     0   511   502  0.000000000E+00  0.000000000E+00 -1.539504799E+02  1.539504799E+02  0.000000000E+00  0.00000E+00  9.000E+00
      25     1     1     2     0     0 -1.085886921E+02 -9.452394488E+01  8.685239221E+01  2.095104251E+02  1.250000000E+02  0.00000E+00  9.000E+00
      25     1     1     2     0     0  1.268155518E+02  7.619780886E+01  1.242629434E+02  2.301185985E+02  1.250000000E+02  0.00000E+00  9.000E+00
      21     1     1     2   511   501 -1.822685972E+01  1.832613603E+01 -3.548599875E+01  4.390127315E+01  9.536743164E-07  0.00000E+00  9.000E+00
#rwgt            1           1   2.5323105918195574E-002           3      238213           0
</event>
<event>
      5   9999  3.79277E-02  3.18150E+01 -1.00000E+00  1.51289E-01
       2    -1     0     0   502     0  0.000000000E+00  0.000000000E+00  1.964890239E+03  1.964890239E+03  0.000000000E+00  0.00000E+00  9.000E+00
      21    -1     0     0   501   502  0.000000000E+00  0.000000000E+00 -5.652693389E+02  5.652693389E+02  0.000000000E+00  0.00000E+00  9.000E+00
      25     1     1     2     0     0 -1.716343286E+02 -8.097567165E+01 -2.389402628E+02  3.297466472E+02  1.250000000E+02  0.00000E+00  9.000E+00
      25     1     1     2     0     0  1.815878085E+02  1.111935572E+02 -2.265120260E+02  3.350684069E+02  1.250000000E+02  0.00000E+00  9.000E+00
       2     1     1     2   501     0 -9.953479983E+00 -3.021788550E+01  1.865073189E+03  1.865344524E+03  3.051757812E-05  0.00000E+00  9.000E+00
#rwgt            1           1  0.12159306180133533                3      238392           0
</event>
<event>
      5   9999  3.79277E-02  5.61118E+01 -1.00000E+00  1.36277E-01
      21    -1     0     0   502   501  0.000000000E+00  0.000000000E+00  9.111212269E+01  9.111212269E+01  0.000000000E+00  0.00000E+00  9.000E+00
      21    -1     0     0   501   511  0.000000000E+00  0.000000000E+00 -5.093866485E+02  5.093866485E+02  0.000000000E+00  0.00000E+00  9.000E+00
      25     1     1     2     0     0  6.913042301E+01  1.116450434E+02 -1.064999826E+02  2.102638281E+02  1.250000000E+02  0.00000E+00  9.000E+00
      25     1     1     2     0     0 -1.567195098E+01 -9.459432047E+01 -1.444014660E+02  2.137065252E+02  1.250000000E+02  0.00000E+00  9.000E+00
      21     1     1     2   502   511 -5.345847204E+01 -1.705072290E+01 -1.673730772E+02  1.765284179E+02  0.000000000E+00  0.00000E+00  9.000E+00
#rwgt            1           1   3.7686907390605137E-002           3      238533           0
</event>
<event>
      5   9999  3.79277E-02  5.03968E+01 -1.00000E+00  1.38880E-01
      21    -1     0     0   512   501  0.000000000E+00  0.000000000E+00  3.175896084E+02  3.175896084E+02  0.000000000E+00  0.00000E+00  9.000E+00
      21    -1     0     0   501   502  0.000000000E+00  0.000000000E+00 -2.778542785E+02  2.778542785E+02  0.000000000E+00  0.00000E+00  9.000E+00
      25     1     1     2     0     0 -1.973817992E+02  3.159506618E+01 -6.572478379E+00  2.358516914E+02  1.250000000E+02  0.00000E+00  9.000E+00
      25     1     1     2     0     0  1.603445215E+02  2.582021192E+00 -8.391084418E+01  2.199615016E+02  1.250000000E+02  0.00000E+00  9.000E+00
      21     1     1     2   512   502  3.703727769E+01 -3.417708738E+01  1.302186525E+02  1.396306939E+02  2.697398305E-06  0.00000E+00  9.000E+00
#rwgt            1           1   8.3206948442885842E-002           3      238616           0
</event>
<event>
      5   9999  3.79277E-02  3.03766E+01 -1.00000E+00  1.52664E-01
      21    -1     0     0   511   501  0.000000000E+00  0.000000000E+00  1.412891920E+03  1.412891920E+03  0.000000000E+00  0.00000E+00  9.000E+00
      21    -1     0     0   501   502  0.000000000E+00  0.000000000E+00 -7.367666202E+01  7.367666202E+01  0.000000000E+00  0.00000E+00  9.000E+00
      25     1     1     2     0     0 -1.355131544E+02  3.304429500E+01  7.018373300E+01  2.000162414E+02  1.250000000E+02  0.00000E+00  9.000E+00
      25     1     1     2     0     0  1.115041802E+02 -1.443498531E+01  8.528596139E+02  8.692733011E+02  1.250000000E+02  0.00000E+00  9.000E+00
      21     1     1     2   511   502  2.400897416E+01 -1.860930969E+01  4.161719112E+02  4.172790396E+02  7.629394531E-06  0.00000E+00  9.000E+00
#rwgt            1           1   1.5168099156406141E-002           3      238805           0
</event>
<event>
      5   9999  3.79277E-02  3.16901E+01 -1.00000E+00  1.51405E-01
      21    -1     0     0   502   501  0.000000000E+00  0.000000000E+00  4.127595994E+01  4.127595994E+01  0.000000000E+00  0.00000E+00  9.000E+00
      21    -1     0     0   512   502  0.000000000E+00  0.000000000E+00 -1.163042141E+03  1.163042141E+03  0.000000000E+00  0.00000E+00  9.000E+00
      25     1     1     2     0     0 -3.947883942E+01  1.025460084E+02 -2.290421079E+02  2.831246188E+02  1.250000000E+02  0.00000E+00  9.000E+00
      25     1     1     2     0     0  7.058039018E+01 -1.086252712E+02 -5.909602262E+02  6.177702081E+02  1.250000000E+02  0.00000E+00  9.000E+00
      21     1     1     2   512   501 -3.110155076E+01  6.079262784E+00 -3.017638472E+02  3.034232743E+02  6.607249480E-06  0.00000E+00  9.000E+00
#rwgt            1           1   4.8207799414956544E-002           3      239011           0
</event>
<event>
      5   9999  3.79277E-02  8.89076E+00 -1.00000E+00  2.01851E-01
       2    -1     0     0   502     0  0.000000000E+00  0.000000000E+00  2.904710024E+03  2.904710024E+03  0.000000000E+00  0.00000E+00  9.000E+00
      21    -1     0     0   501   502  0.000000000E+00  0.000000000E+00 -1.202846502E+02  1.202846502E+02  0.000000000E+00  0.00000E+00  9.000E+00
      25     1     1     2     0     0 -7.528329966E+01  7.685761563E+01  2.478336637E+02  2.976931190E+02  1.250000000E+02  0.00000E+00  9.000E+00
      25     1     1     2     0     0  8.380908322E+01 -7.433636601E+01 -2.147282429E+01  1.692215705E+02  1.250000000E+02  0.00000E+00  9.000E+00
       2     1     1     2   501     0 -8.525783558E+00 -2.521249617E+00  2.558064534E+03  2.558079985E+03  3.051757812E-05  0.00000E+00  9.000E+00
#rwgt            1           1   5.6031355383583739E-002           3      239117           0
</event>
<event>
      5   9999  3.79277E-02  1.20125E+02 -1.00000E+00  1.20349E-01
      21    -1     0     0   502   511  0.000000000E+00  0.000000000E+00  4.793215290E+02  4.793215290E+02  0.000000000E+00  0.00000E+00  9.000E+00
      21    -1     0     0   501   502  0.000000000E+00  0.000000000E+00 -2.706369874E+02  2.706369874E+02  0.000000000E+00  0.00000E+00  9.000E+00
      25     1     1     2     0     0  2.843057019E+01 -9.109316470E+01 -1.541453551E+02  2.202091108E+02  1.250000000E+02  0.00000E+00  9.000E+00
      25     1     1     2     0     0 -1.401941757E+02  1.351274715E+02  1.242506270E+02  2.626348392E+02  1.250000000E+02  0.00000E+00  9.000E+00
      21     1     1     2   501   511  1.117636055E+02 -4.403430680E+01  2.385792697E+02  2.671145665E+02  0.000000000E+00  0.00000E+00  9.000E+00
#rwgt            2          11   1.4715974691673992E-003           3      239703           0
</event>
<event>
      5   9999  3.79277E-02  7.79380E+01 -1.00000E+00  1.28901E-01
      21    -1     0     0   502   501  0.000000000E+00  0.000000000E+00  3.392722197E+02  3.392722197E+02  0.000000000E+00  0.00000E+00  9.000E+00
      21    -1     0     0   501   512  0.000000000E+00  0.000000000E+00 -3.285736883E+02  3.285736883E+02  0.000000000E+00  0.00000E+00  9.000E+00
      25     1     1     2     0     0 -3.764079949E+01  1.667728813E+02  2.418270478E+02  3.214581540E+02  1.250000000E+02  0.00000E+00  9.000E+00
      25     1     1     2     0     0  5.666789844E+01 -9.119313520E+01 -2.074544118E+02  2.649335230E+02  1.250000000E+02  0.00000E+00  9.000E+00
      21     1     1     2   502   512 -1.902709895E+01 -7.557974614E+01 -2.367410459E+01  8.145423100E+01  9.536743164E-07  0.00000E+00  9.000E+00
#rwgt            1           1   3.6681939081335609E-002           3      239768           0
</event>
<event>
      5   9999  3.79277E-02  1.22262E+01 -1.00000E+00  1.86179E-01
      21    -1     0     0   502   501  0.000000000E+00  0.000000000E+00  4.971157226E+01  4.971157226E+01  0.000000000E+00  0.00000E+00  9.000E+00
      21    -1     0     0   501   511  0.000000000E+00  0.000000000E+00 -8.691121986E+02  8.691121986E+02  0.000000000E+00  0.00000E+00  9.000E+00
      25     1     1     2     0     0 -5.557838091E+01 -5.255029944E+01 -8.910208730E+01  1.715070621E+02  1.250000000E+02  0.00000E+00  9.000E+00
      25     1     1     2     0     0  6.105829418E+01  4.162090297E+01 -6.935383957E+02  7.085766869E+02  1.250000000E+02  0.00000E+00  9.000E+00
      21     1     1     2   502   511 -5.479913272E+00  1.092939646E+01 -3.676014333E+01  3.874002186E+01  9.536743164E-07  0.00000E+00  9.000E+00
#rwgt            1           1   4.3609700871402812E-002           3      239888           0
</event>
<event>
      5   9999  3.79277E-02  6.35822E+00 -1.00000E+00  2.21630E-01
      21    -1     0     0   502   501  0.000000000E+00  0.000000000E+00  3.702760614E+02  3.702760614E+02  0.000000000E+00  0.00000E+00  9.000E+00
      21    -1     0     0   512   502  0.000000000E+00  0.000000000E+00 -1.225290383E+02  1.225290383E+02  0.000000000E+00  0.00000E+00  9.000E+00
      25     1     1     2     0     0  1.614743008E+02 -3.520114763E+00  1.605223655E+02  2.597667624E+02  1.250000000E+02  0.00000E+00  9.000E+00
      25     1     1     2     0     0 -1.677471622E+02  4.558457584E+00  8.717158825E+01  2.266798971E+02  1.250000000E+02  0.00000E+00  9.000E+00
      21     1     1     2   512   501  6.272861419E+00 -1.038342820E+00  5.306930380E-02  6.358440260E+00  6.399751657E-08  0.00000E+00  9.000E+00
#rwgt            1           1   2.7850883989394910E-002           3      240182           0
</event>
<event>
      5   9999  3.79277E-02  1.61729E+02 -1.00000E+00  1.15112E-01
      21    -1     0     0   502   511  0.000000000E+00  0.000000000E+00  4.402170959E+02  4.402170959E+02  0.000000000E+00  0.00000E+00  9.000E+00
      21    -1     0     0   501   502  0.000000000E+00  0.000000000E+00 -3.006161927E+02  3.006161927E+02  0.000000000E+00  0.00000E+00  9.000E+00
      25     1     1     2     0     0  1.821504672E+02 -1.810427851E+02 -1.465634229E+01  2.859984110E+02  1.250000000E+02  0.00000E+00  9.000E+00
      25     1     1     2     0     0 -2.085982394E+01  1.929374529E+02 -7.236961279E-01  2.308365585E+02  1.250000000E+02  0.00000E+00  9.000E+00
      21     1     1     2   501   511 -1.612906432E+02 -1.189466779E+01  1.549809416E+02  2.239983191E+02  3.303624740E-06  0.00000E+00  9.000E+00
#rwgt            2          11   2.2967628207756019E-003           3      240506           0
</event>
<event>
      5   9999  3.79277E-02  1.95998E+01 -1.00000E+00  1.67097E-01
      21    -1     0     0   502   501  0.000000000E+00  0.000000000E+00  9.979961305E+01  9.979961305E+01  0.000000000E+00  0.00000E+00  9.000E+00
      21    -1     0     0   512   502  0.000000000E+00  0.000000000E+00 -6.292478880E+02  6.292478880E+02  0.000000000E+00  0.00000E+00  9.000E+00
      25     1     1     2     0     0 -4.029045274E+01  1.490266164E+02 -2.749760504E+02  3.392183386E+02  1.250000000E+02  0.00000E+00  9.000E+00
      25     1     1     2     0     0  2.362813498E+01 -1.593473877E+02 -8.778475292E+01  2.219933368E+02  1.250000000E+02  0.00000E+00  9.000E+00
      21     1     1     2   512   501  1.666231775E+01  1.032077131E+01 -1.666874716E+02  1.678358256E+02  0.000000000E+00  0.00000E+00  9.000E+00
#rwgt            1           1   4.0708267126093052E-002           3      240586           0
</event>
<event>
      5   9999  3.79277E-02  5.54576E+01 -1.00000E+00  1.36556E-01
      21    -1     0     0   502   501  0.000000000E+00  0.000000000E+00  3.761728993E+02  3.761728993E+02  0.000000000E+00  0.00000E+00  9.000E+00
       1    -1     0     0   501     0  0.000000000E+00  0.000000000E+00 -5.921922773E+02  5.921922773E+02  0.000000000E+00  0.00000E+00  9.000E+00
      25     1     1     2     0     0 -1.249177191E+02 -7.178113655E+01  6.115909392E+01  2.003057735E+02  1.250000000E+02  0.00000E+00  9.000E+00
      25     1     1     2     0     0  6.951807867E+01  7.431671393E+01  2.172586635E+02  2.705218366E+02  1.250000000E+02  0.00000E+00  9.000E+00
       1     1     1     2   502     0  5.539964047E+01 -2.535577388E+00 -4.944371354E+02  4.975375666E+02  5.394796609E-06  0.00000E+00  9.000E+00
#rwgt            1           1   3.6801836515359176E-002           3      240871           0
</event>
<event>
      5   9999  3.79277E-02  4.52317E+01 -1.00000E+00  1.41605E-01
      21    -1     0     0   502   501  0.000000000E+00  0.000000000E+00  1.799827429E+02  1.799827429E+02  0.000000000E+00  0.00000E+00  9.000E+00
      21    -1     0     0   511   502  0.000000000E+00  0.000000000E+00 -3.658791401E+02  3.658791401E+02  0.000000000E+00  0.00000E+00  9.000E+00
      25     1     1     2     0     0  1.528705140E+02  7.167187382E+01 -4.513597443E+01  2.148685825E+02  1.250000000E+02  0.00000E+00  9.000E+00
      25     1     1     2     0     0 -1.839457671E+02 -1.045388185E+02 -8.688970158E+01  2.606515491E+02  1.250000000E+02  0.00000E+00  9.000E+00
      21     1     1     2   511   501  3.107525306E+01  3.286694470E+01 -5.387072111E+01  7.034175147E+01  1.168007728E-06  0.00000E+00  9.000E+00
#rwgt            1           1   6.1032484697957759E-002           3      240985           0
</event>
<event>
      5   9999  3.79277E-02  3.97302E+01 -1.00000E+00  1.45023E-01
      21    -1     0     0   502   501  0.000000000E+00  0.000000000E+00  4.533348729E+02  4.533348729E+02  0.000000000E+00  0.00000E+00  9.000E+00
      21    -1     0     0   501   512  0.000000000E+00  0.000000000E+00 -3.030615718E+02  3.030615718E+02  0.000000000E+00  0.00000E+00  9.000E+00
      25     1     1     2     0     0 -1.287279785E+02  1.231544476E+02  3.558078635E+02  4.170876960E+02  1.250000000E+02  0.00000E+00  9.000E+00
      25     1     1     2     0     0  8.932911706E+01 -1.282746229E+02 -9.441294962E+01  2.212981588E+02  1.250000000E+02  0.00000E+00  9.000E+00
      21     1     1     2   502   512  3.939886144E+01  5.120175267E+00 -1.111216128E+02  1.180105898E+02  1.348699152E-06  0.00000E+00  9.000E+00
#rwgt            1           1   4.5941139570099015E-002           3      241134           0
</event>
<event>
      5   9999  3.79277E-02  2.26697E+01 -1.00000E+00  1.62001E-01
      21    -1     0     0   502   501  0.000000000E+00  0.000000000E+00  5.456028766E+02  5.456028766E+02  0.000000000E+00  0.00000E+00  9.000E+00
      21    -1     0     0   511   502  0.000000000E+00  0.000000000E+00 -7.906836317E+01  7.906836317E+01  0.000000000E+00  0.00000E+00  9.000E+00
      25     1     1     2     0     0 -7.327302289E+01 -1.294148626E+02  1.815278532E+02  2.658843809E+02  1.250000000E+02  0.00000E+00  9.000E+00
      25     1     1     2     0     0  5.081052631E+01  1.324728813E+02  2.756245722E+02  3.342524176E+02  1.250000000E+02  0.00000E+00  9.000E+00
      21     1     1     2   511   501  2.246249658E+01 -3.058018693E+00  9.382088030E+00  2.453444123E+01  6.194296387E-07  0.00000E+00  9.000E+00
#rwgt            1           1   4.2984582857479726E-002           3      241300           0
</event>
<event>
      5   9999  3.79277E-02  1.86770E+02 -1.00000E+00  1.12741E-01
      21    -1     0     0   502   501  0.000000000E+00  0.000000000E+00  1.475963881E+02  1.475963881E+02  0.000000000E+00  0.00000E+00  9.000E+00
      21    -1     0     0   501   512  0.000000000E+00  0.000000000E+00 -7.235989533E+02  7.235989533E+02  0.000000000E+00  0.00000E+00  9.000E+00
      25     1     1     2     0     0  1.234726123E+02  1.613947412E+02 -5.192728230E+01  2.441622230E+02  1.250000000E+02  0.00000E+00  9.000E+00
      25     1     1     2     0     0 -8.201371697E+01  2.071540428E+01 -1.746997749E+02  2.308687703E+02  1.250000000E+02  0.00000E+00  9.000E+00
      21     1     1     2   502   512 -4.145889537E+01 -1.821101455E+02 -3.493755080E+02  3.961643481E+02  3.814697266E-06  0.00000E+00  9.000E+00
#rwgt            1           1   4.1507470097884469E-002           3      241462           0
</event>
<event>
      5   9999 -3.79277E-02  1.30782E+02 -1.00000E+00  1.18803E-01
      21    -1     0     0   502   511  0.000000000E+00  0.000000000E+00  1.083458024E+03  1.083458024E+03  0.000000000E+00  0.00000E+00  9.000E+00
      21    -1     0     0   501   502  0.000000000E+00  0.000000000E+00 -6.831122428E+01  6.831122428E+01  0.000000000E+00  0.00000E+00  9.000E+00
      25     1     1     2     0     0  7.660466942E+01 -1.064842859E+02  3.431776237E+02  3.880761007E+02  1.250000000E+02  0.00000E+00  9.000E+00
      25     1     1     2     0     0 -1.897341015E+02  4.086612459E+01  3.979261596E+02  4.600427131E+02  1.250000000E+02  0.00000E+00  9.000E+00
      21     1     1     2   501   511  1.131294321E+02  6.561816135E+01  2.740430168E+02  3.036504349E+02  3.814697266E-06  0.00000E+00  9.000E+00
#rwgt            1           1  -3.0578783259434562E-002           3      241603           0
</event>
<event>
      5   9999  3.79277E-02  5.06476E+01 -1.00000E+00  1.38757E-01
      21    -1     0     0   502   501  0.000000000E+00  0.000000000E+00  1.982345867E+03  1.982345867E+03  0.000000000E+00  0.00000E+00  9.000E+00
      21    -1     0     0   512   502  0.000000000E+00  0.000000000E+00 -1.077116158E+02  1.077116158E+02  0.000000000E+00  0.00000E+00  9.000E+00
      25     1     1     2     0     0  2.203016611E+02  3.101390128E+02  4.741401257E+02  6.206068707E+02  1.250000000E+02  0.00000E+00  9.000E+00
      25     1     1     2     0     0 -2.036630636E+02 -2.623024853E+02  1.357208500E+03  1.402826130E+03  1.250000000E+02  0.00000E+00  9.000E+00
      21     1     1     2   512   501 -1.663859756E+01 -4.783652745E+01  4.328562512E+01  6.662448221E+01  1.066240300E-06  0.00000E+00  9.000E+00
#rwgt            1           1   4.3195166028904386E-002           3      241712           0
</event>
<event>
      5   9999  3.79277E-02  9.49806E+01 -1.00000E+00  1.24842E-01
      21    -1     0     0   502   501  0.000000000E+00  0.000000000E+00  9.909548716E+01  9.909548716E+01  0.000000000E+00  0.00000E+00  9.000E+00
      21    -1     0     0   511   502  0.000000000E+00  0.000000000E+00 -1.205896870E+03  1.205896870E+03  0.000000000E+00  0.00000E+00  9.000E+00
      25     1     1     2     0     0  2.783060844E+01 -1.143494917E+02 -1.108464270E+01  1.720413274E+02  1.250000000E+02  0.00000E+00  9.000E+00
      25     1     1     2     0     0 -5.035880792E+01  2.207922511E+01 -2.779281596E+02  3.096652444E+02  1.250000000E+02  0.00000E+00  9.000E+00
      21     1     1     2   511   501  2.252819948E+01  9.227026660E+01 -8.177885804E+02  8.232857852E+02  1.078959322E-05  0.00000E+00  9.000E+00
#rwgt            1           1   4.4956268728963036E-002           3      241859           0
</event>
<event>
      5   9999  3.79277E-02  1.66433E+02 -1.00000E+00  1.14632E-01
      21    -1     0     0   502   512  0.000000000E+00  0.000000000E+00  4.573865517E+02  4.573865517E+02  0.000000000E+00  0.00000E+00  9.000E+00
      21    -1     0     0   501   502  0.000000000E+00  0.000000000E+00 -1.014780144E+03  1.014780144E+03  0.000000000E+00  0.00000E+00  9.000E+00
      25     1     1     2     0     0  3.510533600E+02  3.145846913E+02 -6.602154891E+02  8.207992944E+02  1.250000000E+02  0.00000E+00  9.000E+00
      25     1     1     2     0     0 -4.245443706E+02 -1.652558525E+02  4.241782214E+01  4.743118078E+02  1.250000000E+02  0.00000E+00  9.000E+00
      21     1     1     2   501   512  7.349101060E+01 -1.493288388E+02  6.040407517E+01  1.770555930E+02  4.473129043E-06  0.00000E+00  9.000E+00
#rwgt            2          11   1.1222162574866131E-002           3      241962           0
</event>
<event>
      5   9999  3.79277E-02  1.36007E+01 -1.00000E+00  1.81486E-01
      21    -1     0     0   502   501  0.000000000E+00  0.000000000E+00  3.676085225E+02  3.676085225E+02  0.000000000E+00  0.00000E+00  9.000E+00
      21    -1     0     0   511   502  0.000000000E+00  0.000000000E+00 -2.306885088E+02  2.306885088E+02  0.000000000E+00  0.00000E+00  9.000E+00
      25     1     1     2     0     0 -1.067274287E+02  7.598947311E+01 -1.388099133E+02  2.281629595E+02  1.250000000E+02  0.00000E+00  9.000E+00
      25     1     1     2     0     0  1.156138932E+02 -6.569342640E+01  2.947949760E+02  3.467149787E+02  1.250000000E+02  0.00000E+00  9.000E+00
      21     1     1     2   511   501 -8.886464453E+00 -1.029604671E+01 -1.906504900E+01  2.341909310E+01  3.371747881E-07  0.00000E+00  9.000E+00
#rwgt            1           1   3.5229295020065117E-002           3      242072           0
</event>
<event>
      5   9999  3.79277E-02  8.87377E+01 -1.00000E+00  1.26208E-01
      21    -1     0     0   512   501  0.000000000E+00  0.000000000E+00  1.129589755E+03  1.129589755E+03  0.000000000E+00  0.00000E+00  9.000E+00
      21    -1     0     0   501   502  0.000000000E+00  0.000000000E+00 -1.038717164E+02  1.038717164E+02  0.000000000E+00  0.00000E+00  9.000E+00
      25     1     1     2     0     0  6.677128911E+01 -1.162270990E+02  6.106402680E+02  6.375528844E+02  1.250000000E+02  0.00000E+00  9.000E+00
      25     1     1     2     0     0 -4.373457712E+01  3.053178148E+01 -3.240350182E+01  1.397135994E+02  1.250000000E+02  0.00000E+00  9.000E+00
      21     1     1     2   512   502 -2.303671199E+01  8.569531752E+01  4.474812724E+02  4.561949876E+02  5.394796609E-06  0.00000E+00  9.000E+00
#rwgt            1           1   4.7958954669675813E-002           3      242459           0
</event>
<event>
      5   9999  3.79277E-02  4.45551E+01 -1.00000E+00  1.41994E-01
      -1    -1     0     0     0   501  0.000000000E+00  0.000000000E+00  4.297793691E+02  4.297793691E+02  0.000000000E+00  0.00000E+00  9.000E+00
      21    -1     0     0   501   502  0.000000000E+00  0.000000000E+00 -3.146528400E+02  3.146528400E+02  0.000000000E+00  0.00000E+00  9.000E+00
      25     1     1     2     0     0 -1.128936945E+01 -3.067361217E+01 -2.690704268E+02  2.984831904E+02  1.250000000E+02  0.00000E+00  9.000E+00
      25     1     1     2     0     0 -3.192140184E+01  4.153558658E+01  1.297409395E+02  1.876216731E+02  1.250000000E+02  0.00000E+00  9.000E+00
      -1     1     1     2     0   502  4.321077129E+01 -1.086197441E+01  2.544560164E+02  2.583273457E+02  2.697398305E-06  0.00000E+00  9.000E+00
#rwgt            1           1   4.3715394524284086E-002           3      242559           0
</event>
<event>
      5   9999  3.79277E-02  7.39188E+01 -1.00000E+00  1.30034E-01
      21    -1     0     0   502   501  0.000000000E+00  0.000000000E+00  2.230972845E+02  2.230972845E+02  0.000000000E+00  0.00000E+00  9.000E+00
      21    -1     0     0   511   502  0.000000000E+00  0.000000000E+00 -4.399038839E+02  4.399038839E+02  0.000000000E+00  0.00000E+00  9.000E+00
      25     1     1     2     0     0 -1.957182279E+02  4.266899493E+01  6.757114465E+00  2.362137304E+02  1.250000000E+02  0.00000E+00  9.000E+00
      25     1     1     2     0     0  2.417167791E+02  1.519402579E+01 -1.158479977E+02  2.961479669E+02  1.250000000E+02  0.00000E+00  9.000E+00
      21     1     1     2   511   501 -4.599855128E+01 -5.786302073E+01 -1.077157161E+02  1.306394710E+02  0.000000000E+00  0.00000E+00  9.000E+00
#rwgt            1           1   2.8147782659860860E-002           3      242762           0
</event>
<event>
      5   9999  3.79277E-02  2.54125E+01 -1.00000E+00  1.58220E-01
      21    -1     0     0   502   501  0.000000000E+00  0.000000000E+00  1.992783163E+02  1.992783163E+02  0.000000000E+00  0.00000E+00  9.000E+00
      21    -1     0     0   512   502  0.000000000E+00  0.000000000E+00 -1.738849293E+02  1.738849293E+02  0.000000000E+00  0.00000E+00  9.000E+00
      25     1     1     2     0     0  1.671979852E+01  1.152978366E+02  3.420659311E+01  1.742648381E+02  1.250000000E+02  0.00000E+00  9.000E+00
      25     1     1     2     0     0  3.052850459E+00 -9.933418683E+01  1.947097159E+01  1.608748560E+02  1.250000000E+02  0.00000E+00  9.000E+00
      21     1     1     2   512   501 -1.977264898E+01 -1.596364975E+01 -2.828417769E+01  3.802355150E+01  4.768371582E-07  0.00000E+00  9.000E+00
#rwgt            1           1   3.6550962405873799E-002           3      242832           0
</event>
<event>
      5   9999  3.79277E-02  1.14464E+01 -1.00000E+00  1.89211E-01
       2    -1     0     0   502     0  0.000000000E+00  0.000000000E+00  8.271915192E+02  8.271915192E+02  0.000000000E+00  0.00000E+00  9.000E+00
      21    -1     0     0   501   502  0.000000000E+00  0.000000000E+00 -2.726662351E+02  2.726662351E+02  0.000000000E+00  0.00000E+00  9.000E+00
      25     1     1     2     0     0 -9.990246392E+01  1.328949846E+02 -1.771665891E+02  2.732299023E+02  1.250000000E+02  0.00000E+00  9.000E+00
      25     1     1     2     0     0  9.066985186E+01 -1.396609954E+02  1.811961876E+02  2.760131774E+02  1.250000000E+02  0.00000E+00  9.000E+00
       2     1     1     2   501     0  9.232612055E+00  6.766010817E+00  5.504956857E+02  5.506146747E+02  7.629394531E-06  0.00000E+00  9.000E+00
#rwgt            1           1   2.4189686470718244E-002           3      242936           0
</event>
<event>
      5   9999  3.79277E-02  5.29389E+01 -1.00000E+00  1.37675E-01
      21    -1     0     0   502   501  0.000000000E+00  0.000000000E+00  6.434146007E+01  6.434146007E+01  0.000000000E+00  0.00000E+00  9.000E+00
      -5    -1     0     0     0   502  0.000000000E+00  0.000000000E+00 -8.704142788E+02  8.704142788E+02  0.000000000E+00  0.00000E+00  9.000E+00
      25     1     1     2     0     0 -3.577382074E+00 -1.249265572E+02 -2.765581867E+02  3.282207687E+02  1.250000000E+02  0.00000E+00  9.000E+00
      25     1     1     2     0     0  2.357308394E+01  1.739439447E+02 -2.903436420E+02  3.615751881E+02  1.250000000E+02  0.00000E+00  9.000E+00
      -5     1     1     2     0   501 -1.999570186E+01 -4.901738752E+01 -2.391709900E+02  2.449597821E+02  2.697398305E-06  0.00000E+00  9.000E+00
#rwgt            1           1   4.5114223139564535E-002           3      243214           0
</event>
<event>
      5   9999  3.79277E-02  3.19413E+01 -1.00000E+00  1.51172E-01
      21    -1     0     0   511   501  0.000000000E+00  0.000000000E+00  1.963421882E+02  1.963421882E+02  0.000000000E+00  0.00000E+00  9.000E+00
      21    -1     0     0   501   502  0.000000000E+00  0.000000000E+00 -2.191338135E+02  2.191338135E+02  0.000000000E+00  0.00000E+00  9.000E+00
      25     1     1     2     0     0 -9.502151629E+01 -4.888121081E+01 -1.206918458E+02  2.039852518E+02  1.250000000E+02  0.00000E+00  9.000E+00
      25     1     1     2     0     0  6.495910670E+01  5.967452573E+01  9.336736152E+01  1.792294584E+02  1.250000000E+02  0.00000E+00  9.000E+00
      21     1     1     2   511   502  3.006240959E+01 -1.079331492E+01  4.532858901E+00  3.226129147E+01  6.136673773E-07  0.00000E+00  9.000E+00
#rwgt            1           1   3.8002280839897616E-002           3      243371           0
</event>
<event>
      5   9999  3.79277E-02  4.35007E+01 -1.00000E+00  1.42616E-01
      21    -1     0     0   502   501  0.000000000E+00  0.000000000E+00  1.983152725E+02  1.983152725E+02  0.000000000E+00  0.00000E+00  9.000E+00
      21    -1     0     0   512   502  0.000000000E+00  0.000000000E+00 -2.134436541E+02  2.134436541E+02  0.000000000E+00  0.00000E+00  9.000E+00
      25     1     1     2     0     0  9.715986995E+01  2.634550841E+01 -5.698035182E+01  1.703111465E+02  1.250000000E+02  0.00000E+00  9.000E+00
      25     1     1     2     0     0 -1.032873637E+02 -6.941245709E+01  6.985490616E+01  1.897131430E+02  1.250000000E+02  0.00000E+00  9.000E+00
      21     1     1     2   512   501  6.127493735E+00  4.306694867E+01 -2.800293596E+01  5.173463704E+01  1.168007728E-06  0.00000E+00  9.000E+00
#rwgt            1           1  0.10596307760071955                3      243572           0
</event>
<event>
      5   9999  3.79277E-02  8.42263E+01 -1.00000E+00  1.27277E-01
       1    -1     0     0   502     0  0.000000000E+00  0.000000000E+00  2.607723672E+02  2.607723672E+02  0.000000000E+00  0.00000E+00  9.000E+00
      21    -1     0     0   501   502  0.000000000E+00  0.000000000E+00 -4.529392546E+02  4.529392546E+02  0.000000000E+00  0.00000E+00  9.000E+00
      25     1     1     2     0     0 -9.700025508E+01  2.622134027E+01 -4.614951328E+01  1.668873445E+02  1.250000000E+02  0.00000E+00  9.000E+00
      25     1     1     2     0     0  1.448279209E+01 -9.341182454E+00 -3.252058671E+02  3.488278443E+02  1.250000000E+02  0.00000E+00  9.000E+00
       1     1     1     2   501     0  8.251746299E+01 -1.688015782E+01  1.791884931E+02  1.979964330E+02  2.697398305E-06  0.00000E+00  9.000E+00
#rwgt            1           1   5.0540545444142708E-002           3      243653           0
</event>
<event>
      5   9999  3.79277E-02  1.86467E+01 -1.00000E+00  1.68919E-01
      21    -1     0     0   511   501  0.000000000E+00  0.000000000E+00  1.624752711E+02  1.624752711E+02  0.000000000E+00  0.00000E+00  9.000E+00
      21    -1     0     0   501   502  0.000000000E+00  0.000000000E+00 -2.665630178E+02  2.665630178E+02  0.000000000E+00  0.00000E+00  9.000E+00
      25     1     1     2     0     0  2.751118335E+01 -1.416730924E+02 -9.310018706E+01  2.124165134E+02  1.250000000E+02  0.00000E+00  9.000E+00
      25     1     1     2     0     0 -9.873335208E+00  1.356228246E+02 -3.315210678E+01  1.876568557E+02  1.250000000E+02  0.00000E+00  9.000E+00
      21     1     1     2   511   502 -1.763784815E+01  6.050267819E+00  2.216454714E+01  2.896491978E+01  4.768371582E-07  0.00000E+00  9.000E+00
#rwgt            1           1  0.10857808277548713                3      243785           0
</event>
<event>
      5   9999  3.79277E-02  8.85287E+01 -1.00000E+00  1.26256E-01
      21    -1     0     0   502   501  0.000000000E+00  0.000000000E+00  3.943268676E+02  3.943268676E+02  0.000000000E+00  0.00000E+00  9.000E+00
      21    -1     0     0   512   502  0.000000000E+00  0.000000000E+00 -1.252861373E+02  1.252861373E+02  0.000000000E+00  0.00000E+00  9.000E+00
      25     1     1     2     0     0 -5.077919145E+00  8.500160260E+01  8.247342915E+01  1.722728192E+02  1.250000000E+02  0.00000E+00  9.000E+00
      25     1     1     2     0     0 -5.341823788E+01 -1.514511037E+02  1.425818256E+02  2.484864623E+02  1.250000000E+02  0.00000E+00  9.000E+00
      21     1     1     2   512   501  5.849615702E+01  6.644950115E+01  4.398547551E+01  9.885372348E+01  6.743495762E-07  0.00000E+00  9.000E+00
#rwgt            1           1   2.1983711765612372E-002           3      244084           0
</event>
<event>
      5   9999  3.79277E-02  7.11417E+01 -1.00000E+00  1.30866E-01
      21    -1     0     0   502   511  0.000000000E+00  0.000000000E+00  2.659853427E+03  2.659853427E+03  0.000000000E+00  0.00000E+00  9.000E+00
      21    -1     0     0   501   502  0.000000000E+00  0.000000000E+00 -4.350725264E+01  4.350725264E+01  0.000000000E+00  0.00000E+00  9.000E+00
      25     1     1     2     0     0  5.408199265E+01 -2.655888126E+02  1.113399405E+03  1.152712242E+03  1.250000000E+02  0.00000E+00  9.000E+00
      25     1     1     2     0     0  1.691260269E+01  2.610154737E+02  9.529357072E+02  9.960555083E+02  1.250000000E+02  0.00000E+00  9.000E+00
      21     1     1     2   501   511 -7.099459534E+01  4.573338915E+00  5.500110621E+02  5.545929286E+02  1.525878906E-05  0.00000E+00  9.000E+00
#rwgt            1           1  0.10160730414353826                3      244130           0
</event>
<event>
      5   9999  3.79277E-02  5.63022E+01 -1.00000E+00  1.36196E-01
      21    -1     0     0   512   501  0.000000000E+00  0.000000000E+00  1.144998716E+02  1.144998716E+02  0.000000000E+00  0.00000E+00  9.000E+00
      21    -1     0     0   501   502  0.000000000E+00  0.000000000E+00 -6.800083710E+02  6.800083710E+02  0.000000000E+00  0.00000E+00  9.000E+00
      25     1     1     2     0     0  9.228944244E+01 -1.888282082E+02 -2.008722186E+02  3.164618170E+02  1.250000000E+02  0.00000E+00  9.000E+00
      25     1     1     2     0     0 -1.264938444E+02  1.441069104E+02 -3.527460704E+02  4.205024191E+02  1.250000000E+02  0.00000E+00  9.000E+00
      21     1     1     2   512   502  3.420440195E+01  4.472129777E+01 -1.189021044E+01  5.754400656E+01  1.305872339E-06  0.00000E+00  9.000E+00
#rwgt            1           1   3.6519980775122980E-002           3      244312           0
</event>
<event>
      5   9999 -4.22870E-02  4.11617E+01 -1.00000E+00  1.44073E-01
      21    -1     0     0   502   501  0.000000000E+00  0.000000000E+00  2.822958989E+02  2.822958989E+02  0.000000000E+00  0.00000E+00  9.000E+00
      21    -1     0     0   501   511  0.000000000E+00  0.000000000E+00 -4.949854657E+02  4.949854657E+02  0.000000000E+00  0.00000E+00  9.000E+00
      25     1     1     2     0     0  2.450522499E+02  7.130607876E+01  9.704358603E+01  3.002958868E+02  1.250000000E+02  0.00000E+00  9.000E+00
      25     1     1     2     0     0 -2.854006367E+02 -7.944799493E+01 -2.724678888E+02  4.214608614E+02  1.250000000E+02  0.00000E+00  9.000E+00
      21     1     1     2   502   511  4.034838681E+01  8.141916172E+00 -3.726526408E+01  5.552461638E+01  4.768371582E-07  0.00000E+00  9.000E+00
#rwgt            1           1 -0.60172296217205379                3      244402           0
</event>
<event>
      5   9999  3.79277E-02  3.94775E+02 -1.00000E+00  1.01858E-01
       1    -1     0     0   502     0  0.000000000E+00  0.000000000E+00  1.112508036E+03  1.112508036E+03  0.000000000E+00  0.00000E+00  9.000E+00
      21    -1     0     0   501   502  0.000000000E+00  0.000000000E+00 -1.003419120E+03  1.003419120E+03  0.000000000E+00  0.00000E+00  9.000E+00
      25     1     1     2     0     0 -2.056612156E+02  4.419927631E+02 -7.147656681E+02  8.741676604E+02  1.250000000E+02  0.00000E+00  9.000E+00
      25     1     1     2     0     0 -4.528786928E+01 -1.372444858E+02 -1.151841174E+02  2.231130227E+02  1.250000000E+02  0.00000E+00  9.000E+00
       1     1     1     2   501     0  2.509490849E+02 -3.047482773E+02  9.390387009E+02  1.018646473E+03  1.078959322E-05  0.00000E+00  9.000E+00
#rwgt            1           1   3.8257656110292429E-002           3      244560           0
</event>
<event>
      5   9999  3.79277E-02  1.47099E+02 -1.00000E+00  1.16731E-01
      21    -1     0     0   502   501  0.000000000E+00  0.000000000E+00  8.220314220E+02  8.220314220E+02  0.000000000E+00  0.00000E+00  9.000E+00
       1    -1     0     0   501     0  0.000000000E+00  0.000000000E+00 -5.696663950E+02  5.696663950E+02  0.000000000E+00  0.00000E+00  9.000E+00
      25     1     1     2     0     0 -9.618080786E+01  2.086484295E+02  1.728593529E+02  3.135127922E+02  1.250000000E+02  0.00000E+00  9.000E+00
      25     1     1     2     0     0  1.245688825E+02 -6.431475865E+01  5.521272682E+02  5.832009216E+02  1.250000000E+02  0.00000E+00  9.000E+00
       1     1     1     2   502     0 -2.838807463E+01 -1.443336709E+02 -4.726215941E+02  4.949841033E+02  0.000000000E+00  0.00000E+00  9.000E+00
#rwgt            1           1   3.8783533296038869E-002           3      244647           0
</event>
<event>
      5   9999  3.79277E-02  2.82449E+01 -1.00000E+00  1.54881E-01
      21    -1     0     0   502   511  0.000000000E+00  0.000000000E+00  1.389814240E+02  1.389814240E+02  0.000000000E+00  0.00000E+00  9.000E+00
      21    -1     0     0   501   502  0.000000000E+00  0.000000000E+00 -3.829168623E+02  3.829168623E+02  0.000000000E+00  0.00000E+00  9.000E+00
      25     1     1     2     0     0  7.942237118E+01 -1.387770321E+02 -1.368648181E+02  2.447937011E+02  1.250000000E+02  0.00000E+00  9.000E+00
      25     1     1     2     0     0 -9.134088849E+01  1.131699648E+02 -1.372083246E+02  2.358001764E+02  1.250000000E+02  0.00000E+00  9.000E+00
      21     1     1     2   501   511  1.191851731E+01  2.560706731E+01  3.013770453E+01  4.130440879E+01  7.539457465E-07  0.00000E+00  9.000E+00
#rwgt            1           1   3.5929210119692613E-002           3      244743           0
</event>
<event>
      5   9999  3.79277E-02  9.94733E+01 -1.00000E+00  1.23931E-01
      21    -1     0     0   502   512  0.000000000E+00  0.000000000E+00  1.249384247E+02  1.249384247E+02  0.000000000E+00  0.00000E+00  9.000E+00
      21    -1     0     0   501   502  0.000000000E+00  0.000000000E+00 -1.339975467E+03  1.339975467E+03  0.000000000E+00  0.00000E+00  9.000E+00
      25     1     1     2     0     0  2.829515936E+01  9.246396775E+01 -9.858255507E+02  9.984123486E+02  1.250000000E+02  0.00000E+00  9.000E+00
      25     1     1     2     0     0 -1.109611610E+02 -3.713516962E+01 -2.993012707E+02  3.448153865E+02  1.250000000E+02  0.00000E+00  9.000E+00
      21     1     1     2   501   512  8.266600168E+01 -5.532879813E+01  7.008977868E+01  1.216861570E+02  4.046097457E-06  0.00000E+00  9.000E+00
#rwgt            1           1   4.9897489043065166E-002           3      244883           0
</event>
<event>
      5   9999  3.79277E-02  4.98425E+01 -1.00000E+00  1.39154E-01
      21    -1     0     0   511   501  0.000000000E+00  0.000000000E+00  4.332411424E+01  4.332411424E+01  0.000000000E+00  0.00000E+00  9.000E+00
      21    -1     0     0   501   502  0.000000000E+00  0.000000000E+00 -2.050117379E+03  2.050117379E+03  0.000000000E+00  0.00000E+00  9.000E+00
      25     1     1     2     0     0 -3.409598179E+01 -1.470133103E+02 -1.496048893E+03  1.508828267E+03  1.250000000E+02  0.00000E+00  9.000E+00
      25     1     1     2     0     0 -1.420450574E+01  1.593150687E+02 -4.904443660E+02  5.307953798E+02  1.250000000E+02  0.00000E+00  9.000E+00
      21     1     1     2   511   502  4.830048753E+01 -1.230175837E+01 -2.030000588E+01  5.381784642E+01  1.994752947E-06  0.00000E+00  9.000E+00
#rwgt            1           1  0.12986645645846351                3      245094           0
</event>
<event>
      5   9999  3.79277E-02  1.90574E+02 -1.00000E+00  1.12417E-01
      21    -1     0     0   502   501  0.000000000E+00  0.000000000E+00  5.338495192E+02  5.338495192E+02  0.000000000E+00  0.00000E+00  9.000E+00
       1    -1     0     0   501     0  0.000000000E+00  0.000000000E+00 -5.812444444E+02  5.812444444E+02  0.000000000E+00  0.00000E+00  9.000E+00
      25     1     1     2     0     0 -4.740657784E+01  1.902774429E+02  1.926305314E+02  3.019675654E+02  1.250000000E+02  0.00000E+00  9.000E+00
      25     1     1     2     0     0 -9.621717446E+01 -6.501576861E+01  2.412546087E+02  2.954887156E+02  1.250000000E+02  0.00000E+00  9.000E+00
       1     1     1     2   502     0  1.436237523E+02 -1.252616743E+02 -4.812800653E+02  5.176376826E+02  7.629394531E-06  0.00000E+00  9.000E+00
#rwgt            1           1   2.4579168638506125E-002           3      245329           0
</event>
<event>
      5   9999  3.79277E-02  4.12645E+01 -1.00000E+00  1.44007E-01
      21    -1     0     0   502   501  0.000000000E+00  0.000000000E+00  2.629482744E+02  2.629482744E+02  0.000000000E+00  0.00000E+00  9.000E+00
      21    -1     0     0   511   502  0.000000000E+00  0.000000000E+00 -7.866012853E+02  7.866012853E+02  0.000000000E+00  0.00000E+00  9.000E+00
      25     1     1     2     0     0  1.042359107E+02  2.406026950E+02  9.516856963E+01  3.056743996E+02  1.250000000E+02  0.00000E+00  9.000E+00
      25     1     1     2     0     0 -1.092692438E+02 -1.996462840E+02 -2.126807010E+02  3.356433924E+02  1.250000000E+02  0.00000E+00  9.000E+00
      21     1     1     2   511   501  5.033333095E+00 -4.095641106E+01 -4.061408796E+02  4.082317677E+02  0.000000000E+00  0.00000E+00  9.000E+00
#rwgt            1           1   2.7025147487968190E-002           3      245411           0
</event>
<event>
      5   9999  3.79277E-02  7.84363E+01 -1.00000E+00  1.28766E-01
      21    -1     0     0   512   501  0.000000000E+00  0.000000000E+00  1.013895994E+03  1.013895994E+03  0.000000000E+00  0.00000E+00  9.000E+00
      21    -1     0     0   501   502  0.000000000E+00  0.000000000E+00 -6.449831532E+01  6.449831532E+01  0.000000000E+00  0.00000E+00  9.000E+00
      25     1     1     2     0     0 -1.109911406E+02  1.014638630E+02  1.816181163E+02  2.668784161E+02  1.250000000E+02  0.00000E+00  9.000E+00
      25     1     1     2     0     0  3.789129674E+01 -1.299010346E+02  5.514868767E+02  5.814402844E+02  1.250000000E+02  0.00000E+00  9.000E+00
      21     1     1     2   512   502  7.309984390E+01  2.843717161E+01  2.162926852E+02  2.300756084E+02  2.697398305E-06  0.00000E+00  9.000E+00
#rwgt            2          11   2.2406249151223239E-003           3      245568           0
</event>
<event>
      5   9999  3.79277E-02  1.06817E+02 -1.00000E+00  1.22553E-01
      21    -1     0     0   502   501  0.000000000E+00  0.000000000E+00  3.068360869E+02  3.068360869E+02  0.000000000E+00  0.00000E+00  9.000E+00
      21    -1     0     0   501   511  0.000000000E+00  0.000000000E+00 -2.251811628E+02  2.251811628E+02  0.000000000E+00  0.00000E+00  9.000E+00
      25     1     1     2     0     0  1.164605462E+02  1.097167989E+02  1.703856597E+01  2.037551165E+02  1.250000000E+02  0.00000E+00  9.000E+00
      25     1     1     2     0     0 -1.228161505E+02 -3.088984050E+00  1.155440939E+02  2.099256684E+02  1.250000000E+02  0.00000E+00  9.000E+00
      21     1     1     2   502   511  6.355604249E+00 -1.066278148E+02 -5.092773577E+01  1.183364647E+02  1.651812370E-06  0.00000E+00  9.000E+00
#rwgt            1           1   6.5714039628145876E-003           3      246188           0
</event>
<event>
      5   9999  3.79277E-02  5.82907E+01 -1.00000E+00  1.35378E-01
      21    -1     0     0   502   512  0.000000000E+00  0.000000000E+00  7.423670753E+02  7.423670753E+02  0.000000000E+00  0.00000E+00  9.000E+00
      21    -1     0     0   501   502  0.000000000E+00  0.000000000E+00 -2.907282339E+02  2.907282339E+02  0.000000000E+00  0.00000E+00  9.000E+00
      25     1     1     2     0     0  3.721419815E+01  1.134327275E+02  2.404945373E+02  2.961663429E+02  1.250000000E+02  0.00000E+00  9.000E+00
      25     1     1     2     0     0 -9.341377598E+01 -1.289058271E+02 -2.216881425E+02  3.001890710E+02  1.250000000E+02  0.00000E+00  9.000E+00
      21     1     1     2   501   512  5.619957782E+01  1.547309964E+01  4.328324466E+02  4.367398953E+02  5.394796609E-06  0.00000E+00  9.000E+00
#rwgt            1           1   3.3870235571188220E-002           3      246310           0
</event>
<event>
      5   9999  3.79277E-02  3.66339E+01 -1.00000E+00  1.47248E-01
      21    -1     0     0   511   501  0.000000000E+00  0.000000000E+00  3.471907481E+02  3.471907481E+02  0.000000000E+00  0.00000E+00  9.000E+00
      21    -1     0     0   501   502  0.000000000E+00  0.000000000E+00 -6.236067997E+02  6.236067997E+02  0.000000000E+00  0.00000E+00  9.000E+00
      25     1     1     2     0     0 -1.382694350E+01  1.052086033E+02 -4.161949516E+02  4.473290425E+02  1.250000000E+02  0.00000E+00  9.000E+00
      25     1     1     2     0     0  2.938849930E+01 -7.204414718E+01 -1.623236220E+02  2.191529176E+02  1.250000000E+02  0.00000E+00  9.000E+00
      21     1     1     2   511   502 -1.556155580E+01 -3.316445614E+01  3.021025219E+02  3.043155877E+02  5.394796609E-06  0.00000E+00  9.000E+00
#rwgt            1           1   3.6938196129977195E-002           3      246390           0
</event>
<event>
      5   9999  3.79277E-02  5.62183E+01 -1.00000E+00  1.36232E-01
      21    -1     0     0   512   501  0.000000000E+00  0.000000000E+00  3.734181886E+02  3.734181886E+02  0.000000000E+00  0.00000E+00  9.000E+00
      21    -1     0     0   501   502  0.000000000E+00  0.000000000E+00 -2.417396986E+02  2.417396986E+02  0.000000000E+00  0.00000E+00  9.000E+00
      25     1     1     2     0     0 -1.000975729E+02 -2.305669396E+02 -1.217215867E+01  2.809871869E+02  1.250000000E+02  0.00000E+00  9.000E+00
      25     1     1     2     0     0  6.095731473E+01  1.902118399E+02  7.940273467E+01  2.486486126E+02  1.250000000E+02  0.00000E+00  9.000E+00
      21     1     1     2   512   502  3.914025815E+01  4.035509967E+01  6.444791404E+01  8.552208780E+01  1.907348633E-06  0.00000E+00  9.000E+00
#rwgt            1           1   3.7293646984994329E-002           3      246474           0
</event>
<event>
      5   9999  3.79277E-02  7.60271E+01 -1.00000E+00  1.29429E-01
      21    -1     0     0   511   501  0.000000000E+00  0.000000000E+00  3.073344284E+02  3.073344284E+02  0.000000000E+00  0.00000E+00  9.000E+00
      21    -1     0     0   501   502  0.000000000E+00  0.000000000E+00 -5.641970835E+02  5.641970835E+02  0.000000000E+00  0.00000E+00  9.000E+00
      25     1     1     2     0     0  6.456788481E+01  9.946708153E+01 -4.345042823E+02  4.674202428E+02  1.250000000E+02  0.00000E+00  9.000E+00
      25     1     1     2     0     0 -1.255538858E+02 -5.407082146E+01 -2.571033462E+01  1.870119068E+02  1.250000000E+02  0.00000E+00  9.000E+00
      21     1     1     2   511   502  6.098600099E+01 -4.539626006E+01  2.033519618E+02  2.170993623E+02  3.814697266E-06  0.00000E+00  9.000E+00
#rwgt            1           1   2.9576393141379005E-002           3      246607           0
</event>
<event>
      5   9999  3.79277E-02  3.66647E+01 -1.00000E+00  1.47225E-01
       2    -1     0     0   502     0  0.000000000E+00  0.000000000E+00  5.517641158E+02  5.517641158E+02  0.000000000E+00  0.00000E+00  9.000E+00
      21    -1     0     0   501   502  0.000000000E+00  0.000000000E+00 -3.230183623E+02  3.230183623E+02  0.000000000E+00  0.00000E+00  9.000E+00
      25     1     1     2     0     0  6.212843060E+01  8.468036259E+01  7.715828690E+00  1.634479725E+02  1.250000000E+02  0.00000E+00  9.000E+00
      25     1     1     2     0     0 -5.200062451E+01 -1.199185716E+02 -2.109132838E+02  2.778379781E+02  1.250000000E+02  0.00000E+00  9.000E+00
       2     1     1     2   501     0 -1.012780609E+01  3.523820903E+01  4.319432087E+02  4.334965275E+02  0.000000000E+00  0.00000E+00  9.000E+00
#rwgt            1           1   4.7552766958806954E-002           3      246681           0
</event>
<event>
      5   9999  3.79277E-02  1.87197E+01 -1.00000E+00  1.68775E-01
      21    -1     0     0   502   501  0.000000000E+00  0.000000000E+00  2.713006095E+02  2.713006095E+02  0.000000000E+00  0.00000E+00  9.000E+00
      21    -1     0     0   501   511  0.000000000E+00  0.000000000E+00 -2.186809957E+02  2.186809957E+02  0.000000000E+00  0.00000E+00  9.000E+00
      25     1     1     2     0     0  5.621958302E-01  1.640716805E+02 -9.111189988E+01  2.254910435E+02  1.250000000E+02  0.00000E+00  9.000E+00
      25     1     1     2     0     0 -4.948695249E+00 -1.458731756E+02  1.510134078E+02  2.444044236E+02  1.250000000E+02  0.00000E+00  9.000E+00
      21     1     1     2   502   511  4.386499419E+00 -1.819850494E+01 -7.281894115E+00  2.008613803E+01  1.884864366E-07  0.00000E+00  9.000E+00
#rwgt            1           1   3.3530379611768031E-002           3      246891           0
</event>
<event>
      5   9999  3.79277E-02  6.03855E+01 -1.00000E+00  1.34555E-01
       1    -1     0     0   502     0  0.000000000E+00  0.000000000E+00  2.135897077E+02  2.135897077E+02  0.000000000E+00  0.00000E+00  9.000E+00
      21    -1     0     0   501   502  0.000000000E+00  0.000000000E+00 -1.654559116E+03  1.654559116E+03  0.000000000E+00  0.00000E+00  9.000E+00
      25     1     1     2     0     0 -1.655894830E+02 -1.307141317E+02 -9.142691701E+02  9.465828946E+02  1.250000000E+02  0.00000E+00  9.000E+00
      25     1     1     2     0     0  1.275602273E+02  1.776202202E+02 -6.968725959E+02  7.409972801E+02  1.250000000E+02  0.00000E+00  9.000E+00
       1     1     1     2   501     0  3.802925566E+01 -4.690608859E+01  1.701723580E+02  1.805686486E+02  1.907348633E-06  0.00000E+00  9.000E+00
#rwgt            1           1   4.0976695202244423E-002           3      247094           0
</event>
<event>
      5   9999  3.79277E-02  7.93732E+01 -1.00000E+00  1.28515E-01
      21    -1     0     0   511   501  0.000000000E+00  0.000000000E+00  4.951356666E+02  4.951356666E+02  0.000000000E+00  0.00000E+00  9.000E+00
      21    -1     0     0   501   502  0.000000000E+00  0.000000000E+00 -2.678227796E+02  2.678227796E+02  0.000000000E+00  0.00000E+00  9.000E+00
      25     1     1     2     0     0  1.856882985E+02 -1.956176243E+02 -7.754062362E+01  3.072197055E+02  1.250000000E+02  0.00000E+00  9.000E+00
      25     1     1     2     0     0 -1.152215076E+02  1.590864063E+02  1.372036032E+02  2.702486063E+02  1.250000000E+02  0.00000E+00  9.000E+00
      21     1     1     2   511   502 -7.046679094E+01  3.653121798E+01  1.676499074E+02  1.854901344E+02  1.907348633E-06  0.00000E+00  9.000E+00
#rwgt            1           1   4.0768251953535950E-002           3      247176           0
</event>
<event>
      5   9999  3.79277E-02  2.17273E+01 -1.00000E+00  1.63454E-01
      21    -1     0     0   502   512  0.000000000E+00  0.000000000E+00  1.703567185E+02  1.703567185E+02  0.000000000E+00  0.00000E+00  9.000E+00
      21    -1     0     0   501   502  0.000000000E+00  0.000000000E+00 -2.024010393E+02  2.024010393E+02  0.000000000E+00  0.00000E+00  9.000E+00
      25     1     1     2     0     0 -1.615316228E+01  1.206478864E+02 -4.938885162E+01  1.813314529E+02  1.250000000E+02  0.00000E+00  9.000E+00
      25     1     1     2     0     0 -3.077346122E-01 -1.064663794E+02  9.344133242E-01  1.641982270E+02  1.250000000E+02  0.00000E+00  9.000E+00
      21     1     1     2   501   512  1.646089690E+01 -1.418150707E+01  1.641011753E+01  2.722807791E+01  0.000000000E+00  0.00000E+00  9.000E+00
#rwgt            1           1   3.7592798025422619E-002           3      247313           0
</event>
<event>
      5   9999  3.79277E-02  1.70220E+02 -1.00000E+00  1.14258E-01
      21    -1     0     0   502   511  0.000000000E+00  0.000000000E+00  1.779388073E+02  1.779388073E+02  0.000000000E+00  0.00000E+00  9.000E+00
      21    -1     0     0   501   502  0.000000000E+00  0.000000000E+00 -1.717540757E+03  1.717540757E+03  0.000000000E+00  0.00000E+00  9.000E+00
      25     1     1     2     0     0  4.525941472E+01  1.192562680E+02 -1.481044310E+02  2.320137809E+02  1.250000000E+02  0.00000E+00  9.000E+00
      25     1     1     2     0     0 -1.329116122E+02 -2.651740726E+02 -1.448594210E+03  1.483924854E+03  1.250000000E+02  0.00000E+00  9.000E+00
      21     1     1     2   501   511  8.765219748E+01  1.459178046E+02  5.709669117E+01  1.795409301E+02  4.211311753E-06  0.00000E+00  9.000E+00
#rwgt            1           1   1.0495339736355412E-002           3      247494           0
</event>
<event>
      5   9999  3.79277E-02  6.76356E+01 -1.00000E+00  1.31981E-01
      21    -1     0     0   502   501  0.000000000E+00  0.000000000E+00  5.756664100E+02  5.756664100E+02  0.000000000E+00  0.00000E+00  9.000E+00
      21    -1     0     0   512   502  0.000000000E+00  0.000000000E+00 -4.581193031E+02  4.581193031E+02  0.000000000E+00  0.00000E+00  9.000E+00
      25     1     1     2     0     0  2.248428807E+01  4.782920569E+01 -6.026695892E+01  1.484933752E+02  1.250000000E+02  0.00000E+00  9.000E+00
      25     1     1     2     0     0  3.905519334E+01 -7.589101815E+01  5.173750096E+02  5.390609014E+02  1.250000000E+02  0.00000E+00  9.000E+00
      21     1     1     2   512   501 -6.153948141E+01  2.806181246E+01 -3.395609438E+02  3.462314365E+02  5.394796609E-06  0.00000E+00  9.000E+00
#rwgt            1           1   2.1542959546089750E-002           3      247565           0
</event>
<event>
      5   9999  3.79277E-02  4.98265E+01 -1.00000E+00  1.39162E-01
      21    -1     0     0   502   511  0.000000000E+00  0.000000000E+00  4.995948291E+02  4.995948291E+02  0.000000000E+00  0.00000E+00  9.000E+00
      21    -1     0     0   501   502  0.000000000E+00  0.000000000E+00 -1.012575203E+02  1.012575203E+02  0.000000000E+00  0.00000E+00  9.000E+00
      25     1     1     2     0     0 -3.219967442E+01 -1.401338570E+02  7.750706675E+01  2.056858340E+02  1.250000000E+02  0.00000E+00  9.000E+00
      25     1     1     2     0     0 -1.647315485E+01  1.294740336E+02  2.573779769E+02  3.144889715E+02  1.250000000E+02  0.00000E+00  9.000E+00
      21     1     1     2   501   511  4.867282927E+01  1.065982346E+01  6.345226509E+01  8.067754390E+01  1.348699152E-06  0.00000E+00  9.000E+00
#rwgt            1           1   3.2175553862136837E-002           3      247649           0
</event>
<event>
      5   9999  3.79277E-02  1.59559E+01 -1.00000E+00  1.74893E-01
      21    -1     0     0   502   501  0.000000000E+00  0.000000000E+00  6.017290314E+01  6.017290314E+01  0.000000000E+00  0.00000E+00  9.000E+00
      21    -1     0     0   501   512  0.000000000E+00  0.000000000E+00 -1.636680093E+03  1.636680093E+03  0.000000000E+00  0.00000E+00  9.000E+00
      25     1     1     2     0     0 -2.337999154E+02  6.088529446E+01 -8.153433886E+02  8.595226936E+02  1.250000000E+02  0.00000E+00  9.000E+00
      25     1     1     2     0     0  2.486494698E+02 -5.504743855E+01 -4.938028991E+02  5.694937071E+02  1.250000000E+02  0.00000E+00  9.000E+00
      21     1     1     2   502   512 -1.484955441E+01 -5.837855913E+00 -2.673609026E+02  2.678365958E+02  0.000000000E+00  0.00000E+00  9.000E+00
#rwgt            1           1  0.10461959838292915                3      247779           0
</event>
<event>
      5   9999  3.79277E-02  6.46203E+01 -1.00000E+00  1.33004E-01
      21    -1     0     0   502   501  0.000000000E+00  0.000000000E+00  3.471275294E+01  3.471275294E+01  0.000000000E+00  0.00000E+00  9.000E+00
      21    -1     0     0   511   502  0.000000000E+00  0.000000000E+00 -3.129648160E+03  3.129648160E+03  0.000000000E+00  0.00000E+00  9.000E+00
      25     1     1     2     0     0 -7.715201441E+01 -1.920733260E+02 -1.033314736E+03  1.061229918E+03  1.250000000E+02  0.00000E+00  9.000E+00
      25     1     1     2     0     0  6.139316787E+01  2.547426436E+02 -1.048521244E+03  1.087972764E+03  1.250000000E+02  0.00000E+00  9.000E+00
      21     1     1     2   511   501  1.575884654E+01 -6.266931755E+01 -1.013099427E+03  1.015158231E+03  1.525878906E-05  0.00000E+00  9.000E+00
#rwgt            1           1  0.10509667498268339                3      247987           0
</event>
<event>
      5   9999  3.79277E-02  2.16784E+01 -1.00000E+00  1.63532E-01
      21    -1     0     0   512   501  0.000000000E+00  0.000000000E+00  5.343076482E+01  5.343076482E+01  0.000000000E+00  0.00000E+00  9.000E+00
      21    -1     0     0   501   502  0.000000000E+00  0.000000000E+00 -8.234168938E+02  8.234168938E+02  0.000000000E+00  0.00000E+00  9.000E+00
      25     1     1     2     0     0 -1.272153545E+02 -2.334992231E+01 -2.457577557E+02  3.045502254E+02  1.250000000E+02  0.00000E+00  9.000E+00
      25     1     1     2     0     0  1.445618182E+02  1.034784152E+01 -5.137050201E+02  5.481998220E+02  1.250000000E+02  0.00000E+00  9.000E+00
      21     1     1     2   512   502 -1.734646364E+01  1.300208078E+01 -1.052335305E+01  2.409761119E+01  4.460403188E-07  0.00000E+00  9.000E+00
#rwgt            1           1   3.1821162249026098E-002           3      248100           0
</event>
<event>
      5   9999  3.79277E-02  7.79610E+00 -1.00000E+00  2.09147E-01
      21    -1     0     0   511   501  0.000000000E+00  0.000000000E+00  1.026418357E+03  1.026418357E+03  0.000000000E+00  0.00000E+00  9.000E+00
      21    -1     0     0   501   502  0.000000000E+00  0.000000000E+00 -1.026008412E+02  1.026008412E+02  0.000000000E+00  0.00000E+00  9.000E+00
      25     1     1     2     0     0  2.305479563E+02  9.971464722E+00  2.170911076E+02  3.405955655E+02  1.250000000E+02  0.00000E+00  9.000E+00
      25     1     1     2     0     0 -2.381899452E+02 -8.429002499E+00  4.030311055E+02  4.846282803E+02  1.250000000E+02  0.00000E+00  9.000E+00
      21     1     1     2   511   502  7.641988878E+00 -1.542462223E+00  3.036953023E+02  3.037953519E+02  6.607249480E-06  0.00000E+00  9.000E+00
#rwgt            1           1   3.5106418592296115E-002           3      248258           0
</event>
<event>
      5   9999  3.79277E-02  1.66998E+01 -1.00000E+00  1.73101E-01
      21    -1     0     0   502   501  0.000000000E+00  0.000000000E+00  7.555500517E+01  7.555500517E+01  0.000000000E+00  0.00000E+00  9.000E+00
       2    -1     0     0   501     0  0.000000000E+00  0.000000000E+00 -5.198744542E+02  5.198744542E+02  0.000000000E+00  0.00000E+00  9.000E+00
      25     1     1     2     0     0  5.895525135E+01 -6.488870136E+01 -4.000964310E+01  1.578354737E+02  1.250000000E+02  0.00000E+00  9.000E+00
      25     1     1     2     0     0 -4.305625545E+01  5.977941077E+01 -3.159977402E+02  3.477168257E+02  1.250000000E+02  0.00000E+00  9.000E+00
       2     1     1     2   502     0 -1.589899590E+01  5.109290595E+00 -8.831206575E+01  8.987715994E+01  9.536743164E-07  0.00000E+00  9.000E+00
#rwgt            1           1   5.0560719887525009E-002           3      248725           0
</event>
<event>
      5   9999  3.79277E-02  1.23140E+02 -1.00000E+00  1.19894E-01
      21    -1     0     0   502   501  0.000000000E+00  0.000000000E+00  9.693509319E+02  9.693509319E+02  0.000000000E+00  0.00000E+00  9.000E+00
      21    -1     0     0   511   502  0.000000000E+00  0.000000000E+00 -1.860430003E+02  1.860430003E+02  0.000000000E+00  0.00000E+00  9.000E+00
      25     1     1     2     0     0 -3.666544903E+02 -1.040965277E+00  3.261320689E+02  5.063829828E+02  1.250000000E+02  0.00000E+00  9.000E+00
      25     1     1     2     0     0  2.836958522E+02  9.204310511E+01  3.967304548E+02  5.118352504E+02  1.250000000E+02  0.00000E+00  9.000E+00
      21     1     1     2   511   501  8.295863810E+01 -9.100213984E+01  6.044540787E+01  1.371756991E+02  2.132480600E-06  0.00000E+00  9.000E+00
#rwgt            1           1   3.0945191396554231E-002           3      248964           0
</event>
<event>
      5   9999  3.79277E-02  3.69265E+01 -1.00000E+00  1.47027E-01
      21    -1     0     0   512   501  0.000000000E+00  0.000000000E+00  6.973547079E+02  6.973547079E+02  0.000000000E+00  0.00000E+00  9.000E+00
      21    -1     0     0   501   502  0.000000000E+00  0.000000000E+00 -1.146485119E+02  1.146485119E+02  0.000000000E+00  0.00000E+00  9.000E+00
      25     1     1     2     0     0  8.303030741E+01  8.322701952E+01 -2.697130074E+01  1.737044035E+02  1.250000000E+02  0.00000E+00  9.000E+00
      25     1     1     2     0     0 -5.120774204E+01 -6.449485015E+01  5.249350990E+02  5.458604919E+02  1.250000000E+02  0.00000E+00  9.000E+00
      21     1     1     2   512   502 -3.182256537E+01 -1.873216937E+01  8.474239772E+01  9.243832435E+01  1.651812370E-06  0.00000E+00  9.000E+00
#rwgt            1           1   4.3189322363118017E-002           3      249257           0
</event>
<event>
      5   9999  3.79277E-02  5.22205E+01 -1.00000E+00  1.38007E-01
      21    -1     0     0   502   511  0.000000000E+00  0.000000000E+00  1.950066006E+03  1.950066006E+03  0.000000000E+00  0.00000E+00  9.000E+00
      21    -1     0     0   501   502  0.000000000E+00  0.000000000E+00 -1.169229638E+02  1.169229638E+02  0.000000000E+00  0.00000E+00  9.000E+00
      25     1     1     2     0     0 -4.909041907E+01 -3.831121059E+02  5.675140990E+02  6.977693083E+02  1.250000000E+02  0.00000E+00  9.000E+00
      25     1     1     2     0     0  9.090549946E+01  4.143926938E+02  9.330500034E+02  1.032565941E+03  1.250000000E+02  0.00000E+00  9.000E+00
      21     1     1     2   501   511 -4.181508039E+01 -3.128058785E+01  3.325789393E+02  3.366537197E+02  3.814697266E-06  0.00000E+00  9.000E+00
#rwgt            1           1   2.4562667598060361E-002           3      249451           0
</event>
<event>
      5   9999  3.79277E-02  3.19526E+01 -1.00000E+00  1.51162E-01
      21    -1     0     0   502   512  0.000000000E+00  0.000000000E+00  2.455428213E+02  2.455428213E+02  0.000000000E+00  0.00000E+00  9.000E+00
      21    -1     0     0   501   502  0.000000000E+00  0.000000000E+00 -1.915062502E+03  1.915062502E+03  0.000000000E+00  0.00000E+00  9.000E+00
      25     1     1     2     0     0 -6.310430587E+01  1.398803627E+02 -6.138383840E+02  6.449583172E+02  1.250000000E+02  0.00000E+00  9.000E+00
      25     1     1     2     0     0  8.829151716E+01 -1.202189407E+02 -1.277146521E+03  1.291888626E+03  1.250000000E+02  0.00000E+00  9.000E+00
      21     1     1     2   501   512 -2.518721129E+01 -1.966142208E+01  2.214652243E+02  2.237583802E+02  7.629394531E-06  0.00000E+00  9.000E+00
#rwgt            1           1  0.15433986010263168                3      249603           0
</event>
<event>
      5   9999  3.79277E-02  8.56872E+01 -1.00000E+00  1.26922E-01
       1    -1     0     0   502     0  0.000000000E+00  0.000000000E+00  1.123818728E+03  1.123818728E+03  0.000000000E+00  0.00000E+00  9.000E+00
      21    -1     0     0   501   502  0.000000000E+00  0.000000000E+00 -2.882166351E+02  2.882166351E+02  0.000000000E+00  0.00000E+00  9.000E+00
      25     1     1     2     0     0  1.569140451E+01  9.584190041E+01  1.306188016E+01  1.588316806E+02  1.250000000E+02  0.00000E+00  9.000E+00
      25     1     1     2     0     0  1.326183690E+01 -1.764893394E+02 -1.584791457E+02  2.684492556E+02  1.250000000E+02  0.00000E+00  9.000E+00
       1     1     1     2   501     0 -2.895324142E+01  8.064743896E+01  9.810193589E+02  9.847544273E+02  1.078959322E-05  0.00000E+00  9.000E+00
#rwgt            1           1   2.8214854734045003E-002           3      249801           0
</event>
<event>
      5   9999  3.79277E-02  1.17106E+01 -1.00000E+00  1.88150E-01
       1    -1     0     0   502     0  0.000000000E+00  0.000000000E+00  1.638448189E+03  1.638448189E+03  0.000000000E+00  0.00000E+00  9.000E+00
      21    -1     0     0   501   502  0.000000000E+00  0.000000000E+00 -4.303979338E+01  4.303979338E+01  0.000000000E+00  0.00000E+00  9.000E+00
      25     1     1     2     0     0  4.213229606E+01 -1.551273877E+02  7.048136047E+02  7.336394579E+02  1.250000000E+02  0.00000E+00  9.000E+00
      25     1     1     2     0     0 -5.367140719E+01  1.531308809E+02  3.386244328E+02  3.957539553E+02  1.250000000E+02  0.00000E+00  9.000E+00
       1     1     1     2   501     0  1.153911113E+01  1.996506761E+00  5.519703580E+02  5.520945691E+02  0.000000000E+00  0.00000E+00  9.000E+00
#rwgt            1           1   3.7528435633552952E-002           3      249865           0
</event>
<event>
      5   9999  3.79277E-02  3.10273E+01 -1.00000E+00  1.52031E-01
      21    -1     0     0   502   501  0.000000000E+00  0.000000000E+00  3.803370578E+02  3.803370578E+02  0.000000000E+00  0.00000E+00  9.000E+00
       2    -1     0     0   501     0  0.000000000E+00  0.000000000E+00 -1.168928188E+03  1.168928188E+03  0.000000000E+00  0.00000E+00  9.000E+00
      25     1     1     2     0     0 -2.284863490E+02  5.229704641E+01  1.514466911E+02  3.057811194E+02  1.250000000E+02  0.00000E+00  9.000E+00
      25     1     1     2     0     0  2.264713455E+02 -8.325881768E+01  2.959631624E+01  2.733536958E+02  1.250000000E+02  0.00000E+00  9.000E+00
       2     1     1     2   502     0  2.015003476E+00  3.096177127E+01 -9.696341377E+02  9.701304307E+02  1.525878906E-05  0.00000E+00  9.000E+00
#rwgt            1           1   3.3324347095544604E-002           3      250081           0
</event>
<event>
      5   9999  3.79277E-02  2.24286E+02 -1.00000E+00  1.09866E-01
       2    -1     0     0   502     0  0.000000000E+00  0.000000000E+00  1.048976624E+03  1.048976624E+03  0.000000000E+00  0.00000E+00  9.000E+00
      21    -1     0     0   501   502  0.000000000E+00  0.000000000E+00 -1.117682984E+03  1.117682984E+03  0.000000000E+00  0.00000E+00  9.000E+00
      25     1     1     2     0     0  1.273590569E+02 -1.120479751E+02 -3.968003842E+02  4.492778907E+02  1.250000000E+02  0.00000E+00  9.000E+00
      25     1     1     2     0     0 -1.417850635E+02  3.358698236E+02 -6.271791399E+02  7.361319285E+02  1.250000000E+02  0.00000E+00  9.000E+00
       2     1     1     2   501     0  1.442600658E+01 -2.238218485E+02  9.552731646E+02  9.812497890E+02  1.525878906E-05  0.00000E+00  9.000E+00
#rwgt            2          18   3.0830909549924524E-003           3      250186           0
</event>
<event>
      5   9999  3.79277E-02  8.64692E+01 -1.00000E+00  1.26736E-01
      21    -1     0     0   511   501  0.000000000E+00  0.000000000E+00  4.595594533E+02  4.595594533E+02  0.000000000E+00  0.00000E+00  9.000E+00
      21    -1     0     0   501   502  0.000000000E+00  0.000000000E+00 -2.708176693E+02  2.708176693E+02  0.000000000E+00  0.00000E+00  9.000E+00
      25     1     1     2     0     0  8.219661775E+01 -2.638249603E+02  1.677655454E+02  3.465979975E+02  1.250000000E+02  0.00000E+00  9.000E+00
      25     1     1     2     0     0 -1.499268566E+02  2.100705953E+02 -2.125318318E+01  2.875489786E+02  1.250000000E+02  0.00000E+00  9.000E+00
      21     1     1     2   511   502  6.773023883E+01  5.375436503E+01  4.222942185E+01  9.623014643E+01  2.023048729E-06  0.00000E+00  9.000E+00
#rwgt            1           1  0.25291408668937765                3      250205           0
</event>
<event>
      5   9999  3.79277E-02  2.78892E+02 -1.00000E+00  1.06632E-01
      21    -1     0     0   512   501  0.000000000E+00  0.000000000E+00  1.776983385E+03  1.776983385E+03  0.000000000E+00  0.00000E+00  9.000E+00
      21    -1     0     0   501   502  0.000000000E+00  0.000000000E+00 -2.783036530E+02  2.783036530E+02  0.000000000E+00  0.00000E+00  9.000E+00
      25     1     1     2     0     0  2.890640914E+02 -2.163540846E+02  2.876957725E+02  4.782896574E+02  1.250000000E+02  0.00000E+00  9.000E+00
      25     1     1     2     0     0 -4.787842633E+02  1.193584093E+01  2.096413145E+02  5.375419200E+02  1.250000000E+02  0.00000E+00  9.000E+00
      21     1     1     2   512   502  1.897201718E+02  2.044182436E+02  1.001342645E+03  1.039455461E+03  1.868812365E-05  0.00000E+00  9.000E+00
#rwgt            2          11   9.2269426672903540E-004           3      250287           0
</event>
<event>
      5   9999  3.79277E-02  7.10898E+01 -1.00000E+00  1.30882E-01
      21    -1     0     0   502   511  0.000000000E+00  0.000000000E+00  3.161032642E+02  3.161032642E+02  0.000000000E+00  0.00000E+00  9.000E+00
      21    -1     0     0   501   502  0.000000000E+00  0.000000000E+00 -3.341282520E+02  3.341282520E+02  0.000000000E+00  0.00000E+00  9.000E+00
      25     1     1     2     0     0  3.304145151E+01 -2.620907910E+01 -2.858189322E+02  3.147953547E+02  1.250000000E+02  0.00000E+00  9.000E+00
      25     1     1     2     0     0  9.907760626E+00 -3.044004046E+01  1.937943996E+02  2.328218828E+02  1.250000000E+02  0.00000E+00  9.000E+00
      21     1     1     2   501   511 -4.294921214E+01  5.664911957E+01  7.399954474E+01  1.026142787E+02  1.348699152E-06  0.00000E+00  9.000E+00
#rwgt            1           1   5.0878969069257630E-002           3      250337           0
</event>
<event>
      5   9999  3.79277E-02  1.29818E+02 -1.00000E+00  1.18936E-01
      21    -1     0     0   502   501  0.000000000E+00  0.000000000E+00  1.702084816E+02  1.702084816E+02  0.000000000E+00  0.00000E+00  9.000E+00
       2    -1     0     0   501     0  0.000000000E+00  0.000000000E+00 -1.390648965E+03  1.390648965E+03  0.000000000E+00  0.00000E+00  9.000E+00
      25     1     1     2     0     0 -5.869597537E+01  4.514027000E+01 -2.176292893E+02  2.616684334E+02  1.250000000E+02  0.00000E+00  9.000E+00
      25     1     1     2     0     0 -7.097437274E+01 -5.133602122E+01  1.040588108E+02  1.847321974E+02  1.250000000E+02  0.00000E+00  9.000E+00
       2     1     1     2   502     0  1.296703481E+02  6.195751223E+00 -1.106870005E+03  1.114456816E+03  0.000000000E+00  0.00000E+00  9.000E+00
#rwgt            1           1   3.6402825195870167E-002           3      250427           0
</event>
<event>
      5   9999  3.79277E-02  1.05245E+02 -1.00000E+00  1.22838E-01
      21    -1     0     0   511   501  0.000000000E+00  0.000000000E+00  1.416147811E+02  1.416147811E+02  0.000000000E+00  0.00000E+00  9.000E+00
      21    -1     0     0   501   502  0.000000000E+00  0.000000000E+00 -1.062572588E+03  1.062572588E+03  0.000000000E+00  0.00000E+00  9.000E+00
      25     1     1     2     0     0  5.692030132E+01  5.807994397E+01 -4.392204858E+02  4.638457025E+02  1.250000000E+02  0.00000E+00  9.000E+00
      25     1     1     2     0     0  7.730465910E+00 -1.411267109E+02 -5.716092249E+02  6.019456907E+02  1.250000000E+02  0.00000E+00  9.000E+00
      21     1     1     2   511   502 -6.465076723E+01  8.304676694E+01  8.987190347E+01  1.383959762E+02  2.132480600E-06  0.00000E+00  9.000E+00
#rwgt            1           1   1.7969452248769443E-002           3      250656           0
</event>
<event>
      5   9999  3.79277E-02  8.80817E+01 -1.00000E+00  1.26359E-01
      21    -1     0     0   512   501  0.000000000E+00  0.000000000E+00  2.803904144E+02  2.803904144E+02  0.000000000E+00  0.00000E+00  9.000E+00
      21    -1     0     0   501   502  0.000000000E+00  0.000000000E+00 -3.679554986E+02  3.679554986E+02  0.000000000E+00  0.00000E+00  9.000E+00
      25     1     1     2     0     0  1.690494307E+02  3.469060022E+01 -2.616591381E+02  3.374487403E+02  1.250000000E+02  0.00000E+00  9.000E+00
      25     1     1     2     0     0 -8.731100202E+01 -6.751155965E+01  9.178272086E+01  1.903420332E+02  1.250000000E+02  0.00000E+00  9.000E+00
      21     1     1     2   512   502 -8.173842872E+01  3.282095943E+01  8.231133301E+01  1.205551395E+02  9.536743164E-07  0.00000E+00  9.000E+00
#rwgt            1           1   4.0728073156424738E-002           3      250699           0
</event>
<event>
      5   9999 -3.79277E-02  8.15383E+00 -1.00000E+00  2.06595E-01
      21    -1     0     0   511   501  0.000000000E+00  0.000000000E+00  1.397110057E+02  1.397110057E+02  0.000000000E+00  0.00000E+00  9.000E+00
      21    -1     0     0   501   502  0.000000000E+00  0.000000000E+00 -3.817865586E+02  3.817865586E+02  0.000000000E+00  0.00000E+00  9.000E+00
      25     1     1     2     0     0  1.417231321E+02  1.089000016E+02 -8.126687305E+01  2.327530047E+02  1.250000000E+02  0.00000E+00  9.000E+00
      25     1     1     2     0     0 -1.478010654E+02 -1.143354123E+02 -1.656572507E+02  2.792580637E+02  1.250000000E+02  0.00000E+00  9.000E+00
      21     1     1     2   511   502  6.077933306E+00  5.435410709E+00  4.848570888E+00  9.486495797E+00  2.457562462E-07  0.00000E+00  9.000E+00
#rwgt            1           1  -9.8179489498245072E-003           3      250775           0
</event>
<event>
      5   9999  3.79277E-02  1.34934E+01 -1.00000E+00  1.81827E-01
      21    -1     0     0   502   501  0.000000000E+00  0.000000000E+00  1.450282071E+02  1.450282071E+02  0.000000000E+00  0.00000E+00  9.000E+00
      21    -1     0     0   512   502  0.000000000E+00  0.000000000E+00 -3.826098717E+02  3.826098717E+02  0.000000000E+00  0.00000E+00  9.000E+00
      25     1     1     2     0     0 -5.646526852E+01  1.252759734E+02 -2.677756142E+02  3.259005609E+02  1.250000000E+02  0.00000E+00  9.000E+00
      25     1     1     2     0     0  4.297973863E+01 -1.248165168E+02  3.858212683E+01  1.858494049E+02  1.250000000E+02  0.00000E+00  9.000E+00
      21     1     1     2   512   501  1.348552990E+01 -4.594566064E-01 -8.388177211E+00  1.588811297E+01  2.665600750E-07  0.00000E+00  9.000E+00
#rwgt            1           1   3.6424202942664637E-002           3      251196           0
</event>
<event>
      5   9999 -3.79277E-02  4.35362E+01 -1.00000E+00  1.42595E-01
      21    -1     0     0   502   501  0.000000000E+00  0.000000000E+00  1.184556793E+02  1.184556793E+02  0.000000000E+00  0.00000E+00  9.000E+00
      21    -1     0     0   501   511  0.000000000E+00  0.000000000E+00 -7.543295837E+02  7.543295837E+02  0.000000000E+00  0.00000E+00  9.000E+00
      25     1     1     2     0     0  1.879790291E+02 -1.419685639E+02 -2.176806239E+02  3.442398038E+02  1.250000000E+02  0.00000E+00  9.000E+00
      25     1     1     2     0     0 -2.221728752E+02  1.150207754E+02 -3.599003886E+02  4.557892660E+02  1.250000000E+02  0.00000E+00  9.000E+00
      21     1     1     2   502   511  3.419384613E+01  2.694778844E+01 -5.829289188E+01  7.275619327E+01  9.536743164E-07  0.00000E+00  9.000E+00
#rwgt            1           1  -4.1175927446030144E-002           3      251511           0
</event>
<event>
      5   9999 -3.79277E-02  1.16801E+02 -1.00000E+00  1.20868E-01
      21    -1     0     0   502   501  0.000000000E+00  0.000000000E+00  2.721235882E+02  2.721235882E+02  0.000000000E+00  0.00000E+00  9.000E+00
      -1    -1     0     0     0   502  0.000000000E+00  0.000000000E+00 -8.080170671E+02  8.080170671E+02  0.000000000E+00  0.00000E+00  9.000E+00
      25     1     1     2     0     0  1.145836824E+02  1.386750288E+02  1.843189679E+02  2.862842396E+02  1.250000000E+02  0.00000E+00  9.000E+00
      25     1     1     2     0     0  2.041142662E-01 -1.602696436E+02 -3.401309740E+02  3.962328605E+02  1.250000000E+02  0.00000E+00  9.000E+00
      -1     1     1     2     0   501 -1.147877967E+02  2.159461480E+01 -3.800814728E+02  3.976235552E+02  5.394796609E-06  0.00000E+00  9.000E+00
#rwgt            1           1  -5.3314628085690430E-002           3      251706           0
</event>
<event>
      5   9999  3.79277E-02  4.36494E+01 -1.00000E+00  1.42527E-01
      -4    -1     0     0     0   501  0.000000000E+00  0.000000000E+00  2.199875594E+02  2.199875594E+02  0.000000000E+00  0.00000E+00  9.000E+00
      21    -1     0     0   501   502  0.000000000E+00  0.000000000E+00 -9.062700488E+02  9.062700488E+02  0.000000000E+00  0.00000E+00  9.000E+00
      25     1     1     2     0     0  4.032785424E+01 -2.595682214E+02 -4.558152205E+02  5.407351594E+02  1.250000000E+02  0.00000E+00  9.000E+00
      25     1     1     2     0     0 -1.593715163E+00  2.796911545E+02 -3.459299418E+02  4.620846313E+02  1.250000000E+02  0.00000E+00  9.000E+00
      -4     1     1     2     0   502 -3.873413908E+01 -2.012293313E+01  1.154626729E+02  1.234378176E+02  1.348699152E-06  0.00000E+00  9.000E+00
#rwgt            1           1   1.9237283490201162E-002           3      251906           0
</event>
<event>
      5   9999  3.79277E-02  1.71287E+01 -1.00000E+00  1.72121E-01
      21    -1     0     0   502   501  0.000000000E+00  0.000000000E+00  2.666925798E+02  2.666925798E+02  0.000000000E+00  0.00000E+00  9.000E+00
      21    -1     0     0   501   511  0.000000000E+00  0.000000000E+00 -1.456244086E+02  1.456244086E+02  0.000000000E+00  0.00000E+00  9.000E+00
      25     1     1     2     0     0  8.174489726E+01  5.461281529E+00 -1.479452417E+01  1.501863235E+02  1.250000000E+02  0.00000E+00  9.000E+00
      25     1     1     2     0     0 -8.754794524E+01 -2.157703801E+01  1.665894936E+02  2.269521330E+02  1.250000000E+02  0.00000E+00  9.000E+00
      21     1     1     2   502   511  5.803047984E+00  1.611575648E+01 -3.072679827E+01  3.517853187E+01  5.840038640E-07  0.00000E+00  9.000E+00
#rwgt            1           1   5.1027622480106817E-002           3      252075           0
</event>
<event>
      5   9999  3.79277E-02  1.88017E+01 -1.00000E+00  1.68614E-01
      21    -1     0     0   502   512  0.000000000E+00  0.000000000E+00  2.276061668E+01  2.276061668E+01  0.000000000E+00  0.00000E+00  9.000E+00
      21    -1     0     0   501   502  0.000000000E+00  0.000000000E+00 -2.017463723E+03  2.017463723E+03  0.000000000E+00  0.00000E+00  9.000E+00
      25     1     1     2     0     0 -1.036025401E+02  1.499734558E+01 -4.509057492E+02  4.794782595E+02  1.250000000E+02  0.00000E+00  9.000E+00
      25     1     1     2     0     0  1.217232293E+02 -2.001168041E+01 -1.521403098E+03  1.531505598E+03  1.250000000E+02  0.00000E+00  9.000E+00
      21     1     1     2   501   512 -1.812068916E+01  5.014334833E+00 -2.239425976E+01  2.924048221E+01  9.233911863E-07  0.00000E+00  9.000E+00
#rwgt            1           1   9.3919656877156227E-002           3      252390           0
</event>
<event>
      5   9999  3.79277E-02  4.57715E+01 -1.00000E+00  1.41301E-01
      21    -1     0     0   511   501  0.000000000E+00  0.000000000E+00  5.729817174E+02  5.729817174E+02  0.000000000E+00  0.00000E+00  9.000E+00
      21    -1     0     0   501   502  0.000000000E+00  0.000000000E+00 -2.907535359E+02  2.907535359E+02  0.000000000E+00  0.00000E+00  9.000E+00
      25     1     1     2     0     0  1.952054482E+02 -9.649380008E+01 -4.027245552E+01  2.542893847E+02  1.250000000E+02  0.00000E+00  9.000E+00
      25     1     1     2     0     0 -1.710123616E+02  5.763860465E+01 -5.731162599E+01  2.268855638E+02  1.250000000E+02  0.00000E+00  9.000E+00
      21     1     1     2   511   502 -2.419308661E+01  3.885519543E+01  3.798122631E+02  3.825603049E+02  7.629394531E-06  0.00000E+00  9.000E+00
#rwgt            1           1   4.0729821231855791E-002           3      252591           0
</event>
<event>
      5   9999  3.79277E-02  7.47292E+00 -1.00000E+00  2.11617E-01
      21    -1     0     0   502   501  0.000000000E+00  0.000000000E+00  2.684887771E+03  2.684887771E+03  0.000000000E+00  0.00000E+00  9.000E+00
      21    -1     0     0   501   512  0.000000000E+00  0.000000000E+00 -3.342709225E+02  3.342709225E+02  0.000000000E+00  0.00000E+00  9.000E+00
      25     1     1     2     0     0  1.783539313E+02 -4.202426940E+01  1.701468919E+03  1.715866442E+03  1.250000000E+02  0.00000E+00  9.000E+00
      25     1     1     2     0     0 -1.781140084E+02  3.455520351E+01  9.637436173E+02  9.886078201E+02  1.250000000E+02  0.00000E+00  9.000E+00
      21     1     1     2   502   512 -2.399229415E-01  7.469065893E+00 -3.145956880E+02  3.146844314E+02  0.000000000E+00  0.00000E+00  9.000E+00
#rwgt            1           1   5.1476211595798634E-002           3      252990           0
</event>
<event>
      5   9999  3.79277E-02  6.05019E+01 -1.00000E+00  1.34510E-01
      21    -1     0     0   502   511  0.000000000E+00  0.000000000E+00  5.037166099E+02  5.037166099E+02  0.000000000E+00  0.00000E+00  9.000E+00
      21    -1     0     0   501   502  0.000000000E+00  0.000000000E+00 -1.392182893E+02  1.392182893E+02  0.000000000E+00  0.00000E+00  9.000E+00
      25     1     1     2     0     0  4.031060271E+00  9.650802638E+01 -5.357473828E+01  1.668091760E+02  1.250000000E+02  0.00000E+00  9.000E+00
      25     1     1     2     0     0 -3.483797296E+01 -4.443677245E+01  1.585604876E+02  2.096538560E+02  1.250000000E+02  0.00000E+00  9.000E+00
      21     1     1     2   501   511  3.080691269E+01 -5.207125393E+01  2.595125713E+02  2.664718672E+02  3.814697266E-06  0.00000E+00  9.000E+00
#rwgt            1           1   3.0242106674908162E-002           3      253190           0
</event>
<event>
      5   9999  3.79277E-02  9.59670E+01 -1.00000E+00  1.24637E-01
      21    -1     0     0   502   501  0.000000000E+00  0.000000000E+00  9.538124564E+02  9.538124564E+02  0.000000000E+00  0.00000E+00  9.000E+00
      -3    -1     0     0     0   502  0.000000000E+00  0.000000000E+00 -1.262685056E+02  1.262685056E+02  0.000000000E+00  0.00000E+00  9.000E+00
      25     1     1     2     0     0 -1.798778224E+02  2.234208386E+02  4.906207275E+02  5.818991325E+02  1.250000000E+02  0.00000E+00  9.000E+00
      25     1     1     2     0     0  1.045538875E+02 -1.639568375E+02  3.287203065E+02  4.018649025E+02  1.250000000E+02  0.00000E+00  9.000E+00
      -3     1     1     2     0   501  7.532393491E+01 -5.946400111E+01  8.202916868E+00  9.631692709E+01  3.576278687E-07  0.00000E+00  9.000E+00
#rwgt            1           1   3.7536878840366730E-002           3      253648           0
</event>
<event>
      5   9999  3.79277E-02  1.06530E+02 -1.00000E+00  1.22605E-01
      21    -1     0     0   502   501  0.000000000E+00  0.000000000E+00  9.665622408E+02  9.665622408E+02  0.000000000E+00  0.00000E+00  9.000E+00
      21    -1     0     0   511   502  0.000000000E+00  0.000000000E+00 -4.955501236E+01  4.955501236E+01  0.000000000E+00  0.00000E+00  9.000E+00
      25     1     1     2     0     0 -8.573645913E+01 -7.542467705E+01  5.691236953E+02  5.937730231E+02  1.250000000E+02  0.00000E+00  9.000E+00
      25     1     1     2     0     0  3.923586729E+01 -2.042080924E+01  1.813885280E+02  2.246848032E+02  1.250000000E+02  0.00000E+00  9.000E+00
      21     1     1     2   511   501  4.650059183E+01  9.584548630E+01  1.664950052E+02  1.976594269E+02  3.814697266E-06  0.00000E+00  9.000E+00
#rwgt            1           1   5.9316661660040015E-002           3      253808           0
</event>
<event>
      5   9999  3.79277E-02  1.10549E+01 -1.00000E+00  1.90854E-01
      21    -1     0     0   502   501  0.000000000E+00  0.000000000E+00  1.155994173E+03  1.155994173E+03  0.000000000E+00  0.00000E+00  9.000E+00
      21    -1     0     0   512   502  0.000000000E+00  0.000000000E+00 -3.377178202E+01  3.377178202E+01  0.000000000E+00  0.00000E+00  9.000E+00
      25     1     1     2     0     0  9.621680766E+01  3.547269373E+01  2.348192103E+02  2.850983121E+02  1.250000000E+02  0.00000E+00  9.000E+00
      25     1     1     2     0     0 -9.861019778E+01 -2.468002953E+01  8.625274301E+02  8.774460911E+02  1.250000000E+02  0.00000E+00  9.000E+00
      21     1     1     2   512   501  2.393390117E+00 -1.079266420E+01  2.487575053E+01  2.722155178E+01  0.000000000E+00  0.00000E+00  9.000E+00
#rwgt            1           1   5.3487804825467299E-002           3      253876           0
</event>
<event>
      5   9999  3.79277E-02  6.46124E+01 -1.00000E+00  1.33007E-01
      21    -1     0     0   502   501  0.000000000E+00  0.000000000E+00  1.111516642E+02  1.111516642E+02  0.000000000E+00  0.00000E+00  9.000E+00
      21    -1     0     0   501   511  0.000000000E+00  0.000000000E+00 -1.114099693E+03  1.114099693E+03  0.000000000E+00  0.00000E+00  9.000E+00
      25     1     1     2     0     0  1.638905102E+01 -1.404016653E+02 -1.395114946E+01  1.892111603E+02  1.250000000E+02  0.00000E+00  9.000E+00
      25     1     1     2     0     0  3.952409544E+01  1.727818803E+02 -5.322228099E+02  5.747189327E+02  1.250000000E+02  0.00000E+00  9.000E+00
      21     1     1     2   502   511 -5.591314646E+01 -3.238021497E+01 -4.567740694E+02  4.613212641E+02  9.344061824E-06  0.00000E+00  9.000E+00
#rwgt            1           1   4.0870005073367355E-002           3      254122           0
</event>
<event>
      5   9999  3.79277E-02  1.24918E+02 -1.00000E+00  1.19632E-01
      21    -1     0     0   502   501  0.000000000E+00  0.000000000E+00  1.052213779E+02  1.052213779E+02  0.000000000E+00  0.00000E+00  9.000E+00
      21    -1     0     0   501   512  0.000000000E+00  0.000000000E+00 -1.064212388E+03  1.064212388E+03  0.000000000E+00  0.00000E+00  9.000E+00
      25     1     1     2     0     0  1.864545345E+02 -9.694410661E+01 -1.167315489E+02  2.709514860E+02  1.250000000E+02  0.00000E+00  9.000E+00
      25     1     1     2     0     0 -6.218233696E+01  1.096325606E+02 -3.762884829E+02  4.160576448E+02  1.250000000E+02  0.00000E+00  9.000E+00
      21     1     1     2   502   512 -1.242721976E+02 -1.268845399E+01 -4.659709783E+02  4.824246352E+02  7.629394531E-06  0.00000E+00  9.000E+00
#rwgt            1           1   3.5160027348352690E-002           3      254227           0
</event>
<event>
      5   9999  3.79277E-02  1.12341E+01 -1.00000E+00  1.90091E-01
      21    -1     0     0   502   511  0.000000000E+00  0.000000000E+00  4.821753863E+01  4.821753863E+01  0.000000000E+00  0.00000E+00  9.000E+00
      21    -1     0     0   501   502  0.000000000E+00  0.000000000E+00 -1.202886934E+03  1.202886934E+03  0.000000000E+00  0.00000E+00  9.000E+00
      25     1     1     2     0     0  1.586978452E+02  5.842961968E+01 -7.141982552E+02  7.445153956E+02  1.250000000E+02  0.00000E+00  9.000E+00
      25     1     1     2     0     0 -1.639042254E+02 -4.847478422E+01 -4.462602944E+02  4.939510605E+02  1.250000000E+02  0.00000E+00  9.000E+00
      21     1     1     2   501   511  5.206380194E+00 -9.954835465E+00  5.789154532E+00  1.263801622E+01  3.039252468E-07  0.00000E+00  9.000E+00
#rwgt            1           1   2.8010766948052809E-002           3      254351           0
</event>
<event>
      5   9999  3.79277E-02  1.95634E+01 -1.00000E+00  1.67164E-01
      21    -1     0     0   512   501  0.000000000E+00  0.000000000E+00  6.288172980E+01  6.288172980E+01  0.000000000E+00  0.00000E+00  9.000E+00
      21    -1     0     0   501   502  0.000000000E+00  0.000000000E+00 -1.375545612E+03  1.375545612E+03  0.000000000E+00  0.00000E+00  9.000E+00
      25     1     1     2     0     0  2.010868856E+01  4.943767355E+01 -1.246791558E+03  1.254178070E+03  1.250000000E+02  0.00000E+00  9.000E+00
      25     1     1     2     0     0 -3.637440844E+01 -6.030758206E+01 -3.497065101E+01  1.476754837E+02  1.250000000E+02  0.00000E+00  9.000E+00
      21     1     1     2   512   502  1.626571988E+01  1.086990851E+01 -3.090167350E+01  3.657378814E+01  0.000000000E+00  0.00000E+00  9.000E+00
#rwgt            1           1   3.5963375990267492E-002           3      254661           0
</event>
<event>
      5   9999 -3.79277E-02  1.03506E+02 -1.00000E+00  1.23159E-01
      21    -1     0     0   502   501  0.000000000E+00  0.000000000E+00  4.199384634E+02  4.199384634E+02  0.000000000E+00  0.00000E+00  9.000E+00
      21    -1     0     0   511   502  0.000000000E+00  0.000000000E+00 -4.367422886E+02  4.367422886E+02  0.000000000E+00  0.00000E+00  9.000E+00
      25     1     1     2     0     0 -2.399468752E+02  1.317750360E+02  8.030560481E+01  3.114693455E+02  1.250000000E+02  0.00000E+00  9.000E+00
      25     1     1     2     0     0  3.151771332E+02 -6.068410706E+01  6.727354034E+01  3.509557171E+02  1.250000000E+02  0.00000E+00  9.000E+00
      21     1     1     2   511   501 -7.523025795E+01 -7.109092898E+01 -1.643829703E+02  1.942556893E+02  2.697398305E-06  0.00000E+00  9.000E+00
#rwgt            1           1 -0.16304411811224409                3      254869           0
</event>
<event>
      5   9999  3.79277E-02  3.07900E+01 -1.00000E+00  1.52260E-01
      21    -1     0     0   512   501  0.000000000E+00  0.000000000E+00  1.457637971E+02  1.457637971E+02  0.000000000E+00  0.00000E+00  9.000E+00
      21    -1     0     0   501   502  0.000000000E+00  0.000000000E+00 -1.281491276E+03  1.281491276E+03  0.000000000E+00  0.00000E+00  9.000E+00
      25     1     1     2     0     0 -1.452810792E+02 -1.028179977E+02 -5.997981633E+02  6.380132987E+02  1.250000000E+02  0.00000E+00  9.000E+00
      25     1     1     2     0     0  1.367889670E+02  1.324137140E+02 -6.407344025E+02  6.800074909E+02  1.250000000E+02  0.00000E+00  9.000E+00
      21     1     1     2   512   502  8.492112208E+00 -2.959571627E+01  1.048050870E+02  1.092342833E+02  1.348699152E-06  0.00000E+00  9.000E+00
#rwgt            1           1   4.5548039163001923E-002           3      255104           0
</event>
<event>
      5   9999  3.79277E-02  1.01622E+02 -1.00000E+00  1.23514E-01
      21    -1     0     0   502   501  0.000000000E+00  0.000000000E+00  5.019066248E+02  5.019066248E+02  0.000000000E+00  0.00000E+00  9.000E+00
      21    -1     0     0   511   502  0.000000000E+00  0.000000000E+00 -3.500504989E+02  3.500504989E+02  0.000000000E+00  0.00000E+00  9.000E+00
      25     1     1     2     0     0  4.165965920E+01 -2.964981264E+02  2.498671861E+02  4.095183474E+02  1.250000000E+02  0.00000E+00  9.000E+00
      25     1     1     2     0     0 -2.167657553E+00  2.028636832E+02  6.798989262E+01  2.478023370E+02  1.250000000E+02  0.00000E+00  9.000E+00
      21     1     1     2   511   501 -3.949200165E+01  9.363444317E+01 -1.660009529E+02  1.946364393E+02  1.907348633E-06  0.00000E+00  9.000E+00
#rwgt            1           1   4.4948647412323933E-002           3      255321           0
</event>
<event>
      5   9999  3.79277E-02  6.45704E+01 -1.00000E+00  1.33021E-01
      21    -1     0     0   502   501  0.000000000E+00  0.000000000E+00  1.131450323E+03  1.131450323E+03  0.000000000E+00  0.00000E+00  9.000E+00
      21    -1     0     0   512   502  0.000000000E+00  0.000000000E+00 -5.741416900E+01  5.741416900E+01  0.000000000E+00  0.00000E+00  9.000E+00
      25     1     1     2     0     0 -6.886944196E+01  1.854234804E+02  5.316936579E+02  5.809027569E+02  1.250000000E+02  0.00000E+00  9.000E+00
      25     1     1     2     0     0  1.300115317E+01 -1.530496377E+02  4.751758260E+02  5.147914988E+02  1.250000000E+02  0.00000E+00  9.000E+00
      21     1     1     2   512   501  5.586828879E+01 -3.237384273E+01  6.716667044E+01  9.317023668E+01  2.132480600E-06  0.00000E+00  9.000E+00
#rwgt            1           1   4.0793717131707471E-002           3      255567           0
</event>
<event>
      5   9999  3.79277E-02  3.76720E+01 -1.00000E+00  1.46474E-01
      21    -1     0     0   502   511  0.000000000E+00  0.000000000E+00  7.327290481E+02  7.327290481E+02  0.000000000E+00  0.00000E+00  9.000E+00
      21    -1     0     0   501   502  0.000000000E+00  0.000000000E+00 -6.377780684E+01  6.377780684E+01  0.000000000E+00  0.00000E+00  9.000E+00
      25     1     1     2     0     0  7.818277536E+01  9.897553425E+01  1.309255910E+02  2.206245977E+02  1.250000000E+02  0.00000E+00  9.000E+00
      25     1     1     2     0     0 -4.062142917E+01 -1.018603297E+02  4.624620086E+02  4.914486104E+02  1.250000000E+02  0.00000E+00  9.000E+00
      21     1     1     2   501   511 -3.756134619E+01  2.884795474E+00  7.556364164E+01  8.443364679E+01  0.000000000E+00  0.00000E+00  9.000E+00
#rwgt            1           1   1.9114654175622279E-002           3      255664           0
</event>
<event>
      5   9999  3.79277E-02  9.03520E+01 -1.00000E+00  1.25843E-01
      21    -1     0     0   502   501  0.000000000E+00  0.000000000E+00  7.871879676E+01  7.871879676E+01  0.000000000E+00  0.00000E+00  9.000E+00
      21    -1     0     0   512   502  0.000000000E+00  0.000000000E+00 -1.537595917E+03  1.537595917E+03  0.000000000E+00  0.00000E+00  9.000E+00
      25     1     1     2     0     0 -1.131735470E+02  1.022586934E+02 -1.306388419E+02  2.365514725E+02  1.250000000E+02  0.00000E+00  9.000E+00
      25     1     1     2     0     0  1.016295942E+02 -1.918701441E+02 -6.691989236E+02  7.145592529E+02  1.250000000E+02  0.00000E+00  9.000E+00
      21     1     1     2   512   501  1.154395281E+01  8.961145066E+01 -6.590393546E+02  6.652039881E+02  7.629394531E-06  0.00000E+00  9.000E+00
#rwgt            1           1   3.8969798536929647E-002           3      255832           0
</event>
<event>
      5   9999  3.79277E-02  2.51658E+01 -1.00000E+00  1.58536E-01
      21    -1     0     0   511   501  0.000000000E+00  0.000000000E+00  6.150386830E+02  6.150386830E+02  0.000000000E+00  0.00000E+00  9.000E+00
      21    -1     0     0   501   502  0.000000000E+00  0.000000000E+00 -4.516855755E+02  4.516855755E+02  0.000000000E+00  0.00000E+00  9.000E+00
      25     1     1     2     0     0 -6.736734044E+01  7.648996699E+01 -4.217314646E+02  4.515213194E+02  1.250000000E+02  0.00000E+00  9.000E+00
      25     1     1     2     0     0  4.395105714E+01 -8.570930668E+01  5.488540978E+02  5.710898365E+02  1.250000000E+02  0.00000E+00  9.000E+00
      21     1     1     2   511   502  2.341628330E+01  9.219339687E+00  3.623047428E+01  4.411310252E+01  6.743495762E-07  0.00000E+00  9.000E+00
#rwgt            1           1   7.3759882189141771E-002           3      255940           0
</event>
<event>
      5   9999  3.79277E-02  7.65666E+01 -1.00000E+00  1.29278E-01
      21    -1     0     0   502   501  0.000000000E+00  0.000000000E+00  1.118799434E+02  1.118799434E+02  0.000000000E+00  0.00000E+00  9.000E+00
      21    -1     0     0   512   502  0.000000000E+00  0.000000000E+00 -6.626345690E+02  6.626345690E+02  0.000000000E+00  0.00000E+00  9.000E+00
      25     1     1     2     0     0 -1.899946040E+02  4.286417042E+01 -4.069877808E+02  4.681872920E+02  1.250000000E+02  0.00000E+00  9.000E+00
      25     1     1     2     0     0  1.146041070E+02 -2.949547490E+01 -3.888080661E+01  1.764675650E+02  1.250000000E+02  0.00000E+00  9.000E+00
      21     1     1     2   512   501  7.539049707E+01 -1.336869553E+01 -1.048860382E+02  1.298596553E+02  1.348699152E-06  0.00000E+00  9.000E+00
#rwgt            1           1   3.9086077915694434E-002           3      256178           0
</event>
<event>
      5   9999  3.79277E-02  1.03410E+01 -1.00000E+00  1.94089E-01
      21    -1     0     0   511   501  0.000000000E+00  0.000000000E+00  3.380993323E+02  3.380993323E+02  0.000000000E+00  0.00000E+00  9.000E+00
      21    -1     0     0   501   502  0.000000000E+00  0.000000000E+00 -7.195591854E+01  7.195591854E+01  0.000000000E+00  0.00000E+00  9.000E+00
      25     1     1     2     0     0 -1.323296270E+00 -4.243219258E+00  1.745196453E+01  1.262906453E+02  1.250000000E+02  0.00000E+00  9.000E+00
      25     1     1     2     0     0  6.662342569E+00  1.309937181E+01  2.352847613E+02  2.668330925E+02  1.250000000E+02  0.00000E+00  9.000E+00
      21     1     1     2   511   502 -5.339046299E+00 -8.856152549E+00  1.340668799E+01  1.693151311E+01  2.384185791E-07  0.00000E+00  9.000E+00
#rwgt            1           1  0.12044684588914299                3      256300           0
</event>
<event>
      5   9999  3.79277E-02  2.61238E+02 -1.00000E+00  1.07582E-01
      21    -1     0     0   502   501  0.000000000E+00  0.000000000E+00  6.169246265E+02  6.169246265E+02  0.000000000E+00  0.00000E+00  9.000E+00
      21    -1     0     0   501   512  0.000000000E+00  0.000000000E+00 -4.042611802E+02  4.042611802E+02  0.000000000E+00  0.00000E+00  9.000E+00
      25     1     1     2     0     0 -1.710646850E+02 -2.076688827E+02  3.360709921E+02  4.482836190E+02  1.250000000E+02  0.00000E+00  9.000E+00
      25     1     1     2     0     0 -8.610815760E+01  2.535751858E+02 -3.750830413E+01  2.979041163E+02  1.250000000E+02  0.00000E+00  9.000E+00
      21     1     1     2   502   512  2.571728426E+02 -4.590630306E+01 -8.589924168E+01  2.749980715E+02  5.223489356E-06  0.00000E+00  9.000E+00
#rwgt            1           1   4.2578438536252060E-002           3      256668           0
</event>
<event>
      5   9999  3.79277E-02  9.93117E+01 -1.00000E+00  1.23963E-01
      21    -1     0     0   502   501  0.000000000E+00  0.000000000E+00  1.359663461E+02  1.359663461E+02  0.000000000E+00  0.00000E+00  9.000E+00
      21    -1     0     0   501   511  0.000000000E+00  0.000000000E+00 -6.832076816E+02  6.832076816E+02  0.000000000E+00  0.00000E+00  9.000E+00
      25     1     1     2     0     0  1.866020944E+02 -1.550615601E+02 -1.213589094E+02  2.986928421E+02  1.250000000E+02  0.00000E+00  9.000E+00
      25     1     1     2     0     0 -9.198627438E+01  1.248843901E+02 -2.672147635E+02  3.332961377E+02  1.250000000E+02  0.00000E+00  9.000E+00
      21     1     1     2   502   511 -9.461582006E+01  3.017716996E+01 -1.586676626E+02  1.871850478E+02  3.814697266E-06  0.00000E+00  9.000E+00
#rwgt            1           1   3.4649687382422578E-002           3      256726           0
</event>
<event>
      5   9999  3.79277E-02  6.04513E+01 -1.00000E+00  1.34530E-01
      21    -1     0     0   502   501  0.000000000E+00  0.000000000E+00  1.062002068E+02  1.062002068E+02  0.000000000E+00  0.00000E+00  9.000E+00
      21    -1     0     0   501   512  0.000000000E+00  0.000000000E+00 -8.469042172E+02  8.469042172E+02  0.000000000E+00  0.00000E+00  9.000E+00
      25     1     1     2     0     0 -2.294496881E+02  6.673689819E+00 -4.401216479E+02  5.118825671E+02  1.250000000E+02  0.00000E+00  9.000E+00
      25     1     1     2     0     0  1.716626480E+02  1.107499700E+01 -1.062561398E+02  2.377100913E+02  1.250000000E+02  0.00000E+00  9.000E+00
      21     1     1     2   502   512  5.778704003E+01 -1.774868682E+01 -1.943262228E+02  2.035117656E+02  0.000000000E+00  0.00000E+00  9.000E+00
#rwgt            1           1   3.7108994215515577E-002           3      256824           0
</event>
<event>
      5   9999  3.79277E-02  2.25163E+01 -1.00000E+00  1.62232E-01
      21    -1     0     0   502   501  0.000000000E+00  0.000000000E+00  1.318789148E+02  1.318789148E+02  0.000000000E+00  0.00000E+00  9.000E+00
      21    -1     0     0   501   511  0.000000000E+00  0.000000000E+00 -1.134745175E+03  1.134745175E+03  0.000000000E+00  0.00000E+00  9.000E+00
      25     1     1     2     0     0  3.505909084E+01 -1.554551410E+02 -8.894262641E+01  2.212040495E+02  1.250000000E+02  0.00000E+00  9.000E+00
      25     1     1     2     0     0 -1.350582012E+01  1.489406652E+02 -7.919331641E+01  2.103860982E+02  1.250000000E+02  0.00000E+00  9.000E+00
      21     1     1     2   502   511 -2.155327072E+01  6.514475725E+00 -8.347303170E+02  8.350339418E+02  1.078959322E-05  0.00000E+00  9.000E+00
#rwgt            1           1   3.2918814255433596E-002           3      256936           0
</event>
<event>
      5   9999 -3.79277E-02  1.77597E+01 -1.00000E+00  1.70742E-01
      21    -1     0     0   502   501  0.000000000E+00  0.000000000E+00  1.642071437E+02  1.642071437E+02  0.000000000E+00  0.00000E+00  9.000E+00
      21    -1     0     0   501   512  0.000000000E+00  0.000000000E+00 -2.084860923E+02  2.084860923E+02  0.000000000E+00  0.00000E+00  9.000E+00
      25     1     1     2     0     0  2.355403608E+01  1.086602750E+02  2.296794109E+01  1.688619978E+02  1.250000000E+02  0.00000E+00  9.000E+00
      25     1     1     2     0     0 -1.106146996E+01 -1.212834004E+02 -6.324822510E+01  1.856269305E+02  1.250000000E+02  0.00000E+00  9.000E+00
      21     1     1     2   502   512 -1.249256612E+01  1.262312543E+01 -3.998664583E+00  1.820430779E+01  4.616955931E-07  0.00000E+00  9.000E+00
#rwgt            1           1 -0.19513717681756554                3      257128           0
</event>
<event>
      5   9999  3.79277E-02  1.09358E+02 -1.00000E+00  1.22105E-01
      21    -1     0     0   511   501  0.000000000E+00  0.000000000E+00  7.706458189E+02  7.706458189E+02  0.000000000E+00  0.00000E+00  9.000E+00
      21    -1     0     0   501   502  0.000000000E+00  0.000000000E+00 -1.743278345E+02  1.743278345E+02  0.000000000E+00  0.00000E+00  9.000E+00
      25     1     1     2     0     0  1.341963983E+02 -6.848325767E+01  2.238369889E+02  2.973661506E+02  1.250000000E+02  0.00000E+00  9.000E+00
      25     1     1     2     0     0 -7.929429814E+01 -2.609463505E+01 -8.809629705E+01  1.742253519E+02  1.250000000E+02  0.00000E+00  9.000E+00
      21     1     1     2   511   502 -5.490210020E+01  9.457789272E+01  4.605772925E+02  4.733821508E+02  0.000000000E+00  0.00000E+00  9.000E+00
#rwgt            1           1   3.1826732428147153E-002           3      257307           0
</event>
<event>
      5   9999  3.79277E-02  1.99490E+01 -1.00000E+00  1.66461E-01
      21    -1     0     0   502   501  0.000000000E+00  0.000000000E+00  3.589918493E+02  3.589918493E+02  0.000000000E+00  0.00000E+00  9.000E+00
      21    -1     0     0   512   502  0.000000000E+00  0.000000000E+00 -1.029590875E+02  1.029590875E+02  0.000000000E+00  0.00000E+00  9.000E+00
      25     1     1     2     0     0 -3.592251836E+01 -7.099923693E+01  5.121015986E+00  1.482651131E+02  1.250000000E+02  0.00000E+00  9.000E+00
      25     1     1     2     0     0  1.944949313E+01  8.225104472E+01  2.519838794E+02  2.937080057E+02  1.250000000E+02  0.00000E+00  9.000E+00
      21     1     1     2   512   501  1.647302523E+01 -1.125180779E+01 -1.072133542E+00  1.997781793E+01  3.053829302E-07  0.00000E+00  9.000E+00
#rwgt            1           1   4.8265322574508572E-002           3      257364           0
</event>
<event>
      5   9999  3.79277E-02  2.79470E+01 -1.00000E+00  1.55209E-01
      21    -1     0     0   502   501  0.000000000E+00  0.000000000E+00  1.481553807E+02  1.481553807E+02  0.000000000E+00  0.00000E+00  9.000E+00
      21    -1     0     0   501   511  0.000000000E+00  0.000000000E+00 -3.925725961E+02  3.925725961E+02  0.000000000E+00  0.00000E+00  9.000E+00
      25     1     1     2     0     0 -1.228767278E+01  1.093478375E+02  3.496382012E+01  1.701628784E+02  1.250000000E+02  0.00000E+00  9.000E+00
      25     1     1     2     0     0 -9.517444945E+00 -1.268284841E+02 -1.354261051E+02  2.239224779E+02  1.250000000E+02  0.00000E+00  9.000E+00
      21     1     1     2   502   511  2.180511772E+01  1.748064664E+01 -1.439549304E+02  1.466426205E+02  2.697398305E-06  0.00000E+00  9.000E+00
#rwgt            1           1   4.2584821707632101E-002           3      257494           0
</event>
<event>
      5   9999  3.79277E-02  7.62638E+01 -1.00000E+00  1.29363E-01
       4    -1     0     0   502     0  0.000000000E+00  0.000000000E+00  4.469646569E+02  4.469646569E+02  0.000000000E+00  0.00000E+00  9.000E+00
      21    -1     0     0   501   502  0.000000000E+00  0.000000000E+00 -3.092439208E+02  3.092439208E+02  0.000000000E+00  0.00000E+00  9.000E+00
      25     1     1     2     0     0  2.758334139E+02  1.116113731E+02  1.015111966E+01  3.229074420E+02  1.250000000E+02  0.00000E+00  9.000E+00
      25     1     1     2     0     0 -2.311472564E+02 -1.734119437E+02  4.031146385E+01  3.174126186E+02  1.250000000E+02  0.00000E+00  9.000E+00
       4     1     1     2   501     0 -4.468615755E+01  6.180057059E+01  8.725815266E+01  1.158885172E+02  1.348699152E-06  0.00000E+00  9.000E+00
#rwgt            1           1   4.1806419098970718E-002           3      257627           0
</event>
<event>
      5   9999  3.79277E-02  6.66930E+01 -1.00000E+00  1.32294E-01
      21    -1     0     0   511   501  0.000000000E+00  0.000000000E+00  1.633525239E+03  1.633525239E+03  0.000000000E+00  0.00000E+00  9.000E+00
      21    -1     0     0   501   502  0.000000000E+00  0.000000000E+00 -7.730165491E+01  7.730165491E+01  0.000000000E+00  0.00000E+00  9.000E+00
      25     1     1     2     0     0  6.187817514E+01 -2.700427676E+02  4.612905540E+02  5.524183017E+02  1.250000000E+02  0.00000E+00  9.000E+00
      25     1     1     2     0     0  3.216671526E+00  2.845555952E+02  8.735845404E+02  9.272309222E+02  1.250000000E+02  0.00000E+00  9.000E+00
      21     1     1     2   511   502 -6.509484667E+01 -1.451282763E+01  2.213484898E+02  2.311776701E+02  2.697398305E-06  0.00000E+00  9.000E+00
#rwgt            1           1   1.9901580086005725E-002           3      257810           0
</event>
<event>
      5   9999  3.79277E-02  7.66124E+01 -1.00000E+00  1.29266E-01
      21    -1     0     0   512   501  0.000000000E+00  0.000000000E+00  4.268300861E+02  4.268300861E+02  0.000000000E+00  0.00000E+00  9.000E+00
      21    -1     0     0   501   502  0.000000000E+00  0.000000000E+00 -3.494910226E+02  3.494910226E+02  0.000000000E+00  0.00000E+00  9.000E+00
      25     1     1     2     0     0  4.901492003E+01 -4.465435791E+01  1.012709543E+02  1.740036788E+02  1.250000000E+02  0.00000E+00  9.000E+00
      25     1     1     2     0     0  8.676517590E+00  9.506431489E+01 -2.875710614E+02  3.277722094E+02  1.250000000E+02  0.00000E+00  9.000E+00
      21     1     1     2   512   502 -5.769143762E+01 -5.040995699E+01  2.636391707E+02  2.745452204E+02  5.394796609E-06  0.00000E+00  9.000E+00
#rwgt            1           1   2.7419471311992478E-002           3      258183           0
</event>
<event>
      5   9999  3.79277E-02  6.11701E+01 -1.00000E+00  1.34257E-01
      21    -1     0     0   502   501  0.000000000E+00  0.000000000E+00  3.922852185E+02  3.922852185E+02  0.000000000E+00  0.00000E+00  9.000E+00
      21    -1     0     0   511   502  0.000000000E+00  0.000000000E+00 -3.341601064E+02  3.341601064E+02  0.000000000E+00  0.00000E+00  9.000E+00
      25     1     1     2     0     0  3.568024554E+01  2.425966986E+02  6.813248534E+01  2.835370763E+02  1.250000000E+02  0.00000E+00  9.000E+00
      25     1     1     2     0     0  4.375597403E+00 -1.963656165E+02  1.463614896E+02  2.750005215E+02  1.250000000E+02  0.00000E+00  9.000E+00
      21     1     1     2   511   501 -4.005584294E+01 -4.623108210E+01 -1.563688629E+02  1.679077270E+02  3.303624740E-06  0.00000E+00  9.000E+00
#rwgt            2          11   9.9258693048671367E-004           3      258306           0
</event>
<event>
      5   9999  3.79277E-02  8.47295E+00 -1.00000E+00  2.04462E-01
      21    -1     0     0   512   501  0.000000000E+00  0.000000000E+00  5.118741422E+02  5.118741422E+02  0.000000000E+00  0.00000E+00  9.000E+00
      21    -1     0     0   501   502  0.000000000E+00  0.000000000E+00 -1.410713209E+02  1.410713209E+02  0.000000000E+00  0.00000E+00  9.000E+00
      25     1     1     2     0     0  1.138982557E+01 -6.030010000E+01 -2.369028005E+01  1.412517595E+02  1.250000000E+02  0.00000E+00  9.000E+00
      25     1     1     2     0     0 -1.958081967E+01  6.246768997E+01  2.646168231E+01  1.435647638E+02  1.250000000E+02  0.00000E+00  9.000E+00
      21     1     1     2   512   502  8.190994093E+00 -2.167589965E+00  3.680314191E+02  3.681289397E+02  5.394796609E-06  0.00000E+00  9.000E+00
#rwgt            1           1   6.9061647881630675E-002           3      258446           0
</event>
<event>
      5   9999  3.79277E-02  7.66003E+01 -1.00000E+00  1.29269E-01
      21    -1     0     0   502   511  0.000000000E+00  0.000000000E+00  1.882040083E+02  1.882040083E+02  0.000000000E+00  0.00000E+00  9.000E+00
      21    -1     0     0   501   502  0.000000000E+00  0.000000000E+00 -2.730876679E+02  2.730876679E+02  0.000000000E+00  0.00000E+00  9.000E+00
      25     1     1     2     0     0 -5.345588338E+00 -7.292321235E+01  3.522495527E+01  1.490374708E+02  1.250000000E+02  0.00000E+00  9.000E+00
      25     1     1     2     0     0  3.088635950E+01  1.451400864E+02 -1.320967817E+02  2.347214767E+02  1.250000000E+02  0.00000E+00  9.000E+00
      21     1     1     2   501   511 -2.554077116E+01 -7.221687402E+01  1.198816688E+01  7.753272876E+01  5.840038640E-07  0.00000E+00  9.000E+00
#rwgt            1           1   3.8414879203216158E-002           3      258661           0
</event>
<event>
      5   9999  3.79277E-02  6.36220E+01 -1.00000E+00  1.33357E-01
      21    -1     0     0   502   501  0.000000000E+00  0.000000000E+00  8.036850006E+01  8.036850006E+01  0.000000000E+00  0.00000E+00  9.000E+00
      21    -1     0     0   512   502  0.000000000E+00  0.000000000E+00 -1.446707582E+03  1.446707582E+03  0.000000000E+00  0.00000E+00  9.000E+00
      25     1     1     2     0     0  1.687900020E+01  1.481582928E+02 -1.648628644E+02  2.550304775E+02  1.250000000E+02  0.00000E+00  9.000E+00
      25     1     1     2     0     0  6.657079508E+00 -2.072667506E+02 -3.966945720E+02  4.647530593E+02  1.250000000E+02  0.00000E+00  9.000E+00
      21     1     1     2   512   501 -2.353607970E+01  5.910845785E+01 -8.047816457E+02  8.072925456E+02  1.525878906E-05  0.00000E+00  9.000E+00
#rwgt            1           1   3.9228276470246980E-002           3      258734           0
</event>
<event>
      5   9999  3.79277E-02  1.05063E+02 -1.00000E+00  1.22871E-01
      21    -1     0     0   502   501  0.000000000E+00  0.000000000E+00  1.021971927E+02  1.021971927E+02  0.000000000E+00  0.00000E+00  9.000E+00
      21    -1     0     0   511   502  0.000000000E+00  0.000000000E+00 -8.427655490E+02  8.427655490E+02  0.000000000E+00  0.00000E+00  9.000E+00
      25     1     1     2     0     0  2.745908978E+01  1.729795873E+02 -3.297498484E+02  3.937459863E+02  1.250000000E+02  0.00000E+00  9.000E+00
      25     1     1     2     0     0  7.747853903E+01 -1.781101604E+02 -1.649171310E+02  2.838112284E+02  1.250000000E+02  0.00000E+00  9.000E+00
      21     1     1     2   511   501 -1.049376288E+02  5.130573103E+00 -2.459013769E+02  2.674055271E+02  6.031565972E-06  0.00000E+00  9.000E+00
#rwgt            1           1   3.8277773193618629E-002           3      258801           0
</event>
<event>
      5   9999  3.79277E-02  3.33929E+01 -1.00000E+00  1.49877E-01
      21    -1     0     0   502   501  0.000000000E+00  0.000000000E+00  3.422228422E+02  3.422228422E+02  0.000000000E+00  0.00000E+00  9.000E+00
       2    -1     0     0   501     0  0.000000000E+00  0.000000000E+00 -3.165603522E+02  3.165603522E+02  0.000000000E+00  0.00000E+00  9.000E+00
      25     1     1     2     0     0 -7.667266312E+01  8.191363195E+01  2.209079162E+02  2.775136894E+02  1.250000000E+02  0.00000E+00  9.000E+00
      25     1     1     2     0     0  7.925437615E+01 -4.862069108E+01  2.563072759E+01  1.578833808E+02  1.250000000E+02  0.00000E+00  9.000E+00
       2     1     1     2   502     0 -2.581713028E+00 -3.329294087E+01 -2.208761538E+02  2.233861242E+02  2.697398305E-06  0.00000E+00  9.000E+00
#rwgt            1           1   5.0210286106667550E-002           3      258864           0
</event>
<event>
      5   9999  3.79277E-02  1.21075E+01 -1.00000E+00  1.86622E-01
      21    -1     0     0   511   501  0.000000000E+00  0.000000000E+00  1.039256317E+02  1.039256317E+02  0.000000000E+00  0.00000E+00  9.000E+00
      21    -1     0     0   501   502  0.000000000E+00  0.000000000E+00 -7.127850041E+02  7.127850041E+02  0.000000000E+00  0.00000E+00  9.000E+00
      25     1     1     2     0     0  1.523138087E+02  6.778485092E+01 -1.066261333E+02  2.340692518E+02  1.250000000E+02  0.00000E+00  9.000E+00
      25     1     1     2     0     0 -1.584634196E+02 -5.735542899E+01 -5.202307304E+02  5.609503663E+02  1.250000000E+02  0.00000E+00  9.000E+00
      21     1     1     2   511   502  6.149610922E+00 -1.042942194E+01  1.799749126E+01  2.169101768E+01  2.384185791E-07  0.00000E+00  9.000E+00
#rwgt            1           1   4.7299965357212280E-002           3      259076           0
</event>
<event>
      5   9999  3.79277E-02  1.82034E+01 -1.00000E+00  1.69814E-01
      21    -1     0     0   502   501  0.000000000E+00  0.000000000E+00  6.942462444E+01  6.942462444E+01  0.000000000E+00  0.00000E+00  9.000E+00
      -4    -1     0     0     0   502  0.000000000E+00  0.000000000E+00 -7.313862277E+02  7.313862277E+02  0.000000000E+00  0.00000E+00  9.000E+00
      25     1     1     2     0     0  1.007238914E+02 -5.491804962E-01 -1.365341697E+02  2.107419830E+02  1.250000000E+02  0.00000E+00  9.000E+00
      25     1     1     2     0     0 -1.156396567E+02  1.098398726E+01 -1.949171206E+02  2.590576424E+02  1.250000000E+02  0.00000E+00  9.000E+00
      -4     1     1     2     0   501  1.491576530E+01 -1.043480676E+01 -3.305103129E+02  3.310112267E+02  3.814697266E-06  0.00000E+00  9.000E+00
#rwgt            1           1   4.5380711353151318E-002           3      259289           0
</event>
<event>
      5   9999  3.79277E-02  2.02235E+01 -1.00000E+00  1.65972E-01
      21    -1     0     0   502   511  0.000000000E+00  0.000000000E+00  3.062680177E+02  3.062680177E+02  0.000000000E+00  0.00000E+00  9.000E+00
      21    -1     0     0   501   502  0.000000000E+00  0.000000000E+00 -1.795006187E+02  1.795006187E+02  0.000000000E+00  0.00000E+00  9.000E+00
      25     1     1     2     0     0 -5.876501767E+01  1.608037037E+01  1.425827665E+02  1.991651348E+02  1.250000000E+02  0.00000E+00  9.000E+00
      25     1     1     2     0     0  7.898196204E+01 -1.556477987E+01 -1.133723122E+02  1.869724415E+02  1.250000000E+02  0.00000E+00  9.000E+00
      21     1     1     2   501   511 -2.021694438E+01 -5.155904984E-01  9.755694478E+01  9.963106016E+01  2.336015456E-06  0.00000E+00  9.000E+00
#rwgt            1           1   4.5978490736449398E-002           3      259668           0
</event>
<event>
      5   9999  3.79277E-02  1.01052E+02 -1.00000E+00  1.23624E-01
      21    -1     0     0   502   512  0.000000000E+00  0.000000000E+00  1.075543248E+02  1.075543248E+02  0.000000000E+00  0.00000E+00  9.000E+00
      21    -1     0     0   501   502  0.000000000E+00  0.000000000E+00 -9.815921745E+02  9.815921745E+02  0.000000000E+00  0.00000E+00  9.000E+00
      25     1     1     2     0     0 -2.782727147E+02 -5.768831518E+01 -3.938559272E+02  5.015088602E+02  1.250000000E+02  0.00000E+00  9.000E+00
      25     1     1     2     0     0  1.849204227E+02  1.899976072E+01 -4.007260995E+02  4.590892728E+02  1.250000000E+02  0.00000E+00  9.000E+00
      21     1     1     2   501   512  9.335229204E+01  3.868855446E+01 -7.945582305E+01  1.285483664E+02  2.861022949E-06  0.00000E+00  9.000E+00
#rwgt            1           1   9.6069681308361535E-002           3      259820           0
</event>
<event>
      5   9999  3.79277E-02  3.67768E+01 -1.00000E+00  1.47140E-01
      -4    -1     0     0     0   501  0.000000000E+00  0.000000000E+00  5.418393132E+01  5.418393132E+01  0.000000000E+00  0.00000E+00  9.000E+00
      21    -1     0     0   501   502  0.000000000E+00  0.000000000E+00 -1.211118836E+03  1.211118836E+03  0.000000000E+00  0.00000E+00  9.000E+00
      25     1     1     2     0     0 -2.925780602E+01 -3.352157321E+01 -1.055252893E+03  1.063561650E+03  1.250000000E+02  0.00000E+00  9.000E+00
      25     1     1     2     0     0  3.283069501E+00  7.486144998E+00 -4.291320229E+01  1.324136090E+02  1.250000000E+02  0.00000E+00  9.000E+00
      -4     1     1     2     0   502  2.597473652E+01  2.603542821E+01 -5.876880927E+01  6.932750827E+01  6.743495762E-07  0.00000E+00  9.000E+00
#rwgt            1           1   4.7197299533576778E-002           3      259912           0
</event>
<event>
      5   9999  3.79277E-02  5.94077E+01 -1.00000E+00  1.34934E-01
      21    -1     0     0   502   501  0.000000000E+00  0.000000000E+00  1.658901409E+02  1.658901409E+02  0.000000000E+00  0.00000E+00  9.000E+00
       2    -1     0     0   501     0  0.000000000E+00  0.000000000E+00 -1.964340217E+03  1.964340217E+03  0.000000000E+00  0.00000E+00  9.000E+00
      25     1     1     2     0     0  2.351608383E+02  6.727733594E+01 -2.130620975E+02  3.476310072E+02  1.250000000E+02  0.00000E+00  9.000E+00
      25     1     1     2     0     0 -2.242786804E+02 -8.874804464E+00 -7.031530846E+01  2.663624058E+02  1.250000000E+02  0.00000E+00  9.000E+00
       2     1     1     2   502     0 -1.088215791E+01 -5.840253148E+01 -1.515072670E+03  1.516236944E+03  0.000000000E+00  0.00000E+00  9.000E+00
#rwgt            1           1   2.3739570002713539E-002           3      260060           0
</event>
<event>
      5   9999  3.79277E-02  3.33066E+01 -1.00000E+00  1.49951E-01
      21    -1     0     0   502   511  0.000000000E+00  0.000000000E+00  7.618052385E+01  7.618052385E+01  0.000000000E+00  0.00000E+00  9.000E+00
      21    -1     0     0   501   502  0.000000000E+00  0.000000000E+00 -5.384663078E+02  5.384663078E+02  0.000000000E+00  0.00000E+00  9.000E+00
      25     1     1     2     0     0  2.283034611E+01  3.156063352E+01 -4.218090723E+02  4.416618523E+02  1.250000000E+02  0.00000E+00  9.000E+00
      25     1     1     2     0     0  6.129440383E+00 -4.801244351E+01 -2.541894953E+01  1.364327225E+02  1.250000000E+02  0.00000E+00  9.000E+00
      21     1     1     2   501   511 -2.895978649E+01  1.645180999E+01 -1.505776218E+01  3.655225694E+01  9.078709013E-07  0.00000E+00  9.000E+00
#rwgt            1           1   4.0123678771479383E-002           3      260194           0
</event>
<event>
      5   9999  3.79277E-02  1.67902E+02 -1.00000E+00  1.14486E-01
      21    -1     0     0   502   512  0.000000000E+00  0.000000000E+00  8.098469325E+02  8.098469325E+02  0.000000000E+00  0.00000E+00  9.000E+00
      21    -1     0     0   501   502  0.000000000E+00  0.000000000E+00 -2.271331851E+02  2.271331851E+02  0.000000000E+00  0.00000E+00  9.000E+00
      25     1     1     2     0     0 -6.435214810E+01  6.894334649E+01 -1.616404288E+02  2.250489107E+02  1.250000000E+02  0.00000E+00  9.000E+00
      25     1     1     2     0     0 -9.311195169E+01 -1.066638827E+01  3.716602351E+02  4.031624211E+02  1.250000000E+02  0.00000E+00  9.000E+00
      21     1     1     2   501   512  1.574640998E+02 -5.827695821E+01  3.726939410E+02  4.087687858E+02  5.394796609E-06  0.00000E+00  9.000E+00
#rwgt            1           1   2.5793424667449587E-002           3      260282           0
</event>
<event>
      5   9999  3.79277E-02  1.17021E+01 -1.00000E+00  1.88183E-01
      21    -1     0     0   502   501  0.000000000E+00  0.000000000E+00  3.490483633E+02  3.490483633E+02  0.000000000E+00  0.00000E+00  9.000E+00
      21    -1     0     0   501   511  0.000000000E+00  0.000000000E+00 -1.028686138E+02  1.028686138E+02  0.000000000E+00  0.00000E+00  9.000E+00
      25     1     1     2     0     0  1.108257845E+02 -5.657001242E+01  7.942969416E+01  1.934337021E+02  1.250000000E+02  0.00000E+00  9.000E+00
      25     1     1     2     0     0 -1.175843831E+02  4.701694046E+01  1.702534442E+02  2.462679742E+02  1.250000000E+02  0.00000E+00  9.000E+00
      21     1     1     2   502   511  6.758598633E+00  9.553071959E+00 -3.503388880E+00  1.221530077E+01  1.788139343E-07  0.00000E+00  9.000E+00
#rwgt            1           1   3.9300472119553162E-002           3      260359           0
</event>
<event>
      5   9999  3.79277E-02  8.88236E+01 -1.00000E+00  1.26188E-01
      21    -1     0     0   502   512  0.000000000E+00  0.000000000E+00  8.278741398E+02  8.278741398E+02  0.000000000E+00  0.00000E+00  9.000E+00
      21    -1     0     0   501   502  0.000000000E+00  0.000000000E+00 -3.056321099E+02  3.056321099E+02  0.000000000E+00  0.00000E+00  9.000E+00
      25     1     1     2     0     0 -1.283618408E+02  3.817190308E+02 -4.082298316E+01  4.236480811E+02  1.250000000E+02  0.00000E+00  9.000E+00
      25     1     1     2     0     0  7.501451183E+01 -3.107000427E+02  4.567651840E+02  5.713327637E+02  1.250000000E+02  0.00000E+00  9.000E+00
      21     1     1     2   501   512  5.334732899E+01 -7.101898812E+01  1.062998290E+02  1.385254050E+02  1.348699152E-06  0.00000E+00  9.000E+00
#rwgt            1           1  0.19269529463385887                3      260550           0
</event>
<event>
      5   9999  3.79277E-02  3.08499E+01 -1.00000E+00  1.52202E-01
      21    -1     0     0   511   501  0.000000000E+00  0.000000000E+00  6.122410811E+02  6.122410811E+02  0.000000000E+00  0.00000E+00  9.000E+00
      21    -1     0     0   501   502  0.000000000E+00  0.000000000E+00 -1.290718321E+02  1.290718321E+02  0.000000000E+00  0.00000E+00  9.000E+00
      25     1     1     2     0     0 -1.589064953E+02 -2.544442558E+01  6.573918946E+01  2.141152355E+02  1.250000000E+02  0.00000E+00  9.000E+00
      25     1     1     2     0     0  1.728901540E+02  5.294303398E+01  1.700819625E+02  2.779331649E+02  1.250000000E+02  0.00000E+00  9.000E+00
      21     1     1     2   511   502 -1.398365868E+01 -2.749860840E+01  2.473480971E+02  2.492645127E+02  4.672030912E-06  0.00000E+00  9.000E+00
#rwgt            1           1   3.5744168184576777E-002           3      260645           0
</event>
<event>
      5   9999  3.79277E-02  8.76105E+00 -1.00000E+00  2.02641E-01
       2    -1     0     0   502     0  0.000000000E+00  0.000000000E+00  2.751326270E+02  2.751326270E+02  0.000000000E+00  0.00000E+00  9.000E+00
      21    -1     0     0   501   502  0.000000000E+00  0.000000000E+00 -4.479319704E+02  4.479319704E+02  0.000000000E+00  0.00000E+00  9.000E+00
      25     1     1     2     0     0  1.813420642E+02 -1.390346562E+02 -1.905409407E+02  3.227172601E+02  1.250000000E+02  0.00000E+00  9.000E+00
      25     1     1     2     0     0 -1.803684558E+02  1.303278752E+02 -1.059480282E+02  2.763478235E+02  1.250000000E+02  0.00000E+00  9.000E+00
       2     1     1     2   501     0 -9.736084609E-01  8.706780986E+00  1.236896255E+02  1.239995137E+02  1.907348633E-06  0.00000E+00  9.000E+00
#rwgt            1           1   3.6127013852241895E-002           3      260823           0
</event>
<event>
      5   9999  3.79277E-02  1.22624E+02 -1.00000E+00  1.19971E-01
      21    -1     0     0   502   501  0.000000000E+00  0.000000000E+00  3.995549794E+01  3.995549794E+01  0.000000000E+00  0.00000E+00  9.000E+00
      21    -1     0     0   511   502  0.000000000E+00  0.000000000E+00 -2.151497814E+03  2.151497814E+03  0.000000000E+00  0.00000E+00  9.000E+00
      25     1     1     2     0     0 -1.117964388E+02 -1.008980886E+02 -5.689458335E+02  6.016670420E+02  1.250000000E+02  0.00000E+00  9.000E+00
      25     1     1     2     0     0  6.251761501E+01  2.131841607E+02 -8.908180611E+02  9.265731253E+02  1.250000000E+02  0.00000E+00  9.000E+00
      21     1     1     2   511   501  4.927882382E+01 -1.122860721E+02 -6.517784217E+02  6.632131448E+02  0.000000000E+00  0.00000E+00  9.000E+00
#rwgt            1           1  0.30627850322245570                3      261019           0
</event>
<event>
      5   9999  3.79277E-02  4.11269E+01 -1.00000E+00  1.44096E-01
      21    -1     0     0   502   512  0.000000000E+00  0.000000000E+00  4.111362764E+02  4.111362764E+02  0.000000000E+00  0.00000E+00  9.000E+00
      21    -1     0     0   501   502  0.000000000E+00  0.000000000E+00 -8.567136170E+02  8.567136170E+02  0.000000000E+00  0.00000E+00  9.000E+00
      25     1     1     2     0     0 -3.294848223E+01 -3.027818241E+01 -1.742340986E+02  2.190545410E+02  1.250000000E+02  0.00000E+00  9.000E+00
      25     1     1     2     0     0  5.674911850E-01  4.922839567E+00 -6.530274507E+02  6.649018031E+02  1.250000000E+02  0.00000E+00  9.000E+00
      21     1     1     2   501   512  3.238099104E+01  2.535534285E+01  3.816842088E+02  3.838935493E+02  7.629394531E-06  0.00000E+00  9.000E+00
#rwgt            1           1   2.7048062337843792E-002           3      261075           0
</event>
<event>
      5   9999  3.79277E-02  8.04984E+01 -1.00000E+00  1.28219E-01
      21    -1     0     0   502   511  0.000000000E+00  0.000000000E+00  6.172879405E+01  6.172879405E+01  0.000000000E+00  0.00000E+00  9.000E+00
      21    -1     0     0   501   502  0.000000000E+00  0.000000000E+00 -1.911984774E+03  1.911984774E+03  0.000000000E+00  0.00000E+00  9.000E+00
      25     1     1     2     0     0 -1.696201038E+02  4.585969444E+00 -1.248095499E+03  1.265764348E+03  1.250000000E+02  0.00000E+00  9.000E+00
      25     1     1     2     0     0  1.590123686E+02 -8.438234530E+01 -5.862751503E+02  6.258984466E+02  1.250000000E+02  0.00000E+00  9.000E+00
      21     1     1     2   501   511  1.060773516E+01  7.979637586E+01 -1.588533061E+01  8.205077314E+01  1.776178411E-06  0.00000E+00  9.000E+00
#rwgt            1           1   2.9469813904476720E-002           3      261307           0
</event>
<event>
      5   9999  3.79277E-02  1.52356E+02 -1.00000E+00  1.16126E-01
      21    -1     0     0   502   501  0.000000000E+00  0.000000000E+00  1.107602559E+02  1.107602559E+02  0.000000000E+00  0.00000E+00  9.000E+00
       2    -1     0     0   501     0  0.000000000E+00  0.000000000E+00 -3.371608583E+03  3.371608583E+03  0.000000000E+00  0.00000E+00  9.000E+00
      25     1     1     2     0     0 -7.907122695E+01 -6.063335121E+01 -4.213463669E+02  4.506511101E+02  1.250000000E+02  0.00000E+00  9.000E+00
      25     1     1     2     0     0 -7.307705618E+01  6.858196713E+01  2.587715241E+01  1.622910021E+02  1.250000000E+02  0.00000E+00  9.000E+00
       2     1     1     2   502     0  1.521482831E+02 -7.948615912E+00 -2.865379112E+03  2.869426726E+03  3.051757812E-05  0.00000E+00  9.000E+00
#rwgt            1           1   3.0833138550833184E-002           3      261453           0
</event>
<event>
      5   9999  3.79277E-02  1.27035E+01 -1.00000E+00  1.84464E-01
      21    -1     0     0   502   501  0.000000000E+00  0.000000000E+00  3.167887111E+02  3.167887111E+02  0.000000000E+00  0.00000E+00  9.000E+00
      21    -1     0     0   501   511  0.000000000E+00  0.000000000E+00 -1.433222037E+02  1.433222037E+02  0.000000000E+00  0.00000E+00  9.000E+00
      25     1     1     2     0     0  6.333422103E+01  1.046701420E+02  2.003667683E+02  2.659678628E+02  1.250000000E+02  0.00000E+00  9.000E+00
      25     1     1     2     0     0 -7.602048417E+01 -1.040093355E+02 -2.388990813E+01  1.810877787E+02  1.250000000E+02  0.00000E+00  9.000E+00
      21     1     1     2   502   511  1.268626314E+01 -6.608065226E-01 -3.010352756E+00  1.305527332E+01  8.429369702E-08  0.00000E+00  9.000E+00
#rwgt            1           1   4.2285294257567975E-002           3      261637           0
</event>
<event>
      5   9999  3.79277E-02  2.38136E+01 -1.00000E+00  1.60349E-01
      21    -1     0     0   502   501  0.000000000E+00  0.000000000E+00  2.019119600E+02  2.019119600E+02  0.000000000E+00  0.00000E+00  9.000E+00
      21    -1     0     0   512   502  0.000000000E+00  0.000000000E+00 -3.571475219E+02  3.571475219E+02  0.000000000E+00  0.00000E+00  9.000E+00
      25     1     1     2     0     0  3.725531543E+01 -8.121145353E+01 -2.128764705E+02  2.625350461E+02  1.250000000E+02  0.00000E+00  9.000E+00
      25     1     1     2     0     0 -3.241849619E+01  1.045286776E+02  1.359508240E+02  2.146737755E+02  1.250000000E+02  0.00000E+00  9.000E+00
      21     1     1     2   512   501 -4.836819239E+00 -2.331722405E+01 -7.830991536E+01  8.185066036E+01  9.536743164E-07  0.00000E+00  9.000E+00
#rwgt            1           1   5.1747011218045598E-002           3      261891           0
</event>
<event>
      5   9999  3.79277E-02  1.23293E+01 -1.00000E+00  1.85800E-01
      21    -1     0     0   502   501  0.000000000E+00  0.000000000E+00  8.155680065E+02  8.155680065E+02  0.000000000E+00  0.00000E+00  9.000E+00
      21    -1     0     0   501   511  0.000000000E+00  0.000000000E+00 -1.650595543E+02  1.650595543E+02  0.000000000E+00  0.00000E+00  9.000E+00
      25     1     1     2     0     0 -8.914688874E+01  8.789963125E+01  4.892110300E+02  5.202172092E+02  1.250000000E+02  0.00000E+00  9.000E+00
      25     1     1     2     0     0  9.028841092E+01 -7.562332964E+01  2.868070907E+02  3.342965635E+02  1.250000000E+02  0.00000E+00  9.000E+00
      21     1     1     2   502   511 -1.141522180E+00 -1.227630161E+01 -1.255096685E+02  1.261137880E+02  1.907348633E-06  0.00000E+00  9.000E+00
#rwgt            1           1   3.7384028285897722E-002           3      262129           0
</event>
<event>
      5   9999  3.79277E-02  8.52667E+01 -1.00000E+00  1.27023E-01
      21    -1     0     0   512   501  0.000000000E+00  0.000000000E+00  1.497939915E+02  1.497939915E+02  0.000000000E+00  0.00000E+00  9.000E+00
      21    -1     0     0   501   502  0.000000000E+00  0.000000000E+00 -5.264767854E+02  5.264767854E+02  0.000000000E+00  0.00000E+00  9.000E+00
      25     1     1     2     0     0  1.159262314E+02 -1.628092902E+02 -2.121671266E+02  3.171524014E+02  1.250000000E+02  0.00000E+00  9.000E+00
      25     1     1     2     0     0 -3.127937004E+01  1.525470696E+02 -1.841344193E+02  2.716238057E+02  1.250000000E+02  0.00000E+00  9.000E+00
      21     1     1     2   512   502 -8.464686139E+01  1.026222059E+01  1.961875198E+01  8.749456979E+01  9.536743164E-07  0.00000E+00  9.000E+00
#rwgt            1           1   3.4464042485773415E-002           3      262408           0
</event>
<event>
      5   9999  3.79277E-02  7.52351E+00 -1.00000E+00  2.11220E-01
      21    -1     0     0   511   501  0.000000000E+00  0.000000000E+00  1.425363994E+02  1.425363994E+02  0.000000000E+00  0.00000E+00  9.000E+00
      21    -1     0     0   501   502  0.000000000E+00  0.000000000E+00 -2.800495426E+02  2.800495426E+02  0.000000000E+00  0.00000E+00  9.000E+00
      25     1     1     2     0     0 -8.125615445E+01 -5.439336312E+01  2.112596754E+01  1.601015524E+02  1.250000000E+02  0.00000E+00  9.000E+00
      25     1     1     2     0     0  7.813844093E+01  4.754623719E+01 -1.813888366E+02  2.385228934E+02  1.250000000E+02  0.00000E+00  9.000E+00
      21     1     1     2   511   502  3.117713515E+00  6.847125929E+00  2.274972591E+01  2.396149619E+01  5.840038640E-07  0.00000E+00  9.000E+00
#rwgt            1           1   4.6132101139920383E-002           3      262505           0
</event>
<event>
      5   9999  3.79277E-02  6.56220E+01 -1.00000E+00  1.32657E-01
      21    -1     0     0   502   501  0.000000000E+00  0.000000000E+00  1.681043005E+03  1.681043005E+03  0.000000000E+00  0.00000E+00  9.000E+00
       2    -1     0     0   501     0  0.000000000E+00  0.000000000E+00 -1.543150599E+02  1.543150599E+02  0.000000000E+00  0.00000E+00  9.000E+00
      25     1     1     2     0     0  1.646959284E+02  8.675010852E+01  1.273569013E+03  1.293156356E+03  1.250000000E+02  0.00000E+00  9.000E+00
      25     1     1     2     0     0 -1.325970315E+02 -2.951461993E+01  3.669935973E+02  4.108069937E+02  1.250000000E+02  0.00000E+00  9.000E+00
       2     1     1     2   502     0 -3.209889688E+01 -5.723548859E+01 -1.138346649E+02  1.313947156E+02  3.814697266E-06  0.00000E+00  9.000E+00
#rwgt            1           1   4.3322569570649123E-002           3      262847           0
</event>
<event>
      5   9999  3.79277E-02  1.61399E+01 -1.00000E+00  1.74438E-01
      21    -1     0     0   502   501  0.000000000E+00  0.000000000E+00  4.567283770E+01  4.567283770E+01  0.000000000E+00  0.00000E+00  9.000E+00
      21    -1     0     0   511   502  0.000000000E+00  0.000000000E+00 -1.236746840E+03  1.236746840E+03  0.000000000E+00  0.00000E+00  9.000E+00
      25     1     1     2     0     0 -4.261890962E+01  1.374258075E+02 -9.006937029E+02  9.206391098E+02  1.250000000E+02  0.00000E+00  9.000E+00
      25     1     1     2     0     0  5.859362036E+01 -1.397287761E+02 -2.475595527E+02  3.160191060E+02  1.250000000E+02  0.00000E+00  9.000E+00
      21     1     1     2   511   501 -1.597471074E+01  2.302968568E+00 -4.282074627E+01  4.576146150E+01  8.259061849E-07  0.00000E+00  9.000E+00
#rwgt            1           1   4.5911560718723640E-002           3      263012           0
</event>
<event>
      5   9999  3.79277E-02  5.64265E+01 -1.00000E+00  1.36144E-01
      21    -1     0     0   502   501  0.000000000E+00  0.000000000E+00  5.730536037E+02  5.730536037E+02  0.000000000E+00  0.00000E+00  9.000E+00
      21    -1     0     0   501   512  0.000000000E+00  0.000000000E+00 -4.553555085E+02  4.553555085E+02  0.000000000E+00  0.00000E+00  9.000E+00
      25     1     1     2     0     0  9.524736893E+01  1.240676048E+00  3.682381859E+02  4.003722794E+02  1.250000000E+02  0.00000E+00  9.000E+00
      25     1     1     2     0     0 -1.253210407E+02 -4.898508603E+01  1.415698051E+02  2.318877134E+02  1.250000000E+02  0.00000E+00  9.000E+00
      21     1     1     2   502   512  3.007367182E+01  4.774440998E+01 -3.921098958E+02  3.961491194E+02  0.000000000E+00  0.00000E+00  9.000E+00
#rwgt            1           1   4.3164006067742740E-002           3      263226           0
</event>
<event>
      5   9999  3.79277E-02  3.21017E+01 -1.00000E+00  1.51025E-01
      21    -1     0     0   502   501  0.000000000E+00  0.000000000E+00  3.564808719E+01  3.564808719E+01  0.000000000E+00  0.00000E+00  9.000E+00
      21    -1     0     0   501   511  0.000000000E+00  0.000000000E+00 -2.167942270E+03  2.167942270E+03  0.000000000E+00  0.00000E+00  9.000E+00
      25     1     1     2     0     0 -1.249840720E+02  9.724615653E+01 -1.174086660E+03  1.191294388E+03  1.250000000E+02  0.00000E+00  9.000E+00
      25     1     1     2     0     0  1.272733065E+02 -6.522621902E+01 -3.118487526E+02  3.651405192E+02  1.250000000E+02  0.00000E+00  9.000E+00
      21     1     1     2   502   511 -2.289234573E+00 -3.201993751E+01 -6.463587694E+02  6.471554495E+02  7.629394531E-06  0.00000E+00  9.000E+00
#rwgt            1           1   5.0175595638347184E-002           3      263343           0
</event>
<event>
      5   9999  3.79277E-02  3.31543E+01 -1.00000E+00  1.50084E-01
      21    -1     0     0   512   501  0.000000000E+00  0.000000000E+00  1.986287840E+02  1.986287840E+02  0.000000000E+00  0.00000E+00  9.000E+00
      21    -1     0     0   501   502  0.000000000E+00  0.000000000E+00 -1.607561898E+02  1.607561898E+02  0.000000000E+00  0.00000E+00  9.000E+00
      25     1     1     2     0     0 -8.248349556E+01  5.408918703E+01 -4.652449418E+00  1.592978734E+02  1.250000000E+02  0.00000E+00  9.000E+00
      25     1     1     2     0     0  6.358759680E+01 -8.133171423E+01  3.899911368E+01  1.667457978E+02  1.250000000E+02  0.00000E+00  9.000E+00
      21     1     1     2   512   502  1.889589876E+01  2.724252721E+01  3.525929945E+00  3.334130263E+01  5.840038640E-07  0.00000E+00  9.000E+00
#rwgt            1           1   3.5136027625783578E-002           3      263531           0
</event>
<event>
      5   9999  3.79277E-02  2.49478E+01 -1.00000E+00  1.58819E-01
      21    -1     0     0   511   501  0.000000000E+00  0.000000000E+00  5.053298206E+01  5.053298206E+01  0.000000000E+00  0.00000E+00  9.000E+00
      21    -1     0     0   501   502  0.000000000E+00  0.000000000E+00 -1.246928089E+03  1.246928089E+03  0.000000000E+00  0.00000E+00  9.000E+00
      25     1     1     2     0     0  3.511838868E+01 -1.529070768E+01 -1.104193018E+03  1.111905719E+03  1.250000000E+02  0.00000E+00  9.000E+00
      25     1     1     2     0     0 -3.565692846E+01  4.023273547E+01 -7.721962872E+01  1.564543403E+02  1.250000000E+02  0.00000E+00  9.000E+00
      21     1     1     2   511   502  5.385397839E-01 -2.494202779E+01 -1.498246048E+01  2.910101197E+01  4.129530925E-07  0.00000E+00  9.000E+00
#rwgt            1           1   4.0771277666211470E-002           3      263664           0
</event>
<event>
      5   9999  3.79277E-02  7.32208E+01 -1.00000E+00  1.30239E-01
      21    -1     0     0   502   512  0.000000000E+00  0.000000000E+00  2.413048408E+03  2.413048408E+03  0.000000000E+00  0.00000E+00  9.000E+00
      21    -1     0     0   501   502  0.000000000E+00  0.000000000E+00 -1.071577803E+02  1.071577803E+02  0.000000000E+00  0.00000E+00  9.000E+00
      25     1     1     2     0     0 -3.145709641E+02  3.597569765E+02  1.089448447E+03  1.196203533E+03  1.250000000E+02  0.00000E+00  9.000E+00
      25     1     1     2     0     0  3.226148971E+02 -2.869794114E+02  1.045703484E+03  1.138225958E+03  1.250000000E+02  0.00000E+00  9.000E+00
      21     1     1     2   501   512 -8.043933082E+00 -7.277756507E+01  1.707386971E+02  1.857766980E+02  0.000000000E+00  0.00000E+00  9.000E+00
#rwgt            1           1  0.13155587847627279                3      263756           0
</event>
<event>
      5   9999 -3.79277E-02  3.76237E+01 -1.00000E+00  1.46509E-01
      21    -1     0     0   511   501  0.000000000E+00  0.000000000E+00  1.720035435E+02  1.720035435E+02  0.000000000E+00  0.00000E+00  9.000E+00
      21    -1     0     0   501   502  0.000000000E+00  0.000000000E+00 -1.028532036E+03  1.028532036E+03  0.000000000E+00  0.00000E+00  9.000E+00
      25     1     1     2     0     0  1.570161299E+02  1.603278132E+02 -6.872755983E+02  7.337109927E+02  1.250000000E+02  0.00000E+00  9.000E+00
      25     1     1     2     0     0 -1.221973733E+02 -1.745825346E+02 -2.659923267E+02  3.630264140E+02  1.250000000E+02  0.00000E+00  9.000E+00
      21     1     1     2   511   502 -3.481875659E+01  1.425472137E+01  9.673943249E+01  1.037981729E+02  2.697398305E-06  0.00000E+00  9.000E+00
#rwgt            1           1  -2.9927283852515026E-002           3      263987           0
</event>
<event>
      5   9999  3.79277E-02  1.79058E+01 -1.00000E+00  1.70433E-01
      21    -1     0     0   502   501  0.000000000E+00  0.000000000E+00  1.228098047E+02  1.228098047E+02  0.000000000E+00  0.00000E+00  9.000E+00
      21    -1     0     0   501   512  0.000000000E+00  0.000000000E+00 -4.682698804E+02  4.682698804E+02  0.000000000E+00  0.00000E+00  9.000E+00
      25     1     1     2     0     0  1.173857416E+02 -1.247913430E+02 -2.562949411E+02  3.326625745E+02  1.250000000E+02  0.00000E+00  9.000E+00
      25     1     1     2     0     0 -1.323156332E+02  1.149061975E+02 -5.876386237E+01  2.231346063E+02  1.250000000E+02  0.00000E+00  9.000E+00
      21     1     1     2   502   512  1.492989155E+01  9.885145499E+00 -3.040127219E+01  3.528250436E+01  4.768371582E-07  0.00000E+00  9.000E+00
#rwgt            1           1   4.2081012184039153E-002           3      264113           0
</event>
<event>
      5   9999  3.79277E-02  7.43654E+01 -1.00000E+00  1.29904E-01
      21    -1     0     0   502   501  0.000000000E+00  0.000000000E+00  6.861831838E+02  6.861831838E+02  0.000000000E+00  0.00000E+00  9.000E+00
      21    -1     0     0   501   511  0.000000000E+00  0.000000000E+00 -1.173883921E+02  1.173883921E+02  0.000000000E+00  0.00000E+00  9.000E+00
      25     1     1     2     0     0 -1.776423207E+02  4.640156411E+01  4.429937401E+02  4.955586273E+02  1.250000000E+02  0.00000E+00  9.000E+00
      25     1     1     2     0     0  1.036612797E+02 -5.395211938E+01  1.522892915E+02  2.290709943E+02  1.250000000E+02  0.00000E+00  9.000E+00
      21     1     1     2   502   511  7.398104094E+01  7.550555271E+00 -2.648823997E+01  7.894195437E+01  8.259061849E-07  0.00000E+00  9.000E+00
#rwgt            1           1   3.8559984206772147E-002           3      264329           0
</event>
<event>
      5   9999  3.79277E-02  1.86649E+01 -1.00000E+00  1.68883E-01
      21    -1     0     0   502   501  0.000000000E+00  0.000000000E+00  1.359474471E+02  1.359474471E+02  0.000000000E+00  0.00000E+00  9.000E+00
      21    -1     0     0   501   512  0.000000000E+00  0.000000000E+00 -4.472677722E+02  4.472677722E+02  0.000000000E+00  0.00000E+00  9.000E+00
      25     1     1     2     0     0  1.516100088E+02  1.249541283E+02 -2.267687084E+02  3.250356535E+02  1.250000000E+02  0.00000E+00  9.000E+00
      25     1     1     2     0     0 -1.370143447E+02 -1.133203431E+02 -5.664520377E+01  2.246065670E+02  1.250000000E+02  0.00000E+00  9.000E+00
      21     1     1     2   502   512 -1.459566412E+01 -1.163378513E+01 -2.790641286E+01  3.357299877E+01  5.840038640E-07  0.00000E+00  9.000E+00
#rwgt            1           1   3.5773392328445008E-002           3      264502           0
</event>
<event>
      5   9999  3.79277E-02  3.85636E+01 -1.00000E+00  1.45832E-01
      21    -1     0     0   511   501  0.000000000E+00  0.000000000E+00  7.057290617E+02  7.057290617E+02  0.000000000E+00  0.00000E+00  9.000E+00
      21    -1     0     0   501   502  0.000000000E+00  0.000000000E+00 -1.138672198E+02  1.138672198E+02  0.000000000E+00  0.00000E+00  9.000E+00
      25     1     1     2     0     0  7.924136847E+01  8.180094476E+00  2.076015244E+02  2.550872427E+02  1.250000000E+02  0.00000E+00  9.000E+00
      25     1     1     2     0     0 -1.033461241E+02 -3.828181796E+01 -1.134194924E+01  1.670316101E+02  1.250000000E+02  0.00000E+00  9.000E+00
      21     1     1     2   511   502  2.410475560E+01  3.010172348E+01  3.956022666E+02  3.974774288E+02  1.078959322E-05  0.00000E+00  9.000E+00
#rwgt            1           1   2.9342947970382026E-002           3      264633           0
</event>
<event>
      5   9999  3.79277E-02  2.87294E+01 -1.00000E+00  1.54357E-01
      21    -1     0     0   512   501  0.000000000E+00  0.000000000E+00  4.545756631E+02  4.545756631E+02  0.000000000E+00  0.00000E+00  9.000E+00
      21    -1     0     0   501   502  0.000000000E+00  0.000000000E+00 -4.061105783E+02  4.061105783E+02  0.000000000E+00  0.00000E+00  9.000E+00
      25     1     1     2     0     0 -1.755912794E+02 -1.460692149E+02  2.770926754E+02  3.802286992E+02  1.250000000E+02  0.00000E+00  9.000E+00
      25     1     1     2     0     0  1.786836229E+02  1.746317214E+02 -2.961187328E+02  4.071061030E+02  1.250000000E+02  0.00000E+00  9.000E+00
      21     1     1     2   512   502 -3.092343535E+00 -2.856250644E+01  6.749114213E+01  7.335143917E+01  9.536743164E-07  0.00000E+00  9.000E+00
#rwgt            1           1  0.28808574093712319                3      264811           0
</event>
<event>
      5   9999  3.79277E-02  8.96801E+01 -1.00000E+00  1.25994E-01
      21    -1     0     0   502   501  0.000000000E+00  0.000000000E+00  1.823178489E+02  1.823178489E+02  0.000000000E+00  0.00000E+00  9.000E+00
      21    -1     0     0   511   502  0.000000000E+00  0.000000000E+00 -3.427058851E+02  3.427058851E+02  0.000000000E+00  0.00000E+00  9.000E+00
      25     1     1     2     0     0 -3.169872782E+01  3.558090934E+00  1.071568972E+02  1.677053070E+02  1.250000000E+02  0.00000E+00  9.000E+00
      25     1     1     2     0     0 -3.287207218E+01 -6.579262628E+01 -1.414858720E+02  2.026141525E+02  1.250000000E+02  0.00000E+00  9.000E+00
      21     1     1     2   511   501  6.457080000E+01  6.223453534E+01 -1.260590614E+02  1.547042745E+02  3.303624740E-06  0.00000E+00  9.000E+00
#rwgt            1           1   3.8025166786260424E-002           3      265019           0
</event>
<event>
      5   9999  3.79277E-02  4.14229E+01 -1.00000E+00  1.43905E-01
      21    -1     0     0   512   501  0.000000000E+00  0.000000000E+00  4.792586840E+01  4.792586840E+01  0.000000000E+00  0.00000E+00  9.000E+00
      21    -1     0     0   501   502  0.000000000E+00  0.000000000E+00 -1.504005899E+03  1.504005899E+03  0.000000000E+00  0.00000E+00  9.000E+00
      25     1     1     2     0     0  6.087242088E+01  1.092352536E+02 -1.123535036E+03  1.137362637E+03  1.250000000E+02  0.00000E+00  9.000E+00
      25     1     1     2     0     0 -5.190751336E+01 -1.496764110E+02 -2.427035444E+02  3.156381289E+02  1.250000000E+02  0.00000E+00  9.000E+00
      21     1     1     2   512   502 -8.964907522E+00  4.044115739E+01 -8.984145061E+01  9.893100133E+01  9.536743164E-07  0.00000E+00  9.000E+00
#rwgt            1           1   3.2224126273658886E-002           3      265379           0
</event>
<event>
      5   9999  3.79277E-02  1.54878E+01 -1.00000E+00  1.76084E-01
      21    -1     0     0   502   501  0.000000000E+00  0.000000000E+00  3.120582520E+02  3.120582520E+02  0.000000000E+00  0.00000E+00  9.000E+00
      21    -1     0     0   511   502  0.000000000E+00  0.000000000E+00 -3.667239133E+02  3.667239133E+02  0.000000000E+00  0.00000E+00  9.000E+00
      25     1     1     2     0     0 -1.656802149E+02  2.477147822E+02 -3.969342373E+01  3.255965522E+02  1.250000000E+02  0.00000E+00  9.000E+00
      25     1     1     2     0     0  1.765479760E+02 -2.587494069E+02 -1.243069305E+01  3.374906896E+02  1.250000000E+02  0.00000E+00  9.000E+00
      21     1     1     2   511   501 -1.086776114E+01  1.103462473E+01 -2.541544481E+00  1.569492350E+01  5.960464478E-08  0.00000E+00  9.000E+00
#rwgt            1           1   3.1703880309189629E-002           3      265685           0
</event>
<event>
      5   9999  3.79277E-02  1.23239E+02 -1.00000E+00  1.19879E-01
      21    -1     0     0   502   501  0.000000000E+00  0.000000000E+00  9.637803662E+01  9.637803662E+01  0.000000000E+00  0.00000E+00  9.000E+00
      21    -1     0     0   512   502  0.000000000E+00  0.000000000E+00 -1.504556390E+03  1.504556390E+03  0.000000000E+00  0.00000E+00  9.000E+00
      25     1     1     2     0     0 -7.850160896E+01 -1.126219004E+02 -9.518343358E+01  2.086410341E+02  1.250000000E+02  0.00000E+00  9.000E+00
      25     1     1     2     0     0  1.331796479E+02  2.176624606E+00 -1.937388841E+02  2.662730019E+02  1.250000000E+02  0.00000E+00  9.000E+00
      21     1     1     2   512   501 -5.467803889E+01  1.104452758E+02 -1.119256036E+03  1.126020391E+03  1.525878906E-05  0.00000E+00  9.000E+00
#rwgt            1           1   6.2110468978402014E-002           3      266182           0
</event>
<event>
      5   9999  3.79277E-02  1.77375E+02 -1.00000E+00  1.13580E-01
      21    -1     0     0   502   501  0.000000000E+00  0.000000000E+00  1.744995017E+02  1.744995017E+02  0.000000000E+00  0.00000E+00  9.000E+00
      21    -1     0     0   501   511  0.000000000E+00  0.000000000E+00 -8.546789306E+02  8.546789306E+02  0.000000000E+00  0.00000E+00  9.000E+00
      25     1     1     2     0     0 -1.323602357E+02  9.330871069E+01 -1.460590109E+01  2.050952945E+02  1.250000000E+02  0.00000E+00  9.000E+00
      25     1     1     2     0     0  1.334768989E+02  8.406278877E+01 -8.759655153E+01  2.195012320E+02  1.250000000E+02  0.00000E+00  9.000E+00
      21     1     1     2   502   511 -1.116663206E+00 -1.773714995E+02 -5.779769763E+02  6.045819058E+02  7.629394531E-06  0.00000E+00  9.000E+00
#rwgt            1           1   4.3080175003685814E-002           3      266307           0
</event>
<event>
      5   9999  3.79277E-02  3.25901E+01 -1.00000E+00  1.50583E-01
      21    -1     0     0   502   512  0.000000000E+00  0.000000000E+00  8.281818706E+02  8.281818706E+02  0.000000000E+00  0.00000E+00  9.000E+00
      21    -1     0     0   501   502  0.000000000E+00  0.000000000E+00 -1.086069368E+02  1.086069368E+02  0.000000000E+00  0.00000E+00  9.000E+00
      25     1     1     2     0     0  2.417878397E+02 -1.628690867E+01  3.543403660E+02  4.471115273E+02  1.250000000E+02  0.00000E+00  9.000E+00
      25     1     1     2     0     0 -2.528938542E+02  4.692624792E+01  2.880785839E+02  4.059207370E+02  1.250000000E+02  0.00000E+00  9.000E+00
      21     1     1     2   501   512  1.110601447E+01 -3.063933925E+01  7.715598383E+01  8.375654308E+01  9.536743164E-07  0.00000E+00  9.000E+00
#rwgt            1           1   2.7615808282640354E-002           3      266345           0
</event>
<event>
      5   9999  3.79277E-02  2.84807E+01 -1.00000E+00  1.54624E-01
      21    -1     0     0   511   501  0.000000000E+00  0.000000000E+00  1.413748548E+03  1.413748548E+03  0.000000000E+00  0.00000E+00  9.000E+00
      21    -1     0     0   501   502  0.000000000E+00  0.000000000E+00 -4.247775567E+01  4.247775567E+01  0.000000000E+00  0.00000E+00  9.000E+00
      25     1     1     2     0     0  1.163100660E+02  4.929474969E+01  2.981928532E+02  3.471339533E+02  1.250000000E+02  0.00000E+00  9.000E+00
      25     1     1     2     0     0 -1.443601206E+02 -4.436077085E+01  5.271692854E+02  5.624412661E+02  1.250000000E+02  0.00000E+00  9.000E+00
      21     1     1     2   511   502  2.805005460E+01 -4.933978839E+00  5.459086537E+02  5.466510843E+02  7.629394531E-06  0.00000E+00  9.000E+00
#rwgt            1           1   2.4111491782031740E-002           3      266483           0
</event>
<event>
      5   9999  3.79277E-02  6.69242E+01 -1.00000E+00  1.32217E-01
      21    -1     0     0   502   501  0.000000000E+00  0.000000000E+00  7.459119716E+02  7.459119716E+02  0.000000000E+00  0.00000E+00  9.000E+00
      21    -1     0     0   512   502  0.000000000E+00  0.000000000E+00 -1.779752360E+02  1.779752360E+02  0.000000000E+00  0.00000E+00  9.000E+00
      25     1     1     2     0     0  1.942494025E+02  7.785493927E+01  5.525524317E+02  6.039316283E+02  1.250000000E+02  0.00000E+00  9.000E+00
      25     1     1     2     0     0 -1.545657251E+02 -1.317441702E+02  5.140107450E+01  2.439552423E+02  1.250000000E+02  0.00000E+00  9.000E+00
      21     1     1     2   512   501 -3.968367741E+01  5.388923092E+01 -3.601677057E+01  7.600033700E+01  1.507891493E-06  0.00000E+00  9.000E+00
#rwgt            1           1   4.0609040178883123E-002           3      266640           0
</event>
<event>
      5   9999  3.79277E-02  4.59784E+01 -1.00000E+00  1.41186E-01
      21    -1     0     0   502   501  0.000000000E+00  0.000000000E+00  6.598757965E+01  6.598757965E+01  0.000000000E+00  0.00000E+00  9.000E+00
      21    -1     0     0   511   502  0.000000000E+00  0.000000000E+00 -9.759407659E+02  9.759407659E+02  0.000000000E+00  0.00000E+00  9.000E+00
      25     1     1     2     0     0  9.082103516E+01  1.616866555E+02 -4.598006469E+02  5.113048699E+02  1.250000000E+02  0.00000E+00  9.000E+00
      25     1     1     2     0     0 -6.432082398E+01 -1.241133599E+02 -1.919116067E+02  2.683213731E+02  1.250000000E+02  0.00000E+00  9.000E+00
      21     1     1     2   511   501 -2.650021118E+01 -3.757329566E+01 -2.582409326E+02  2.623021026E+02  3.814697266E-06  0.00000E+00  9.000E+00
#rwgt            1           1   3.6852459135522785E-002           3      266773           0
</event>
<event>
      5   9999  3.79277E-02  1.29531E+01 -1.00000E+00  1.83604E-01
      21    -1     0     0   512   501  0.000000000E+00  0.000000000E+00  1.360948557E+02  1.360948557E+02  0.000000000E+00  0.00000E+00  9.000E+00
      21    -1     0     0   501   502  0.000000000E+00  0.000000000E+00 -2.767151094E+02  2.767151094E+02  0.000000000E+00  0.00000E+00  9.000E+00
      25     1     1     2     0     0 -6.919673354E+01  7.301455675E+01 -1.561167271E+02  2.238676973E+02  1.250000000E+02  0.00000E+00  9.000E+00
      25     1     1     2     0     0  6.249666463E+01 -6.192888497E+01 -1.715138371E+01  1.538186915E+02  1.250000000E+02  0.00000E+00  9.000E+00
      21     1     1     2   512   502  6.700068911E+00 -1.108567178E+01  3.264785705E+01  3.512357630E+01  6.743495762E-07  0.00000E+00  9.000E+00
#rwgt            1           1   4.3324748699000930E-002           3      266886           0
</event>
<event>
      5   9999  3.79277E-02  6.15069E+01 -1.00000E+00  1.34130E-01
      21    -1     0     0   502   511  0.000000000E+00  0.000000000E+00  2.443938601E+02  2.443938601E+02  0.000000000E+00  0.00000E+00  9.000E+00
      21    -1     0     0   501   502  0.000000000E+00  0.000000000E+00 -1.560023168E+02  1.560023168E+02  0.000000000E+00  0.00000E+00  9.000E+00
      25     1     1     2     0     0  1.994902372E+01  5.924673810E+01 -5.883609571E+01  1.516404487E+02  1.250000000E+02  0.00000E+00  9.000E+00
      25     1     1     2     0     0  3.963488246E+01 -4.398702901E+01  1.112181580E+02  1.774831296E+02  1.250000000E+02  0.00000E+00  9.000E+00
      21     1     1     2   501   511 -5.958390618E+01 -1.525970909E+01  3.600948101E+01  7.127259866E+01  0.000000000E+00  0.00000E+00  9.000E+00
#rwgt            1           1   5.2210071563085020E-002           3      267082           0
</event>
<event>
      5   9999  3.79277E-02  9.38094E+00 -1.00000E+00  1.99021E-01
      21    -1     0     0   502   512  0.000000000E+00  0.000000000E+00  4.137292397E+02  4.137292397E+02  0.000000000E+00  0.00000E+00  9.000E+00
      21    -1     0     0   501   502  0.000000000E+00  0.000000000E+00 -1.427473503E+02  1.427473503E+02  0.000000000E+00  0.00000E+00  9.000E+00
      25     1     1     2     0     0 -1.162355106E+02 -1.473213773E+02  2.024655822E+02  3.030372817E+02  1.250000000E+02  0.00000E+00  9.000E+00
      25     1     1     2     0     0  1.084084394E+02  1.524923607E+02  4.686435707E+01  2.298425065E+02  1.250000000E+02  0.00000E+00  9.000E+00
      21     1     1     2   501   512  7.827071213E+00 -5.170983450E+00  2.165195009E+01  2.359680182E+01  4.768371582E-07  0.00000E+00  9.000E+00
#rwgt            1           1   4.0193193354649888E-002           3      267202           0
</event>
<event>
      5   9999  3.79277E-02  9.37089E+01 -1.00000E+00  1.25111E-01
      21    -1     0     0   502   501  0.000000000E+00  0.000000000E+00  5.004508602E+01  5.004508602E+01  0.000000000E+00  0.00000E+00  9.000E+00
      21    -1     0     0   501   511  0.000000000E+00  0.000000000E+00 -1.733508409E+03  1.733508409E+03  0.000000000E+00  0.00000E+00  9.000E+00
      25     1     1     2     0     0 -6.331140257E+01 -9.891753626E+01 -1.100270124E+03  1.113558422E+03  1.250000000E+02  0.00000E+00  9.000E+00
      25     1     1     2     0     0  2.888149238E+01  1.176285573E+01 -6.670762299E+01  1.450772634E+02  1.250000000E+02  0.00000E+00  9.000E+00
      21     1     1     2   502   511  3.442991019E+01  8.715468053E+01 -5.164855759E+02  5.249178099E+02  7.629394531E-06  0.00000E+00  9.000E+00
#rwgt            2          11   1.3717694234082357E-003           3      267446           0
</event>
<event>
      5   9999  3.79277E-02  4.96734E+00 -1.00000E+00  2.43110E-01
      21    -1     0     0   502   501  0.000000000E+00  0.000000000E+00  7.232801061E+02  7.232801061E+02  0.000000000E+00  0.00000E+00  9.000E+00
      21    -1     0     0   512   502  0.000000000E+00  0.000000000E+00 -1.212981392E+02  1.212981392E+02  0.000000000E+00  0.00000E+00  9.000E+00
      25     1     1     2     0     0  1.627022137E+01 -2.226621565E+02  2.056033783E+02  3.282390976E+02  1.250000000E+02  0.00000E+00  9.000E+00
      25     1     1     2     0     0 -1.206218486E+01  2.200226730E+02  4.209319901E+02  4.912883199E+02  1.250000000E+02  0.00000E+00  9.000E+00
      21     1     1     2   512   501 -4.208036513E+00  2.639483555E+00 -2.455340152E+01  2.505082775E+01  5.840038640E-07  0.00000E+00  9.000E+00
#rwgt            1           1   3.4357121843954674E-002           3      267481           0
</event>
<event>
      5   9999  3.79277E-02  4.27113E+01 -1.00000E+00  1.43096E-01
      21    -1     0     0   502   511  0.000000000E+00  0.000000000E+00  1.393752929E+03  1.393752929E+03  0.000000000E+00  0.00000E+00  9.000E+00
      21    -1     0     0   501   502  0.000000000E+00  0.000000000E+00 -1.027400001E+02  1.027400001E+02  0.000000000E+00  0.00000E+00  9.000E+00
      25     1     1     2     0     0  1.139890242E+02  2.952517474E+02  7.003293847E+02  7.786227193E+02  1.250000000E+02  0.00000E+00  9.000E+00
      25     1     1     2     0     0 -7.291025901E+01 -3.069476525E+02  4.100620987E+02  5.322675005E+02  1.250000000E+02  0.00000E+00  9.000E+00
      21     1     1     2   501   511 -4.107876515E+01  1.169590505E+01  1.806214454E+02  1.856027092E+02  3.303624740E-06  0.00000E+00  9.000E+00
#rwgt            2          11   2.0729778199610029E-003           3      268130           0
</event>
<event>
      5   9999  3.79277E-02  7.12716E+01 -1.00000E+00  1.30826E-01
      21    -1     0     0   502   501  0.000000000E+00  0.000000000E+00  5.523674349E+02  5.523674349E+02  0.000000000E+00  0.00000E+00  9.000E+00
      21    -1     0     0   512   502  0.000000000E+00  0.000000000E+00 -1.763607072E+02  1.763607072E+02  0.000000000E+00  0.00000E+00  9.000E+00
      25     1     1     2     0     0 -2.174014442E+01 -1.807778591E+02  1.672017854E+02  2.770102981E+02  1.250000000E+02  0.00000E+00  9.000E+00
      25     1     1     2     0     0 -1.717306087E+01  2.404888402E+02  2.502292201E+02  3.692823565E+02  1.250000000E+02  0.00000E+00  9.000E+00
      21     1     1     2   512   501  3.891320529E+01 -5.971098107E+01 -4.142427783E+01  8.243548751E+01  1.261592536E-06  0.00000E+00  9.000E+00
#rwgt            1           1   4.9101030540212934E-002           3      268270           0
</event>
<event>
      5   9999  3.79277E-02  3.65050E+01 -1.00000E+00  1.47347E-01
      21    -1     0     0   502   501  0.000000000E+00  0.000000000E+00  1.614916418E+02  1.614916418E+02  0.000000000E+00  0.00000E+00  9.000E+00
      21    -1     0     0   501   511  0.000000000E+00  0.000000000E+00 -4.789536070E+02  4.789536070E+02  0.000000000E+00  0.00000E+00  9.000E+00
      25     1     1     2     0     0  1.206300468E+02  1.730114229E+02 -1.144919574E+02  2.705881907E+02  1.250000000E+02  0.00000E+00  9.000E+00
      25     1     1     2     0     0 -1.217712741E+02 -2.094985382E+02 -1.774904813E+02  3.253394407E+02  1.250000000E+02  0.00000E+00  9.000E+00
      21     1     1     2   502   511  1.141227228E+00  3.648711535E+01 -2.547952661E+01  4.451761744E+01  8.259061849E-07  0.00000E+00  9.000E+00
#rwgt            1           1   2.4444743612553291E-002           3      268440           0
</event>
<event>
      5   9999  3.79277E-02  9.85918E+00 -1.00000E+00  1.96472E-01
      21    -1     0     0   512   501  0.000000000E+00  0.000000000E+00  1.193170359E+03  1.193170359E+03  0.000000000E+00  0.00000E+00  9.000E+00
      21    -1     0     0   501   502  0.000000000E+00  0.000000000E+00 -3.975507299E+01  3.975507299E+01  0.000000000E+00  0.00000E+00  9.000E+00
      25     1     1     2     0     0  1.549195169E+02 -6.598789845E+01  5.258342443E+02  5.661105121E+02  1.250000000E+02  0.00000E+00  9.000E+00
      25     1     1     2     0     0 -1.460311250E+02  7.025404461E+01  5.206479973E+02  5.594283308E+02  1.250000000E+02  0.00000E+00  9.000E+00
      21     1     1     2   512   502 -8.888391925E+00 -4.266146165E+00  1.069330446E+02  1.073865892E+02  1.348699152E-06  0.00000E+00  9.000E+00
#rwgt            1           1  0.22969839792960711                3      268558           0
</event>
<event>
      5   9999  3.79277E-02  8.23470E+01 -1.00000E+00  1.27745E-01
      21    -1     0     0   502   511  0.000000000E+00  0.000000000E+00  4.990525855E+02  4.990525855E+02  0.000000000E+00  0.00000E+00  9.000E+00
      21    -1     0     0   501   502  0.000000000E+00  0.000000000E+00 -2.327005184E+03  2.327005184E+03  0.000000000E+00  0.00000E+00  9.000E+00
      25     1     1     2     0     0  2.521738693E+02  8.643915285E+01 -1.461783310E+03  1.491140112E+03  1.250000000E+02  0.00000E+00  9.000E+00
      25     1     1     2     0     0 -1.701464894E+02 -7.919046358E+01 -8.319227899E+02  8.619405349E+02  1.250000000E+02  0.00000E+00  9.000E+00
      21     1     1     2   501   511 -8.202737995E+01 -7.248689271E+00  4.657535015E+02  4.729771228E+02  1.525878906E-05  0.00000E+00  9.000E+00
#rwgt            1           1  0.10219466053043361                3      268758           0
</event>
<event>
      5   9999  3.79277E-02  7.11662E+01 -1.00000E+00  1.30858E-01
      21    -1     0     0   512   501  0.000000000E+00  0.000000000E+00  6.036073979E+02  6.036073979E+02  0.000000000E+00  0.00000E+00  9.000E+00
      21    -1     0     0   501   502  0.000000000E+00  0.000000000E+00 -2.206204611E+02  2.206204611E+02  0.000000000E+00  0.00000E+00  9.000E+00
      25     1     1     2     0     0 -9.150947918E+01 -2.200527561E+02 -9.952252102E-01  2.691155713E+02  1.250000000E+02  0.00000E+00  9.000E+00
      25     1     1     2     0     0  1.449257104E+02  1.730279429E+02  1.253061737E+02  2.868253262E+02  1.250000000E+02  0.00000E+00  9.000E+00
      21     1     1     2   512   502 -5.341623126E+01  4.702481319E+01  2.586759883E+02  2.682869616E+02  3.814697266E-06  0.00000E+00  9.000E+00
#rwgt            1           1   3.9789098243111706E-002           3      268844           0
</event>
<event>
      5   9999  3.79277E-02  2.13942E+01 -1.00000E+00  1.63990E-01
      21    -1     0     0   502   501  0.000000000E+00  0.000000000E+00  4.258506545E+02  4.258506545E+02  0.000000000E+00  0.00000E+00  9.000E+00
      21    -1     0     0   501   511  0.000000000E+00  0.000000000E+00 -1.401412752E+02  1.401412752E+02  0.000000000E+00  0.00000E+00  9.000E+00
      25     1     1     2     0     0  1.113047475E+02 -1.261646985E+01  3.391470018E+02  3.784093167E+02  1.250000000E+02  0.00000E+00  9.000E+00
      25     1     1     2     0     0 -9.015546762E+01  9.388711342E+00 -5.929729152E+01  1.654004989E+02  1.250000000E+02  0.00000E+00  9.000E+00
      21     1     1     2   502   511 -2.114927988E+01  3.227758508E+00  5.859669046E+00  2.218211410E+01  4.460403188E-07  0.00000E+00  9.000E+00
#rwgt            1           1   4.5289440371812428E-002           3      268903           0
</event>
<event>
      5   9999  3.79277E-02  1.06511E+02 -1.00000E+00  1.22608E-01
      21    -1     0     0   512   501  0.000000000E+00  0.000000000E+00  5.250755453E+02  5.250755453E+02  0.000000000E+00  0.00000E+00  9.000E+00
      21    -1     0     0   501   502  0.000000000E+00  0.000000000E+00 -1.225342827E+02  1.225342827E+02  0.000000000E+00  0.00000E+00  9.000E+00
      25     1     1     2     0     0  6.695126448E+01 -4.522277093E+01  3.657010324E+01  1.532642922E+02  1.250000000E+02  0.00000E+00  9.000E+00
      25     1     1     2     0     0 -1.624036677E+02  9.248250031E+01  2.656542272E+02  3.480303616E+02  1.250000000E+02  0.00000E+00  9.000E+00
      21     1     1     2   512   502  9.545240322E+01 -4.725972939E+01  1.003169321E+02  1.463151741E+02  1.907348633E-06  0.00000E+00  9.000E+00
#rwgt            1           1   4.0113757638809956E-002           3      269090           0
</event>
<event>
      5   9999  3.79277E-02  8.38899E+00 -1.00000E+00  2.05011E-01
      21    -1     0     0   502   501  0.000000000E+00  0.000000000E+00  1.559789985E+02  1.559789985E+02  0.000000000E+00  0.00000E+00  9.000E+00
      21    -1     0     0   501   511  0.000000000E+00  0.000000000E+00 -2.467318156E+02  2.467318156E+02  0.000000000E+00  0.00000E+00  9.000E+00
      25     1     1     2     0     0  2.580511788E+01 -1.022278400E+02 -1.473056538E+02  2.200917786E+02  1.250000000E+02  0.00000E+00  9.000E+00
      25     1     1     2     0     0 -3.114224689E+01  9.575557129E+01  6.259042800E+01  1.722832860E+02  1.250000000E+02  0.00000E+00  9.000E+00
      21     1     1     2   502   511  5.337129010E+00  6.472268667E+00 -6.037591249E+00  1.033574941E+01  8.429369702E-08  0.00000E+00  9.000E+00
#rwgt            1           1   4.3143370651007464E-002           3      269237           0
</event>
<event>
      5   9999  3.79277E-02  1.62345E+02 -1.00000E+00  1.15048E-01
      21    -1     0     0   502   501  0.000000000E+00  0.000000000E+00  2.936567802E+02  2.936567802E+02  0.000000000E+00  0.00000E+00  9.000E+00
      21    -1     0     0   501   512  0.000000000E+00  0.000000000E+00 -6.674216263E+02  6.674216263E+02  0.000000000E+00  0.00000E+00  9.000E+00
      25     1     1     2     0     0  1.252728371E+02  1.353083794E+02 -2.019011949E+02  3.006505176E+02  1.250000000E+02  0.00000E+00  9.000E+00
      25     1     1     2     0     0  3.333152133E+01 -1.699569873E+02  1.758599904E+02  2.766732804E+02  1.250000000E+02  0.00000E+00  9.000E+00
      21     1     1     2   502   512 -1.586043584E+02  3.464860786E+01 -3.477236417E+02  3.837546085E+02  5.394796609E-06  0.00000E+00  9.000E+00
#rwgt            1           1   4.5661844713611260E-002           3      269520           0
</event>
<event>
      5   9999  3.79277E-02  4.34553E+01 -1.00000E+00  1.42643E-01
      21    -1     0     0   502   511  0.000000000E+00  0.000000000E+00  3.142922759E+03  3.142922759E+03  0.000000000E+00  0.00000E+00  9.000E+00
      21    -1     0     0   501   502  0.000000000E+00  0.000000000E+00 -1.567916097E+01  1.567916097E+01  0.000000000E+00  0.00000E+00  9.000E+00
      25     1     1     2     0     0 -4.392323227E+01  1.181452613E+01  9.698778538E+02  9.789570392E+02  1.250000000E+02  0.00000E+00  9.000E+00
      25     1     1     2     0     0  8.004246743E+01  1.234671269E+01  5.000786729E+02  5.217881917E+02  1.250000000E+02  0.00000E+00  9.000E+00
      21     1     1     2   501   511 -3.611923515E+01 -2.416123883E+01  1.657287071E+03  1.657856689E+03  0.000000000E+00  0.00000E+00  9.000E+00
#rwgt            1           1  0.10149978701628681                3      269630           0
</event>
<event>
      5   9999 -3.79277E-02  2.19875E+01 -1.00000E+00  1.63044E-01
       2    -1     0     0   502     0  0.000000000E+00  0.000000000E+00  5.782748177E+02  5.782748177E+02  0.000000000E+00  0.00000E+00  9.000E+00
      21    -1     0     0   501   502  0.000000000E+00  0.000000000E+00 -2.552078337E+02  2.552078337E+02  0.000000000E+00  0.00000E+00  9.000E+00
      25     1     1     2     0     0  1.125201202E+02 -8.731738887E+01 -5.039766565E+01  1.960867883E+02  1.250000000E+02  0.00000E+00  9.000E+00
      25     1     1     2     0     0 -1.324183470E+02  7.796268797E+01 -5.719344613E+01  2.061768406E+02  1.250000000E+02  0.00000E+00  9.000E+00
       2     1     1     2   501     0  1.989822681E+01  9.354700896E+00  4.306580958E+02  4.312190224E+02  0.000000000E+00  0.00000E+00  9.000E+00
#rwgt            1           1 -0.14378011431512458                3      269699           0
</event>
<event>
      5   9999  3.79277E-02  4.97549E+01 -1.00000E+00  1.39197E-01
      21    -1     0     0   511   501  0.000000000E+00  0.000000000E+00  1.437671778E+02  1.437671778E+02  0.000000000E+00  0.00000E+00  9.000E+00
      21    -1     0     0   501   502  0.000000000E+00  0.000000000E+00 -6.299086015E+02  6.299086015E+02  0.000000000E+00  0.00000E+00  9.000E+00
      25     1     1     2     0     0 -1.415929226E+02  1.518911326E+02 -3.991629815E+02  4.669856075E+02  1.250000000E+02  0.00000E+00  9.000E+00
      25     1     1     2     0     0  9.940696383E+01 -1.782710118E+02 -4.953417628E+01  2.444195833E+02  1.250000000E+02  0.00000E+00  9.000E+00
      21     1     1     2   511   502  4.218595873E+01  2.637987920E+01 -3.744426593E+01  6.227058849E+01  4.768371582E-07  0.00000E+00  9.000E+00
#rwgt            1           1   4.0529589688409841E-002           3      269888           0
</event>
<event>
      5   9999  3.79277E-02  4.36660E+01 -1.00000E+00  1.42517E-01
      21    -1     0     0   502   512  0.000000000E+00  0.000000000E+00  5.074299372E+01  5.074299372E+01  0.000000000E+00  0.00000E+00  9.000E+00
      21    -1     0     0   501   502  0.000000000E+00  0.000000000E+00 -1.533393984E+03  1.533393984E+03  0.000000000E+00  0.00000E+00  9.000E+00
      25     1     1     2     0     0 -1.710749809E+02 -7.568062663E+01 -9.863210806E+02  1.011656305E+03  1.250000000E+02  0.00000E+00  9.000E+00
      25     1     1     2     0     0  1.866129773E+02  3.487267311E+01 -4.684227250E+02  5.206585790E+02  1.250000000E+02  0.00000E+00  9.000E+00
      21     1     1     2   501   512 -1.553799636E+01  4.080795353E+01 -2.790718493E+01  5.182209348E+01  1.507891493E-06  0.00000E+00  9.000E+00
#rwgt            1           1   2.8651498034676166E-002           3      270147           0
</event>
<event>
      5   9999  3.79277E-02  2.46714E+01 -1.00000E+00  1.59183E-01
      21    -1     0     0   502   501  0.000000000E+00  0.000000000E+00  1.380497092E+02  1.380497092E+02  0.000000000E+00  0.00000E+00  9.000E+00
      21    -1     0     0   501   511  0.000000000E+00  0.000000000E+00 -9.531072647E+02  9.531072647E+02  0.000000000E+00  0.00000E+00  9.000E+00
      25     1     1     2     0     0  1.193597767E+02 -5.908970051E+01 -4.211567423E+01  1.874488704E+02  1.250000000E+02  0.00000E+00  9.000E+00
      25     1     1     2     0     0 -9.693174882E+01  6.936885423E+01 -4.926424330E+01  1.796100430E+02  1.250000000E+02  0.00000E+00  9.000E+00
      21     1     1     2   502   511 -2.242802788E+01 -1.027915373E+01 -7.236776380E+02  7.240980605E+02  7.629394531E-06  0.00000E+00  9.000E+00
#rwgt            1           1   4.4290808439888973E-002           3      270259           0
</event>
<event>
      5   9999 -3.79277E-02  5.45902E+01 -1.00000E+00  1.36934E-01
      21    -1     0     0   502   501  0.000000000E+00  0.000000000E+00  1.086057273E+03  1.086057273E+03  0.000000000E+00  0.00000E+00  9.000E+00
      21    -1     0     0   501   512  0.000000000E+00  0.000000000E+00 -3.026127812E+02  3.026127812E+02  0.000000000E+00  0.00000E+00  9.000E+00
      25     1     1     2     0     0 -3.820877238E+01 -1.211788946E+02  1.970912922E+02  2.657333480E+02  1.250000000E+02  0.00000E+00  9.000E+00
      25     1     1     2     0     0  9.269500937E+01  1.178114865E+02  8.405652824E+02  8.629292585E+02  1.250000000E+02  0.00000E+00  9.000E+00
      21     1     1     2   502   512 -5.448623700E+01  3.367408097E+00 -2.542120832E+02  2.600074474E+02  6.607249480E-06  0.00000E+00  9.000E+00
#rwgt            1           1 -0.22857830658013342                3      270444           0
</event>
<event>
      5   9999  3.79277E-02  1.75259E+01 -1.00000E+00  1.71244E-01
      21    -1     0     0   502   511  0.000000000E+00  0.000000000E+00  6.683841739E+01  6.683841739E+01  0.000000000E+00  0.00000E+00  9.000E+00
      21    -1     0     0   501   502  0.000000000E+00  0.000000000E+00 -4.994683165E+02  4.994683165E+02  0.000000000E+00  0.00000E+00  9.000E+00
      25     1     1     2     0     0 -8.600838509E+01  7.761126977E+01 -2.731530939E+02  3.219605010E+02  1.250000000E+02  0.00000E+00  9.000E+00
      25     1     1     2     0     0  8.641171629E+01 -6.009004614E+01 -1.570664489E+02  2.266553942E+02  1.250000000E+02  0.00000E+00  9.000E+00
      21     1     1     2   501   511 -4.033311990E-01 -1.752122363E+01 -2.410356236E+00  1.769083861E+01  1.460009660E-07  0.00000E+00  9.000E+00
#rwgt            2          11   1.3465573665678362E-003           3      270534           0
</event>
<event>
      5   9999  3.79277E-02  2.09717E+01 -1.00000E+00  1.64687E-01
      21    -1     0     0   502   512  0.000000000E+00  0.000000000E+00  7.618108100E+02  7.618108100E+02  0.000000000E+00  0.00000E+00  9.000E+00
      21    -1     0     0   501   502  0.000000000E+00  0.000000000E+00 -5.647334528E+01  5.647334528E+01  0.000000000E+00  0.00000E+00  9.000E+00
      25     1     1     2     0     0  1.074262621E+02  1.581388735E+01  5.619443399E+02  5.858301136E+02  1.250000000E+02  0.00000E+00  9.000E+00
      25     1     1     2     0     0 -9.495012480E+01  1.043133573E+00  1.054680042E+02  1.891166683E+02  1.250000000E+02  0.00000E+00  9.000E+00
      21     1     1     2   501   512 -1.247613733E+01 -1.685702093E+01  3.792512058E+01  4.333737334E+01  4.768371582E-07  0.00000E+00  9.000E+00
#rwgt            1           1   3.2774227974445194E-002           3      270659           0
</event>
<event>
      5   9999  3.79277E-02  8.50516E+01 -1.00000E+00  1.27075E-01
      21    -1     0     0   502   501  0.000000000E+00  0.000000000E+00  8.210475803E+02  8.210475803E+02  0.000000000E+00  0.00000E+00  9.000E+00
      21    -1     0     0   511   502  0.000000000E+00  0.000000000E+00 -2.587756910E+02  2.587756910E+02  0.000000000E+00  0.00000E+00  9.000E+00
      25     1     1     2     0     0  3.332742661E+01 -2.198975019E+02  4.871227887E+02  5.498902072E+02  1.250000000E+02  0.00000E+00  9.000E+00
      25     1     1     2     0     0 -3.400584997E+01  1.348486514E+02  2.635943871E+02  3.231834734E+02  1.250000000E+02  0.00000E+00  9.000E+00
      21     1     1     2   511   501  6.784233583E-01  8.504885050E+01 -1.884452865E+02  2.067495907E+02  2.697398305E-06  0.00000E+00  9.000E+00
#rwgt            1           1   4.0153192597442156E-002           3      270948           0
</event>
<event>
      5   9999  3.79277E-02  2.67952E+01 -1.00000E+00  1.56528E-01
      21    -1     0     0   502   512  0.000000000E+00  0.000000000E+00  4.484352101E+02  4.484352101E+02  0.000000000E+00  0.00000E+00  9.000E+00
      21    -1     0     0   501   502  0.000000000E+00  0.000000000E+00 -3.369063469E+02  3.369063469E+02  0.000000000E+00  0.00000E+00  9.000E+00
      25     1     1     2     0     0 -2.686727631E+01  3.342454012E+01 -2.601437281E+02  2.917855543E+02  1.250000000E+02  0.00000E+00  9.000E+00
      25     1     1     2     0     0  8.850897567E+00 -5.325865018E+01  1.625279354E+01  1.371275884E+02  1.250000000E+02  0.00000E+00  9.000E+00
      21     1     1     2   501   512  1.801637874E+01  1.983411006E+01  3.554197978E+02  3.564284143E+02  3.814697266E-06  0.00000E+00  9.000E+00
#rwgt            2          11   2.7408181078564338E-003           3      271433           0
</event>
<event>
      5   9999  3.79277E-02  4.76070E+01 -1.00000E+00  1.40302E-01
      21    -1     0     0   502   501  0.000000000E+00  0.000000000E+00  1.634865821E+02  1.634865821E+02  0.000000000E+00  0.00000E+00  9.000E+00
      21    -1     0     0   511   502  0.000000000E+00  0.000000000E+00 -7.269938231E+02  7.269938231E+02  0.000000000E+00  0.00000E+00  9.000E+00
      25     1     1     2     0     0 -1.919402919E+02 -1.049659169E+02 -4.513899692E+02  5.169495369E+02  1.250000000E+02  0.00000E+00  9.000E+00
      25     1     1     2     0     0  2.395468734E+02  1.047748937E+02 -4.812327196E+01  2.937708839E+02  1.250000000E+02  0.00000E+00  9.000E+00
      21     1     1     2   511   501 -4.760658149E+01  1.910232233E-01 -6.399399992E+01  7.975998443E+01  0.000000000E+00  0.00000E+00  9.000E+00
#rwgt            1           1   3.3185635570568799E-002           3      271543           0
</event>
<event>
      5   9999  3.79277E-02  6.12979E+01 -1.00000E+00  1.34209E-01
      21    -1     0     0   502   512  0.000000000E+00  0.000000000E+00  5.457482096E+02  5.457482096E+02  0.000000000E+00  0.00000E+00  9.000E+00
      21    -1     0     0   501   502  0.000000000E+00  0.000000000E+00 -1.790018299E+02  1.790018299E+02  0.000000000E+00  0.00000E+00  9.000E+00
      25     1     1     2     0     0  1.453381394E+02 -7.094012015E+01 -3.141632213E+01  2.068034350E+02  1.250000000E+02  0.00000E+00  9.000E+00
      25     1     1     2     0     0 -1.163140299E+02  1.694901899E+01  7.200792271E+01  1.860816050E+02  1.250000000E+02  0.00000E+00  9.000E+00
      21     1     1     2   501   512 -2.902410955E+01  5.399110117E+01  3.261547792E+02  3.318649996E+02  0.000000000E+00  0.00000E+00  9.000E+00
#rwgt            1           1   3.7226761960236866E-002           3      271653           0
</event>
<event>
      5   9999  3.79277E-02  6.49046E+01 -1.00000E+00  1.32905E-01
      21    -1     0     0   502   511  0.000000000E+00  0.000000000E+00  1.475639112E+02  1.475639112E+02  0.000000000E+00  0.00000E+00  9.000E+00
      21    -1     0     0   501   502  0.000000000E+00  0.000000000E+00 -9.501125470E+02  9.501125470E+02  0.000000000E+00  0.00000E+00  9.000E+00
      25     1     1     2     0     0  1.939874092E+02 -8.644774523E+01 -7.303147103E+02  7.707716288E+02  1.250000000E+02  0.00000E+00  9.000E+00
      25     1     1     2     0     0 -1.992615285E+02  2.175782248E+01 -9.166358039E+00  2.364055450E+02  1.250000000E+02  0.00000E+00  9.000E+00
      21     1     1     2   501   511  5.274119216E+00  6.468992275E+01 -6.306756748E+01  9.049928456E+01  1.784161275E-06  0.00000E+00  9.000E+00
#rwgt            1           1   4.2244909189123575E-002           3      271747           0
</event>
<event>
      5   9999 -3.79277E-02  7.57146E+01 -1.00000E+00  1.29518E-01
      21    -1     0     0   502   501  0.000000000E+00  0.000000000E+00  1.576348491E+02  1.576348491E+02  0.000000000E+00  0.00000E+00  9.000E+00
      21    -1     0     0   512   502  0.000000000E+00  0.000000000E+00 -2.263053929E+03  2.263053929E+03  0.000000000E+00  0.00000E+00  9.000E+00
      25     1     1     2     0     0 -1.713924371E+02 -1.870710806E+02 -2.407405710E+02  3.714188730E+02  1.250000000E+02  0.00000E+00  9.000E+00
      25     1     1     2     0     0  2.003916628E+02  1.171300809E+02 -9.844142791E+01  2.814107125E+02  1.250000000E+02  0.00000E+00  9.000E+00
      21     1     1     2   512   501 -2.899922569E+01  6.994099971E+01 -1.766237081E+03  1.767859192E+03  3.051757812E-05  0.00000E+00  9.000E+00
#rwgt            1           1 -0.10669651991307218                3      272031           0
</event>
<event>
      5   9999  3.79277E-02  3.22653E+01 -1.00000E+00  1.50876E-01
      21    -1     0     0   502   511  0.000000000E+00  0.000000000E+00  8.906557129E+01  8.906557129E+01  0.000000000E+00  0.00000E+00  9.000E+00
      21    -1     0     0   501   502  0.000000000E+00  0.000000000E+00 -5.718335997E+02  5.718335997E+02  0.000000000E+00  0.00000E+00  9.000E+00
      25     1     1     2     0     0  2.462311465E+01 -9.025368824E+01 -4.166486247E+02  4.449416844E+02  1.250000000E+02  0.00000E+00  9.000E+00
      25     1     1     2     0     0 -5.532940423E+01  1.001619098E+02 -7.020897952E+01  1.834340534E+02  1.250000000E+02  0.00000E+00  9.000E+00
      21     1     1     2   501   511  3.070628958E+01 -9.908221540E+00  4.089575876E+00  3.252343316E+01  6.165552397E-07  0.00000E+00  9.000E+00
#rwgt            1           1   4.8386298730801594E-002           3      272238           0
</event>
<event>
      5   9999  3.79277E-02  2.06992E+01 -1.00000E+00  1.65147E-01
      21    -1     0     0   512   501  0.000000000E+00  0.000000000E+00  1.239130408E+02  1.239130408E+02  0.000000000E+00  0.00000E+00  9.000E+00
      21    -1     0     0   501   502  0.000000000E+00  0.000000000E+00 -5.994600121E+02  5.994600121E+02  0.000000000E+00  0.00000E+00  9.000E+00
      25     1     1     2     0     0 -1.008264375E+02  1.340494735E+01 -4.566303270E+02  4.842333308E+02  1.250000000E+02  0.00000E+00  9.000E+00
      25     1     1     2     0     0  1.163408946E+02  2.975606087E-01 -6.959196280E+01  1.843999284E+02  1.250000000E+02  0.00000E+00  9.000E+00
      21     1     1     2   512   502 -1.551445711E+01 -1.370250796E+01  5.067531851E+01  5.473979366E+01  9.536743164E-07  0.00000E+00  9.000E+00
#rwgt            1           1   4.9734778795368015E-002           3      272367           0
</event>
<event>
      5   9999  3.79277E-02  1.06437E+02 -1.00000E+00  1.22622E-01
       2    -1     0     0   502     0  0.000000000E+00  0.000000000E+00  5.856480727E+02  5.856480727E+02  0.000000000E+00  0.00000E+00  9.000E+00
      21    -1     0     0   501   502  0.000000000E+00  0.000000000E+00 -1.268983764E+02  1.268983764E+02  0.000000000E+00  0.00000E+00  9.000E+00
      25     1     1     2     0     0  9.845959145E+01 -1.221247281E+02  1.194107247E+02  2.334366328E+02  1.250000000E+02  0.00000E+00  9.000E+00
      25     1     1     2     0     0 -1.511624933E+02  2.965202940E+01  1.113350013E+02  2.274858781E+02  1.250000000E+02  0.00000E+00  9.000E+00
       2     1     1     2   501     0  5.270290183E+01  9.247269867E+01  2.280039702E+02  2.516239383E+02  3.814697266E-06  0.00000E+00  9.000E+00
#rwgt            1           1   4.1843046996114415E-002           3      272481           0
</event>
<event>
      5   9999  3.79277E-02  1.73492E+01 -1.00000E+00  1.71631E-01
      21    -1     0     0   502   501  0.000000000E+00  0.000000000E+00  2.004386159E+02  2.004386159E+02  0.000000000E+00  0.00000E+00  9.000E+00
      21    -1     0     0   511   502  0.000000000E+00  0.000000000E+00 -3.001370045E+02  3.001370045E+02  0.000000000E+00  0.00000E+00  9.000E+00
      25     1     1     2     0     0 -1.050125958E+02  9.908178898E+01 -1.775441836E+02  2.607523409E+02  1.250000000E+02  0.00000E+00  9.000E+00
      25     1     1     2     0     0  1.036087341E+02 -1.163740924E+02  8.953400869E+01  2.189041751E+02  1.250000000E+02  0.00000E+00  9.000E+00
      21     1     1     2   511   501  1.403861682E+00  1.729230340E+01 -1.168821373E+01  2.091910430E+01  1.685873940E-07  0.00000E+00  9.000E+00
#rwgt            1           1   4.5892328812907807E-002           3      272565           0
</event>
<event>
      5   9999  3.79277E-02  3.42813E+01 -1.00000E+00  1.49122E-01
      21    -1     0     0   502   501  0.000000000E+00  0.000000000E+00  1.741622620E+02  1.741622620E+02  0.000000000E+00  0.00000E+00  9.000E+00
      21    -1     0     0   512   502  0.000000000E+00  0.000000000E+00 -3.841136004E+02  3.841136004E+02  0.000000000E+00  0.00000E+00  9.000E+00
      25     1     1     2     0     0  1.523770729E+02  1.296518220E+02 -8.415000289E+01  2.504687411E+02  1.250000000E+02  0.00000E+00  9.000E+00
      25     1     1     2     0     0 -1.218069319E+02 -1.141382443E+02 -3.592266463E+01  2.116126303E+02  1.250000000E+02  0.00000E+00  9.000E+00
      21     1     1     2   512   501 -3.057014096E+01 -1.551357764E+01 -8.987867088E+01  9.619449095E+01  0.000000000E+00  0.00000E+00  9.000E+00
#rwgt            1           1   4.0170248687281418E-002           3      272833           0
</event>
<event>
      5   9999  3.79277E-02  4.12985E+01 -1.00000E+00  1.43985E-01
       2    -1     0     0   502     0  0.000000000E+00  0.000000000E+00  7.967775902E+02  7.967775902E+02  0.000000000E+00  0.00000E+00  9.000E+00
      21    -1     0     0   501   502  0.000000000E+00  0.000000000E+00 -1.487293366E+02  1.487293366E+02  0.000000000E+00  0.00000E+00  9.000E+00
      25     1     1     2     0     0  1.813161268E+02  7.493723141E+01 -6.435065829E+00  2.327177187E+02  1.250000000E+02  0.00000E+00  9.000E+00
      25     1     1     2     0     0 -1.704069647E+02 -3.510559152E+01  3.888061269E+02  4.439213224E+02  1.250000000E+02  0.00000E+00  9.000E+00
       2     1     1     2   501     0 -1.090916216E+01 -3.983163988E+01  2.656771925E+02  2.688678858E+02  0.000000000E+00  0.00000E+00  9.000E+00
#rwgt            1           1   2.8174241130774991E-002           3      273020           0
</event>
<event>
      5   9999  3.79277E-02  1.00336E+01 -1.00000E+00  1.95589E-01
      21    -1     0     0   502   501  0.000000000E+00  0.000000000E+00  6.126247599E+02  6.126247599E+02  0.000000000E+00  0.00000E+00  9.000E+00
      21    -1     0     0   511   502  0.000000000E+00  0.000000000E+00 -9.677253720E+01  9.677253720E+01  0.000000000E+00  0.00000E+00  9.000E+00
      25     1     1     2     0     0 -1.658912091E+02 -5.961139931E+01  2.884434951E+02  3.604137373E+02  1.250000000E+02  0.00000E+00  9.000E+00
      25     1     1     2     0     0  1.758544602E+02  6.079782997E+01  2.429013076E+02  3.305256609E+02  1.250000000E+02  0.00000E+00  9.000E+00
      21     1     1     2   511   501 -9.963251173E+00 -1.186430661E+00 -1.549258005E+01  1.845789880E+01  2.384185791E-07  0.00000E+00  9.000E+00
#rwgt            1           1   3.1033034266019340E-002           3      273206           0
</event>
<event>
      5   9999  3.79277E-02  9.56358E+00 -1.00000E+00  1.98024E-01
      21    -1     0     0   512   501  0.000000000E+00  0.000000000E+00  3.855352266E+02  3.855352266E+02  0.000000000E+00  0.00000E+00  9.000E+00
      21    -1     0     0   501   502  0.000000000E+00  0.000000000E+00 -2.372870442E+02  2.372870442E+02  0.000000000E+00  0.00000E+00  9.000E+00
      25     1     1     2     0     0 -1.969520575E+02 -1.241737103E+02 -6.149219335E+01  2.713217889E+02  1.250000000E+02  0.00000E+00  9.000E+00
      25     1     1     2     0     0  2.028498166E+02  1.317022214E+02  1.997189993E+02  3.376480444E+02  1.250000000E+02  0.00000E+00  9.000E+00
      21     1     1     2   512   502 -5.897759073E+00 -7.528511032E+00  1.002137646E+01  1.385243757E+01  2.920019320E-07  0.00000E+00  9.000E+00
#rwgt            1           1   2.6735708953718428E-002           3      273490           0
</event>
<event>
      5   9999  3.79277E-02  8.07043E+00 -1.00000E+00  2.07174E-01
      21    -1     0     0   502   511  0.000000000E+00  0.000000000E+00  2.205851396E+02  2.205851396E+02  0.000000000E+00  0.00000E+00  9.000E+00
      21    -1     0     0   501   502  0.000000000E+00  0.000000000E+00 -4.605275521E+02  4.605275521E+02  0.000000000E+00  0.00000E+00  9.000E+00
      25     1     1     2     0     0  1.424699398E+02 -7.152952291E+01 -2.278200481E+02  3.048624784E+02  1.250000000E+02  0.00000E+00  9.000E+00
      25     1     1     2     0     0 -1.348309637E+02  7.413297073E+01 -1.434342480E+02  2.446905589E+02  1.250000000E+02  0.00000E+00  9.000E+00
      21     1     1     2   501   511 -7.638976175E+00 -2.603447821E+00  1.313118836E+02  1.315596545E+02  1.907348633E-06  0.00000E+00  9.000E+00
#rwgt            1           1   3.4228355309911015E-002           3      273827           0
</event>
<event>
      5   9999  3.79277E-02  7.20164E+01 -1.00000E+00  1.30599E-01
       2    -1     0     0   502     0  0.000000000E+00  0.000000000E+00  7.405166460E+02  7.405166460E+02  0.000000000E+00  0.00000E+00  9.000E+00
      21    -1     0     0   501   502  0.000000000E+00  0.000000000E+00 -1.266270342E+02  1.266270342E+02  0.000000000E+00  0.00000E+00  9.000E+00
      25     1     1     2     0     0  3.679494314E+01  4.792769882E+01  3.501587558E+02  3.766790231E+02  1.250000000E+02  0.00000E+00  9.000E+00
      25     1     1     2     0     0 -1.083766067E+02 -4.002617301E+01 -4.286221883E+01  1.755270726E+02  1.250000000E+02  0.00000E+00  9.000E+00
       2     1     1     2   501     0  7.158166359E+01 -7.901525810E+00  3.065930748E+02  3.149375846E+02  6.607249480E-06  0.00000E+00  9.000E+00
#rwgt            1           1   3.5357327959529256E-002           3      274071           0
</event>
<event>
      5   9999  3.79277E-02  2.57538E+01 -1.00000E+00  1.57791E-01
      21    -1     0     0   502   501  0.000000000E+00  0.000000000E+00  2.654160565E+02  2.654160565E+02  0.000000000E+00  0.00000E+00  9.000E+00
      21    -1     0     0   511   502  0.000000000E+00  0.000000000E+00 -3.472902407E+02  3.472902407E+02  0.000000000E+00  0.00000E+00  9.000E+00
      25     1     1     2     0     0  6.753343631E+01  2.122868650E+01  2.250142343E+02  2.669603487E+02  1.250000000E+02  0.00000E+00  9.000E+00
      25     1     1     2     0     0 -4.185059586E+01 -1.931873751E+01 -2.641959521E+02  2.958871188E+02  1.250000000E+02  0.00000E+00  9.000E+00
      21     1     1     2   511   501 -2.568284045E+01 -1.909948987E+00 -4.269246651E+01  4.985882967E+01  8.259061849E-07  0.00000E+00  9.000E+00
#rwgt            1           1   3.7637361340520342E-002           3      274140           0
</event>
<event>
      5   9999  3.79277E-02  4.42329E+01 -1.00000E+00  1.42182E-01
      21    -1     0     0   512   501  0.000000000E+00  0.000000000E+00  5.104519744E+01  5.104519744E+01  0.000000000E+00  0.00000E+00  9.000E+00
      21    -1     0     0   501   502  0.000000000E+00  0.000000000E+00 -1.322843884E+03  1.322843884E+03  0.000000000E+00  0.00000E+00  9.000E+00
      25     1     1     2     0     0 -2.499719922E+01  2.075286128E+02 -7.490529526E+02  7.876536744E+02  1.250000000E+02  0.00000E+00  9.000E+00
      25     1     1     2     0     0  3.900673532E+01 -1.655728531E+02 -4.815657305E+02  5.258007683E+02  1.250000000E+02  0.00000E+00  9.000E+00
      21     1     1     2   512   502 -1.400953610E+01 -4.195575970E+01 -4.118000349E+01  6.043463875E+01  6.743495762E-07  0.00000E+00  9.000E+00
#rwgt            1           1   4.1714256277107134E-002           3      274304           0
</event>
<event>
      5   9999  3.79277E-02  2.81608E+02 -1.00000E+00  1.06493E-01
      21    -1     0     0   511   501  0.000000000E+00  0.000000000E+00  8.628987558E+02  8.628987558E+02  0.000000000E+00  0.00000E+00  9.000E+00
      21    -1     0     0   501   502  0.000000000E+00  0.000000000E+00 -2.640339606E+02  2.640339606E+02  0.000000000E+00  0.00000E+00  9.000E+00
      25     1     1     2     0     0 -1.306773270E+02 -3.102796541E+02  6.402297877E+01  3.647930500E+02  1.250000000E+02  0.00000E+00  9.000E+00
      25     1     1     2     0     0  6.154093646E+01  3.729029656E+01 -1.436290830E+01  1.449453215E+02  1.250000000E+02  0.00000E+00  9.000E+00
      21     1     1     2   511   502  6.913639057E+01  2.729893575E+02  5.492047247E+02  6.171943449E+02  7.629394531E-06  0.00000E+00  9.000E+00
#rwgt            1           1   7.3866951875881881E-002           3      274419           0
</event>
<event>
      5   9999  3.79277E-02  1.71859E+01 -1.00000E+00  1.71993E-01
      21    -1     0     0   502   501  0.000000000E+00  0.000000000E+00  1.499579470E+02  1.499579470E+02  0.000000000E+00  0.00000E+00  9.000E+00
      21    -1     0     0   512   502  0.000000000E+00  0.000000000E+00 -1.308954749E+03  1.308954749E+03  0.000000000E+00  0.00000E+00  9.000E+00
      25     1     1     2     0     0  2.336435672E+02 -1.539426238E+02 -5.657444737E+02  6.434123541E+02  1.250000000E+02  0.00000E+00  9.000E+00
      25     1     1     2     0     0 -2.480727649E+02  1.632782712E+02 -1.229422024E+02  3.448763194E+02  1.250000000E+02  0.00000E+00  9.000E+00
      21     1     1     2   512   501  1.442919774E+01 -9.335647392E+00 -4.703101257E+02  4.706240223E+02  7.629394531E-06  0.00000E+00  9.000E+00
#rwgt            1           1  0.24198969023483397                3      274517           0
</event>
<event>
      5   9999  3.79277E-02  6.57514E+01 -1.00000E+00  1.32613E-01
      21    -1     0     0   502   501  0.000000000E+00  0.000000000E+00  5.524575874E+02  5.524575874E+02  0.000000000E+00  0.00000E+00  9.000E+00
      21    -1     0     0   501   511  0.000000000E+00  0.000000000E+00 -9.679469727E+01  9.679469727E+01  0.000000000E+00  0.00000E+00  9.000E+00
      25     1     1     2     0     0 -3.814665770E+01  9.102175150E+01  2.064386663E+02  2.607336758E+02  1.250000000E+02  0.00000E+00  9.000E+00
      25     1     1     2     0     0  1.005101411E+02 -1.118552846E+02  2.563089384E+02  3.223866701E+02  1.250000000E+02  0.00000E+00  9.000E+00
      21     1     1     2   502   511 -6.236348340E+01  2.083353306E+01 -7.084714488E+00  6.613193888E+01  1.909210369E-06  0.00000E+00  9.000E+00
#rwgt            1           1  0.10435717935321435                3      274756           0
</event>
<event>
      5   9999  3.79277E-02  7.10263E+01 -1.00000E+00  1.30901E-01
      21    -1     0     0   512   501  0.000000000E+00  0.000000000E+00  3.487325188E+02  3.487325188E+02  0.000000000E+00  0.00000E+00  9.000E+00
      21    -1     0     0   501   502  0.000000000E+00  0.000000000E+00 -7.494477477E+02  7.494477477E+02  0.000000000E+00  0.00000E+00  9.000E+00
      25     1     1     2     0     0 -1.224155415E+02 -2.408186740E+02  1.045320748E+02  3.154855832E+02  1.250000000E+02  0.00000E+00  9.000E+00
      25     1     1     2     0     0  9.865293353E+01  3.077520240E+02 -5.824881851E+02  6.777619017E+02  1.250000000E+02  0.00000E+00  9.000E+00
      21     1     1     2   512   502  2.376260800E+01 -6.693334996E+01  7.724088143E+01  1.049327815E+02  1.348699152E-06  0.00000E+00  9.000E+00
#rwgt            1           1   2.0644706437846844E-002           3      274887           0
</event>
<event>
      5   9999 -3.79277E-02  1.46503E+01 -1.00000E+00  1.78354E-01
      21    -1     0     0   502   501  0.000000000E+00  0.000000000E+00  6.246804764E+02  6.246804764E+02  0.000000000E+00  0.00000E+00  9.000E+00
      21    -1     0     0   501   511  0.000000000E+00  0.000000000E+00 -9.916232123E+01  9.916232123E+01  0.000000000E+00  0.00000E+00  9.000E+00
      25     1     1     2     0     0  1.381363567E+02  1.370576919E+02  3.113866661E+02  3.878828686E+02  1.250000000E+02  0.00000E+00  9.000E+00
      25     1     1     2     0     0 -1.304213397E+02 -1.246033686E+02  2.275218367E+02  3.161121819E+02  1.250000000E+02  0.00000E+00  9.000E+00
      21     1     1     2   502   511 -7.715016944E+00 -1.245432331E+01 -1.339034768E+01  1.984774714E+01  4.129530925E-07  0.00000E+00  9.000E+00
#rwgt            1           1 -0.10898060356545200                3      275054           0
</event>
<event>
      5   9999  3.79277E-02  3.71402E+01 -1.00000E+00  1.46867E-01
      21    -1     0     0   502   501  0.000000000E+00  0.000000000E+00  3.821080398E+02  3.821080398E+02  0.000000000E+00  0.00000E+00  9.000E+00
      21    -1     0     0   512   502  0.000000000E+00  0.000000000E+00 -1.304545225E+02  1.304545225E+02  0.000000000E+00  0.00000E+00  9.000E+00
      25     1     1     2     0     0  2.534830664E+01  6.920421743E+01 -3.388507586E+01  1.490132837E+02  1.250000000E+02  0.00000E+00  9.000E+00
      25     1     1     2     0     0 -4.778415386E+01 -9.880195276E+01  2.804376196E+02  3.260604388E+02  1.250000000E+02  0.00000E+00  9.000E+00
      21     1     1     2   512   501  2.243584721E+01  2.959773532E+01  5.100973512E+00  3.748883977E+01  6.391886052E-07  0.00000E+00  9.000E+00
#rwgt            1           1   3.5468715335327604E-002           3      275235           0
</event>
<event>
      5   9999  3.79277E-02  5.20727E+01 -1.00000E+00  1.38076E-01
      21    -1     0     0   502   501  0.000000000E+00  0.000000000E+00  3.750213247E+02  3.750213247E+02  0.000000000E+00  0.00000E+00  9.000E+00
       2    -1     0     0   501     0  0.000000000E+00  0.000000000E+00 -4.275880572E+02  4.275880572E+02  0.000000000E+00  0.00000E+00  9.000E+00
      25     1     1     2     0     0 -3.252079687E+01  1.073893776E+02  9.694953439E+01  1.939440457E+02  1.250000000E+02  0.00000E+00  9.000E+00
      25     1     1     2     0     0  7.577146919E+01 -1.363885208E+02  1.836410706E+02  2.714630490E+02  1.250000000E+02  0.00000E+00  9.000E+00
       2     1     1     2   502     0 -4.325067231E+01  2.899914320E+01 -3.331573375E+02  3.372022872E+02  5.394796609E-06  0.00000E+00  9.000E+00
#rwgt            1           1   3.8227403618838245E-002           3      275446           0
</event>
<event>
      5   9999  3.79277E-02  1.78928E+01 -1.00000E+00  1.70460E-01
       2    -1     0     0   502     0  0.000000000E+00  0.000000000E+00  4.243302610E+02  4.243302610E+02  0.000000000E+00  0.00000E+00  9.000E+00
      21    -1     0     0   501   502  0.000000000E+00  0.000000000E+00 -2.535595756E+02  2.535595756E+02  0.000000000E+00  0.00000E+00  9.000E+00
      25     1     1     2     0     0  1.374324550E+02  4.734997116E+01 -6.400240430E+01  2.021163210E+02  1.250000000E+02  0.00000E+00  9.000E+00
      25     1     1     2     0     0 -1.519539072E+02 -3.689630922E+01 -3.685651997E+01  2.035552274E+02  1.250000000E+02  0.00000E+00  9.000E+00
       2     1     1     2   501     0  1.452145220E+01 -1.045366194E+01  2.716296096E+02  2.722182882E+02  0.000000000E+00  0.00000E+00  9.000E+00
#rwgt            1           1   3.5033158749728607E-002           3      275517           0
</event>
<event>
      5   9999  3.79277E-02  7.50912E+01 -1.00000E+00  1.29695E-01
      -1    -1     0     0     0   501  0.000000000E+00  0.000000000E+00  6.152214904E+02  6.152214904E+02  0.000000000E+00  0.00000E+00  9.000E+00
      21    -1     0     0   501   502  0.000000000E+00  0.000000000E+00 -1.030177699E+02  1.030177699E+02  0.000000000E+00  0.00000E+00  9.000E+00
      25     1     1     2     0     0  5.037957514E+01 -8.135696039E+01  6.912530903E+01  1.719312797E+02  1.250000000E+02  0.00000E+00  9.000E+00
      25     1     1     2     0     0  1.802233695E+01  1.123386365E+02  1.027773094E+02  1.978204974E+02  1.250000000E+02  0.00000E+00  9.000E+00
      -1     1     1     2     0   502 -6.840191209E+01 -3.098167613E+01  3.403011021E+02  3.484874832E+02  3.814697266E-06  0.00000E+00  9.000E+00
#rwgt            1           1   8.1679983230775785E-002           3      275866           0
</event>
<event>
      5   9999  3.79277E-02  1.08543E+02 -1.00000E+00  1.22248E-01
      21    -1     0     0   502   501  0.000000000E+00  0.000000000E+00  2.763225912E+02  2.763225912E+02  0.000000000E+00  0.00000E+00  9.000E+00
      21    -1     0     0   501   511  0.000000000E+00  0.000000000E+00 -3.450063572E+02  3.450063572E+02  0.000000000E+00  0.00000E+00  9.000E+00
      25     1     1     2     0     0 -1.671747353E+01  4.638797131E+01 -6.560261817E+01  1.495326764E+02  1.250000000E+02  0.00000E+00  9.000E+00
      25     1     1     2     0     0  1.231253466E+02 -2.496553191E+01  1.840245180E+02  2.554861092E+02  1.250000000E+02  0.00000E+00  9.000E+00
      21     1     1     2   502   511 -1.064078731E+02 -2.142243940E+01 -1.871056659E+02  2.163101629E+02  2.697398305E-06  0.00000E+00  9.000E+00
#rwgt            1           1   3.8035014461631822E-002           3      275968           0
</event>
<event>
      5   9999  3.79277E-02  1.81894E+02 -1.00000E+00  1.13169E-01
      21    -1     0     0   502   501  0.000000000E+00  0.000000000E+00  7.142792493E+02  7.142792493E+02  0.000000000E+00  0.00000E+00  9.000E+00
      21    -1     0     0   501   512  0.000000000E+00  0.000000000E+00 -4.843449136E+02  4.843449136E+02  0.000000000E+00  0.00000E+00  9.000E+00
      25     1     1     2     0     0 -3.017395435E+02 -1.635443835E+02  3.033533586E+02  4.748070952E+02  1.250000000E+02  0.00000E+00  9.000E+00
      25     1     1     2     0     0  3.495230861E+02 -1.196078318E+01  1.793276001E+02  4.124231276E+02  1.250000000E+02  0.00000E+00  9.000E+00
      21     1     1     2   502   512 -4.778354262E+01  1.755051666E+02 -2.527466231E+02  3.113939401E+02  3.814697266E-06  0.00000E+00  9.000E+00
#rwgt            1           1   3.6696435516725051E-002           3      276041           0
</event>
<event>
      5   9999  3.79277E-02  6.98050E+00 -1.00000E+00  2.15725E-01
      21    -1     0     0   502   511  0.000000000E+00  0.000000000E+00  2.049689702E+02  2.049689702E+02  0.000000000E+00  0.00000E+00  9.000E+00
      21    -1     0     0   501   502  0.000000000E+00  0.000000000E+00 -1.211797771E+03  1.211797771E+03  0.000000000E+00  0.00000E+00  9.000E+00
      25     1     1     2     0     0 -4.125623305E+01 -2.036726886E+02 -3.863741088E+02  4.561738625E+02  1.250000000E+02  0.00000E+00  9.000E+00
      25     1     1     2     0     0  3.615944585E+01  2.084424017E+02 -7.713459779E+02  8.095402139E+02  1.250000000E+02  0.00000E+00  9.000E+00
      21     1     1     2   501   511  5.096787197E+00 -4.769713055E+00  1.508912858E+02  1.510526648E+02  4.264961200E-06  0.00000E+00  9.000E+00
#rwgt            1           1   4.0339691180693138E-002           3      276123           0
</event>
<event>
      5   9999  3.79277E-02  1.14098E+01 -1.00000E+00  1.89361E-01
      -1    -1     0     0     0   501  0.000000000E+00  0.000000000E+00  4.097844987E+02  4.097844987E+02  0.000000000E+00  0.00000E+00  9.000E+00
      21    -1     0     0   501   502  0.000000000E+00  0.000000000E+00 -4.641078247E+02  4.641078247E+02  0.000000000E+00  0.00000E+00  9.000E+00
      25     1     1     2     0     0 -5.067913913E+01 -5.044627143E+01  2.040924039E+02  2.497837280E+02  1.250000000E+02  0.00000E+00  9.000E+00
      25     1     1     2     0     0  4.243051820E+01  5.832943992E+01 -4.292667346E+02  4.528770273E+02  1.250000000E+02  0.00000E+00  9.000E+00
      -1     1     1     2     0   502  8.248620929E+00 -7.883168490E+00  1.708510047E+02  1.712315680E+02  0.000000000E+00  0.00000E+00  9.000E+00
#rwgt            1           1   2.1552806924522099E-002           3      276550           0
</event>
<event>
      5   9999  3.79277E-02  1.31614E+02 -1.00000E+00  1.18690E-01
       5    -1     0     0   502     0  0.000000000E+00  0.000000000E+00  6.082415495E+02  6.082415495E+02  0.000000000E+00  0.00000E+00  9.000E+00
      21    -1     0     0   501   502  0.000000000E+00  0.000000000E+00 -5.653138351E+02  5.653138351E+02  0.000000000E+00  0.00000E+00  9.000E+00
      25     1     1     2     0     0 -9.824223514E+01  1.491906358E+02 -3.407378712E+02  4.045203078E+02  1.250000000E+02  0.00000E+00  9.000E+00
      25     1     1     2     0     0 -3.310998995E+01 -1.574855678E+02 -1.280497392E+02  2.406651433E+02  1.250000000E+02  0.00000E+00  9.000E+00
       5     1     1     2   501     0  1.313522251E+02  8.294931996E+00  5.117153249E+02  5.283699335E+02  9.344061824E-06  0.00000E+00  9.000E+00
#rwgt            1           1   4.3160009309466972E-002           3      276855           0
</event>
<event>
      5   9999  3.79277E-02  4.53389E+00 -1.00000E+00  2.51275E-01
      21    -1     0     0   502   511  0.000000000E+00  0.000000000E+00  1.855811540E+03  1.855811540E+03  0.000000000E+00  0.00000E+00  9.000E+00
      21    -1     0     0   501   502  0.000000000E+00  0.000000000E+00 -5.513856585E+02  5.513856585E+02  0.000000000E+00  0.00000E+00  9.000E+00
      25     1     1     2     0     0  8.162526490E+01 -1.260874389E+02 -3.339774191E+02  3.869452708E+02  1.250000000E+02  0.00000E+00  9.000E+00
      25     1     1     2     0     0 -8.470190608E+01  1.294176748E+02 -1.391352650E+02  2.427075801E+02  1.250000000E+02  0.00000E+00  9.000E+00
      21     1     1     2   501   511  3.076641179E+00 -3.330235889E+00  1.777538565E+03  1.777544347E+03  3.051757812E-05  0.00000E+00  9.000E+00
#rwgt            1           1   4.0049838070411292E-002           3      276965           0
</event>
<event>
      5   9999  3.79277E-02  3.63377E+01 -1.00000E+00  1.47475E-01
      21    -1     0     0   502   512  0.000000000E+00  0.000000000E+00  1.124369572E+03  1.124369572E+03  0.000000000E+00  0.00000E+00  9.000E+00
      21    -1     0     0   501   502  0.000000000E+00  0.000000000E+00 -1.403094689E+02  1.403094689E+02  0.000000000E+00  0.00000E+00  9.000E+00
      25     1     1     2     0     0  4.852195448E+01 -4.747340441E+01 -7.758217418E+01  1.620249917E+02  1.250000000E+02  0.00000E+00  9.000E+00
      25     1     1     2     0     0 -3.410802711E+01  8.083003539E+01  2.701419850E+02  3.103200674E+02  1.250000000E+02  0.00000E+00  9.000E+00
      21     1     1     2   501   512 -1.441392738E+01 -3.335663098E+01  7.915002927E+02  7.923339823E+02  1.078959322E-05  0.00000E+00  9.000E+00
#rwgt            1           1   3.8258573290779377E-002           3      277283           0
</event>
<event>
      5   9999  3.79277E-02  2.96819E+01 -1.00000E+00  1.53362E-01
      21    -1     0     0   502   501  0.000000000E+00  0.000000000E+00  6.462324490E+02  6.462324490E+02  0.000000000E+00  0.00000E+00  9.000E+00
      21    -1     0     0   511   502  0.000000000E+00  0.000000000E+00 -6.073837528E+01  6.073837528E+01  0.000000000E+00  0.00000E+00  9.000E+00
      25     1     1     2     0     0 -7.362701323E+01  5.120729456E+01  1.469440955E+02  2.127456023E+02  1.250000000E+02  0.00000E+00  9.000E+00
      25     1     1     2     0     0  5.861199177E+01 -7.681123326E+01  4.367976593E+02  4.644916859E+02  1.250000000E+02  0.00000E+00  9.000E+00
      21     1     1     2   511   501  1.501502146E+01  2.560393869E+01  1.752318957E+00  2.973353608E+01  1.264405455E-07  0.00000E+00  9.000E+00
#rwgt            1           1   3.8349028470870343E-002           3      277398           0
</event>
<event>
      5   9999  3.79277E-02  3.90628E+01 -1.00000E+00  1.45482E-01
      21    -1     0     0   502   501  0.000000000E+00  0.000000000E+00  6.783172145E+02  6.783172145E+02  0.000000000E+00  0.00000E+00  9.000E+00
      21    -1     0     0   512   502  0.000000000E+00  0.000000000E+00 -1.191466064E+02  1.191466064E+02  0.000000000E+00  0.00000E+00  9.000E+00
      25     1     1     2     0     0  1.392267348E+02 -4.669246818E+01  5.536497401E+02  5.862740869E+02  1.250000000E+02  0.00000E+00  9.000E+00
      25     1     1     2     0     0 -1.032659555E+02  3.143717356E+01 -1.711496538E+01  1.660423906E+02  1.250000000E+02  0.00000E+00  9.000E+00
      21     1     1     2   512   501 -3.596077929E+01  1.525529462E+01  2.263583331E+01  4.514734334E+01  7.539457465E-07  0.00000E+00  9.000E+00
#rwgt            1           1   5.1562919024575153E-002           3      277565           0
</event>
<event>
      5   9999  3.79277E-02  2.48413E+01 -1.00000E+00  1.58958E-01
      21    -1     0     0   502   511  0.000000000E+00  0.000000000E+00  5.949083900E+02  5.949083900E+02  0.000000000E+00  0.00000E+00  9.000E+00
      21    -1     0     0   501   502  0.000000000E+00  0.000000000E+00 -2.951817361E+02  2.951817361E+02  0.000000000E+00  0.00000E+00  9.000E+00
      25     1     1     2     0     0  1.620426458E+02 -2.743174327E+02  8.147611532E+01  3.518113561E+02  1.250000000E+02  0.00000E+00  9.000E+00
      25     1     1     2     0     0 -1.804496900E+02  2.576359935E+02  2.062701322E+01  3.391000877E+02  1.250000000E+02  0.00000E+00  9.000E+00
      21     1     1     2   501   511  1.840704416E+01  1.668143912E+01  1.976235254E+02  1.991786822E+02  0.000000000E+00  0.00000E+00  9.000E+00
#rwgt            1           1   4.0548727065248487E-002           3      277759           0
</event>
<event>
      5   9999  3.79277E-02  3.14628E+01 -1.00000E+00  1.51618E-01
      21    -1     0     0   502   501  0.000000000E+00  0.000000000E+00  2.358229939E+03  2.358229939E+03  0.000000000E+00  0.00000E+00  9.000E+00
      21    -1     0     0   512   502  0.000000000E+00  0.000000000E+00 -4.906827415E+01  4.906827415E+01  0.000000000E+00  0.00000E+00  9.000E+00
      25     1     1     2     0     0  1.674248771E+02  1.517719961E+02  1.746407599E+03  1.765398066E+03  1.250000000E+02  0.00000E+00  9.000E+00
      25     1     1     2     0     0 -1.436728428E+02 -1.724056476E+02  5.516600323E+02  6.085387287E+02  1.250000000E+02  0.00000E+00  9.000E+00
      21     1     1     2   512   501 -2.375203428E+01  2.063365150E+01  1.109403402E+01  3.336141929E+01  1.576990671E-06  0.00000E+00  9.000E+00
#rwgt            1           1  0.16515675778425806                3      278058           0
</event>
<event>
      5   9999  3.79277E-02  4.28281E+01 -1.00000E+00  1.43024E-01
       4    -1     0     0   502     0  0.000000000E+00  0.000000000E+00  1.853014949E+02  1.853014949E+02  0.000000000E+00  0.00000E+00  9.000E+00
      21    -1     0     0   501   502  0.000000000E+00  0.000000000E+00 -1.273069594E+03  1.273069594E+03  0.000000000E+00  0.00000E+00  9.000E+00
      25     1     1     2     0     0  1.080198700E+02  1.310348041E+01 -8.335624608E+02  8.498772674E+02  1.250000000E+02  0.00000E+00  9.000E+00
      25     1     1     2     0     0 -1.355484120E+02 -4.591238131E+01 -4.073417581E+02  4.494815087E+02  1.250000000E+02  0.00000E+00  9.000E+00
       4     1     1     2   501     0  2.752854205E+01  3.280890091E+01  1.531361196E+02  1.590123131E+02  3.814697266E-06  0.00000E+00  9.000E+00
#rwgt            1           1   4.1014471614426937E-002           3      278193           0
</event>
<event>
      5   9999  3.79277E-02  6.71170E+00 -1.00000E+00  2.18168E-01
      21    -1     0     0   502   501  0.000000000E+00  0.000000000E+00  1.130489424E+03  1.130489424E+03  0.000000000E+00  0.00000E+00  9.000E+00
      21    -1     0     0   501   511  0.000000000E+00  0.000000000E+00 -1.678961968E+02  1.678961968E+02  0.000000000E+00  0.00000E+00  9.000E+00
      25     1     1     2     0     0  1.630083231E+02  4.350705103E+01  7.297387815E+02  7.593472632E+02  1.250000000E+02  0.00000E+00  9.000E+00
      25     1     1     2     0     0 -1.577310239E+02 -4.765397862E+01  3.581422812E+02  4.135708780E+02  1.250000000E+02  0.00000E+00  9.000E+00
      21     1     1     2   502   511 -5.277299276E+00  4.146927589E+00 -1.252878351E+02  1.254674800E+02  2.697398305E-06  0.00000E+00  9.000E+00
#rwgt            1           1   3.4975493549103447E-002           3      278488           0
</event>
<event>
      5   9999  3.79277E-02  1.57154E+01 -1.00000E+00  1.75498E-01
      21    -1     0     0   502   512  0.000000000E+00  0.000000000E+00  1.080796695E+03  1.080796695E+03  0.000000000E+00  0.00000E+00  9.000E+00
      21    -1     0     0   501   502  0.000000000E+00  0.000000000E+00 -3.149124928E+01  3.149124928E+01  0.000000000E+00  0.00000E+00  9.000E+00
      25     1     1     2     0     0 -8.476253444E+01 -1.842693752E+01  7.101949047E+02  7.263098801E+02  1.250000000E+02  0.00000E+00  9.000E+00
      25     1     1     2     0     0  9.895678722E+01  2.517206309E+01  2.655191046E+02  3.107273297E+02  1.250000000E+02  0.00000E+00  9.000E+00
      21     1     1     2   501   512 -1.419425278E+01 -6.745125565E+00  7.359143652E+01  7.525073462E+01  1.348699152E-06  0.00000E+00  9.000E+00
#rwgt            1           1   2.8113349006423701E-002           3      278842           0
</event>
<event>
      5   9999  3.79277E-02  4.66435E+01 -1.00000E+00  1.40820E-01
      21    -1     0     0   511   501  0.000000000E+00  0.000000000E+00  5.066546653E+02  5.066546653E+02  0.000000000E+00  0.00000E+00  9.000E+00
      21    -1     0     0   501   502  0.000000000E+00  0.000000000E+00 -3.923665360E+02  3.923665360E+02  0.000000000E+00  0.00000E+00  9.000E+00
      25     1     1     2     0     0  2.126926599E+02  2.475018216E+02 -1.608558010E+02  3.847010631E+02  1.250000000E+02  0.00000E+00  9.000E+00
      25     1     1     2     0     0 -1.833785797E+02 -2.112209196E+02  8.416457850E+01  3.177273306E+02  1.250000000E+02  0.00000E+00  9.000E+00
      21     1     1     2   511   502 -2.931408024E+01 -3.628090196E+01  1.909793518E+02  1.965928075E+02  0.000000000E+00  0.00000E+00  9.000E+00
#rwgt            1           1   3.7216788174118914E-002           3      278981           0
</event>
<event>
      5   9999  3.79277E-02  1.80379E+01 -1.00000E+00  1.70156E-01
      21    -1     0     0   502   501  0.000000000E+00  0.000000000E+00  1.936732874E+03  1.936732874E+03  0.000000000E+00  0.00000E+00  9.000E+00
      21    -1     0     0   501   512  0.000000000E+00  0.000000000E+00 -1.749550844E+01  1.749550844E+01  0.000000000E+00  0.00000E+00  9.000E+00
      25     1     1     2     0     0  6.729582210E+01  2.284359363E+01  1.491862039E+03  1.498775468E+03  1.250000000E+02  0.00000E+00  9.000E+00
      25     1     1     2     0     0 -5.065024174E+01 -2.979265381E+01  3.940897958E+02  4.175940808E+02  1.250000000E+02  0.00000E+00  9.000E+00
      21     1     1     2   502   512 -1.664558036E+01  6.949060175E+00  3.328553009E+01  3.785883379E+01  4.768371582E-07  0.00000E+00  9.000E+00
#rwgt            1           1  0.18004873395016488                3      279109           0
</event>
<event>
      5   9999  3.79277E-02  4.00894E+01 -1.00000E+00  1.44780E-01
      21    -1     0     0   502   501  0.000000000E+00  0.000000000E+00  3.354708528E+02  3.354708528E+02  0.000000000E+00  0.00000E+00  9.000E+00
      21    -1     0     0   511   502  0.000000000E+00  0.000000000E+00 -1.305560153E+02  1.305560153E+02  0.000000000E+00  0.00000E+00  9.000E+00
      25     1     1     2     0     0 -7.107539375E+01  1.897328830E+01 -5.260532706E+00  1.451356967E+02  1.250000000E+02  0.00000E+00  9.000E+00
      25     1     1     2     0     0  8.089489984E+01 -5.784152245E+01  2.268729129E+02  2.774634123E+02  1.250000000E+02  0.00000E+00  9.000E+00
      21     1     1     2   511   501 -9.819506092E+00  3.886823416E+01 -1.669754268E+01  4.342775907E+01  4.768371582E-07  0.00000E+00  9.000E+00
#rwgt            1           1   7.2488641429460668E-002           3      279304           0
</event>
<event>
      5   9999  3.79277E-02  1.68686E+01 -1.00000E+00  1.72711E-01
      21    -1     0     0   502   501  0.000000000E+00  0.000000000E+00  1.862128665E+02  1.862128665E+02  0.000000000E+00  0.00000E+00  9.000E+00
      21    -1     0     0   501   512  0.000000000E+00  0.000000000E+00 -2.532053049E+02  2.532053049E+02  0.000000000E+00  0.00000E+00  9.000E+00
      25     1     1     2     0     0  5.229347952E+01 -1.526336049E+02 -4.943390248E+01  2.100008001E+02  1.250000000E+02  0.00000E+00  9.000E+00
      25     1     1     2     0     0 -3.872416859E+01  1.426124283E+02  1.355280967E+01  1.940271749E+02  1.250000000E+02  0.00000E+00  9.000E+00
      21     1     1     2   502   512 -1.356931093E+01  1.002117655E+01 -3.111134558E+01  3.539019642E+01  3.371747881E-07  0.00000E+00  9.000E+00
#rwgt            1           1   3.8997053717634858E-002           3      279438           0
</event>
<event>
      5   9999  3.79277E-02  9.26471E+01 -1.00000E+00  1.25338E-01
      21    -1     0     0   502   511  0.000000000E+00  0.000000000E+00  4.099452620E+02  4.099452620E+02  0.000000000E+00  0.00000E+00  9.000E+00
      21    -1     0     0   501   502  0.000000000E+00  0.000000000E+00 -3.397278363E+02  3.397278363E+02  0.000000000E+00  0.00000E+00  9.000E+00
      25     1     1     2     0     0 -8.539046395E+01  2.743426149E+02  2.057594526E+01  3.140123743E+02  1.250000000E+02  0.00000E+00  9.000E+00
      25     1     1     2     0     0  2.098975073E+00 -3.149136869E+02  2.472967880E+01  3.397228178E+02  1.250000000E+02  0.00000E+00  9.000E+00
      21     1     1     2   501   511  8.329148887E+01  4.057107196E+01  2.491180162E+01  9.593790626E+01  1.348699152E-06  0.00000E+00  9.000E+00
#rwgt            1           1   4.2945913922095215E-002           3      279614           0
</event>
<event>
      5   9999  3.79277E-02  5.41158E+01 -1.00000E+00  1.37143E-01
      21    -1     0     0   502   501  0.000000000E+00  0.000000000E+00  9.893021514E+02  9.893021514E+02  0.000000000E+00  0.00000E+00  9.000E+00
      21    -1     0     0   512   502  0.000000000E+00  0.000000000E+00 -4.705895482E+01  4.705895482E+01  0.000000000E+00  0.00000E+00  9.000E+00
      25     1     1     2     0     0 -7.361241467E+00 -2.833426505E+01  7.445698558E+02  7.555569394E+02  1.250000000E+02  0.00000E+00  9.000E+00
      25     1     1     2     0     0 -4.674410544E+01  2.940007370E+01  1.006870838E+02  1.697417585E+02  1.250000000E+02  0.00000E+00  9.000E+00
      21     1     1     2   512   501  5.410534691E+01 -1.065808645E+00  9.698625701E+01  1.110624084E+02  1.348699152E-06  0.00000E+00  9.000E+00
#rwgt            1           1   5.2493590596200283E-002           3      279733           0
</event>
<event>
      5   9999  3.79277E-02  4.70982E+01 -1.00000E+00  1.40573E-01
      21    -1     0     0   502   501  0.000000000E+00  0.000000000E+00  5.266625894E+02  5.266625894E+02  0.000000000E+00  0.00000E+00  9.000E+00
      21    -1     0     0   501   511  0.000000000E+00  0.000000000E+00 -1.462281588E+02  1.462281588E+02  0.000000000E+00  0.00000E+00  9.000E+00
      25     1     1     2     0     0 -1.232545529E+02  3.765771209E+01  7.721672734E+00  1.797064616E+02  1.250000000E+02  0.00000E+00  9.000E+00
      25     1     1     2     0     0  1.650333055E+02 -5.940105418E+01  3.879115014E+02  4.436945009E+02  1.250000000E+02  0.00000E+00  9.000E+00
      21     1     1     2   502   511 -4.177875259E+01  2.174334209E+01 -1.519874350E+01  4.948978579E+01  7.539457465E-07  0.00000E+00  9.000E+00
#rwgt            1           1   4.0053664015590122E-002           3      279802           0
</event>
<event>
      5   9999  3.79277E-02  1.11432E+01 -1.00000E+00  1.90475E-01
      21    -1     0     0   502   501  0.000000000E+00  0.000000000E+00  8.734393774E+02  8.734393774E+02  0.000000000E+00  0.00000E+00  9.000E+00
      21    -1     0     0   512   502  0.000000000E+00  0.000000000E+00 -9.207614025E+01  9.207614025E+01  0.000000000E+00  0.00000E+00  9.000E+00
      25     1     1     2     0     0  6.343633206E+01  4.322868661E+01  6.855208100E+02  7.010397054E+02  1.250000000E+02  0.00000E+00  9.000E+00
      25     1     1     2     0     0 -7.411062620E+01 -4.003015715E+01  1.479390609E+02  2.112007674E+02  1.250000000E+02  0.00000E+00  9.000E+00
      21     1     1     2   512   501  1.067429414E+01 -3.198529454E+00 -5.209663383E+01  5.327504484E+01  1.168007728E-06  0.00000E+00  9.000E+00
#rwgt            1           1   4.1155702984551554E-002           3      279908           0
</event>
<event>
      5   9999  3.79277E-02  3.09998E+02 -1.00000E+00  1.05131E-01
      21    -1     0     0   502   511  0.000000000E+00  0.000000000E+00  4.073538329E+02  4.073538329E+02  0.000000000E+00  0.00000E+00  9.000E+00
      21    -1     0     0   501   502  0.000000000E+00  0.000000000E+00 -6.968624851E+02  6.968624851E+02  0.000000000E+00  0.00000E+00  9.000E+00
      25     1     1     2     0     0  1.456720516E+02  2.948134243E+02  6.138711329E+01  3.571115784E+02  1.250000000E+02  0.00000E+00  9.000E+00
      25     1     1     2     0     0  1.614078034E+02 -2.523795472E+02 -2.809621235E+02  4.293164680E+02  1.250000000E+02  0.00000E+00  9.000E+00
      21     1     1     2   501   511 -3.070798550E+02 -4.243387709E+01 -6.993364205E+01  3.177882716E+02  3.303624740E-06  0.00000E+00  9.000E+00
#rwgt            1           1   3.4670680669947829E-002           3      280187           0
</event>
<event>
      5   9999  3.79277E-02  5.88688E+01 -1.00000E+00  1.35147E-01
      21    -1     0     0   512   501  0.000000000E+00  0.000000000E+00  1.744636083E+02  1.744636083E+02  0.000000000E+00  0.00000E+00  9.000E+00
      21    -1     0     0   501   502  0.000000000E+00  0.000000000E+00 -1.168019322E+03  1.168019322E+03  0.000000000E+00  0.00000E+00  9.000E+00
      25     1     1     2     0     0  1.569393861E+02  2.870742051E+02 -6.557779689E+02  7.434455694E+02  1.250000000E+02  0.00000E+00  9.000E+00
      25     1     1     2     0     0 -1.192882143E+02 -2.418202442E+02 -4.096663194E+02  5.061207384E+02  1.250000000E+02  0.00000E+00  9.000E+00
      21     1     1     2   512   502 -3.765117186E+01 -4.525396083E+01  7.188857424E+01  9.291662294E+01  1.348699152E-06  0.00000E+00  9.000E+00
#rwgt            1           1   3.4071351415909723E-002           3      280309           0
</event>
<event>
      5   9999  3.79277E-02  7.02196E+01 -1.00000E+00  1.31152E-01
      21    -1     0     0   502   501  0.000000000E+00  0.000000000E+00  3.310072877E+02  3.310072877E+02  0.000000000E+00  0.00000E+00  9.000E+00
      21    -1     0     0   501   511  0.000000000E+00  0.000000000E+00 -3.101173370E+02  3.101173370E+02  0.000000000E+00  0.00000E+00  9.000E+00
      25     1     1     2     0     0  2.188455662E+02  9.806045259E+01  7.902360517E+01  2.817427273E+02  1.250000000E+02  0.00000E+00  9.000E+00
      25     1     1     2     0     0 -1.487204405E+02 -1.017010527E+02  5.513780460E+01  2.261107053E+02  1.250000000E+02  0.00000E+00  9.000E+00
      21     1     1     2   502   511 -7.012512563E+01  3.640600106E+00 -1.132714590E+02  1.332711921E+02  2.697398305E-06  0.00000E+00  9.000E+00
#rwgt            1           1   2.9538830766374896E-002           3      280415           0
</event>
<event>
      5   9999  3.79277E-02  1.19425E+02 -1.00000E+00  1.20457E-01
       1    -1     0     0   502     0  0.000000000E+00  0.000000000E+00  2.477534934E+03  2.477534934E+03  0.000000000E+00  0.00000E+00  9.000E+00
      21    -1     0     0   501   502  0.000000000E+00  0.000000000E+00 -1.413698426E+02  1.413698426E+02  0.000000000E+00  0.00000E+00  9.000E+00
      25     1     1     2     0     0 -2.816523506E+02 -6.349260667E+01  1.316911052E+03  1.353971594E+03  1.250000000E+02  0.00000E+00  9.000E+00
      25     1     1     2     0     0  1.664627392E+02  9.501627867E+01 -9.735539181E+00  2.290364982E+02  1.250000000E+02  0.00000E+00  9.000E+00
       1     1     1     2   501     0  1.151896114E+02 -3.152367200E+01  1.028989579E+03  1.035896685E+03  1.525878906E-05  0.00000E+00  9.000E+00
#rwgt            1           1   3.5616835300870446E-002           3      280640           0
</event>
<event>
      5   9999  3.79277E-02  1.19417E+02 -1.00000E+00  1.20458E-01
      21    -1     0     0   502   501  0.000000000E+00  0.000000000E+00  1.972348396E+02  1.972348396E+02  0.000000000E+00  0.00000E+00  9.000E+00
      21    -1     0     0   511   502  0.000000000E+00  0.000000000E+00 -4.727874528E+02  4.727874528E+02  0.000000000E+00  0.00000E+00  9.000E+00
      25     1     1     2     0     0 -1.630053567E+02 -1.508214981E+02 -1.429668325E+02  2.922026451E+02  1.250000000E+02  0.00000E+00  9.000E+00
      25     1     1     2     0     0  4.615767377E+01  1.754573763E+02 -3.391997462E+01  2.229156486E+02  1.250000000E+02  0.00000E+00  9.000E+00
      21     1     1     2   511   501  1.168476829E+02 -2.463587814E+01 -9.866580609E+01  1.549039986E+02  2.336015456E-06  0.00000E+00  9.000E+00
#rwgt            1           1   3.7833801643574222E-002           3      280711           0
</event>
<event>
      5   9999  3.79277E-02  1.91613E+02 -1.00000E+00  1.12330E-01
      21    -1     0     0   502   512  0.000000000E+00  0.000000000E+00  1.953932968E+02  1.953932968E+02  0.000000000E+00  0.00000E+00  9.000E+00
      21    -1     0     0   501   502  0.000000000E+00  0.000000000E+00 -2.001655448E+03  2.001655448E+03  0.000000000E+00  0.00000E+00  9.000E+00
      25     1     1     2     0     0  1.175729025E+01 -4.058747500E+02 -9.761552236E+02  1.064601600E+03  1.250000000E+02  0.00000E+00  9.000E+00
      25     1     1     2     0     0 -5.478355822E+00  2.143641868E+02 -8.960596013E+02  9.298009605E+02  1.250000000E+02  0.00000E+00  9.000E+00
      21     1     1     2   501   512 -6.278934427E+00  1.915105631E+02  6.595267372E+01  2.026461842E+02  1.348699152E-06  0.00000E+00  9.000E+00
#rwgt            1           1   1.5332201953202498E-002           3      280817           0
</event>
<event>
      5   9999  3.79277E-02  1.29211E+02 -1.00000E+00  1.19021E-01
       2    -1     0     0   502     0  0.000000000E+00  0.000000000E+00  1.071722210E+03  1.071722210E+03  0.000000000E+00  0.00000E+00  9.000E+00
      21    -1     0     0   501   502  0.000000000E+00  0.000000000E+00 -1.119217262E+02  1.119217262E+02  0.000000000E+00  0.00000E+00  9.000E+00
      25     1     1     2     0     0  1.094991464E+02  1.342661946E+02  5.370421335E+01  2.202875771E+02  1.250000000E+02  0.00000E+00  9.000E+00
      25     1     1     2     0     0  1.933853640E+01 -1.440877366E+02  4.460956984E+02  4.855529085E+02  1.250000000E+02  0.00000E+00  9.000E+00
       2     1     1     2   501     0 -1.288376828E+02  9.821541948E+00  4.600005718E+02  4.778034505E+02  7.629394531E-06  0.00000E+00  9.000E+00
#rwgt            1           1   4.3186975647283042E-002           3      280905           0
</event>
<event>
      5   9999 -3.91825E-02  4.99435E+01 -1.00000E+00  1.39104E-01
      21    -1     0     0   502   501  0.000000000E+00  0.000000000E+00  1.147314571E+02  1.147314571E+02  0.000000000E+00  0.00000E+00  9.000E+00
      21    -1     0     0   501   511  0.000000000E+00  0.000000000E+00 -7.900863019E+02  7.900863019E+02  0.000000000E+00  0.00000E+00  9.000E+00
      25     1     1     2     0     0  1.015955400E+02 -2.138673009E+02 -2.374463227E+02  3.578639858E+02  1.250000000E+02  0.00000E+00  9.000E+00
      25     1     1     2     0     0 -1.302107378E+02  1.729341631E+02 -2.539568492E+02  3.563427315E+02  1.250000000E+02  0.00000E+00  9.000E+00
      21     1     1     2   502   511  2.861519783E+01  4.093313784E+01 -1.839516729E+02  1.906110418E+02  0.000000000E+00  0.00000E+00  9.000E+00
#rwgt            1           1 -0.28876941993867999                3      281178           0
</event>
<event>
      5   9999  3.79277E-02  1.39494E+01 -1.00000E+00  1.80407E-01
      21    -1     0     0   502   501  0.000000000E+00  0.000000000E+00  2.157186780E+03  2.157186780E+03  0.000000000E+00  0.00000E+00  9.000E+00
      21    -1     0     0   501   512  0.000000000E+00  0.000000000E+00 -7.879316175E+01  7.879316175E+01  0.000000000E+00  0.00000E+00  9.000E+00
      25     1     1     2     0     0 -8.635828509E+01  6.074675698E+00  4.745411033E+02  4.983060444E+02  1.250000000E+02  0.00000E+00  9.000E+00
      25     1     1     2     0     0  7.625344784E+01  3.541868438E+00  1.666788120E+03  1.673210916E+03  1.250000000E+02  0.00000E+00  9.000E+00
      21     1     1     2   502   512  1.010483725E+01 -9.616544135E+00 -6.293560469E+01  6.446298158E+01  2.431401974E-06  0.00000E+00  9.000E+00
#rwgt            1           1  0.12820744251949961                3      281355           0
</event>
<event>
      5   9999  3.79277E-02  1.52073E+01 -1.00000E+00  1.76824E-01
      21    -1     0     0   511   501  0.000000000E+00  0.000000000E+00  4.061330236E+01  4.061330236E+01  0.000000000E+00  0.00000E+00  9.000E+00
      21    -1     0     0   501   502  0.000000000E+00  0.000000000E+00 -5.139140918E+02  5.139140918E+02  0.000000000E+00  0.00000E+00  9.000E+00
      25     1     1     2     0     0 -2.319736657E+01  1.858022086E-01 -3.295057355E+02  3.531815144E+02  1.250000000E+02  0.00000E+00  9.000E+00
      25     1     1     2     0     0  1.044395642E+01 -8.469114744E+00 -1.289465573E+02  1.800916899E+02  1.250000000E+02  0.00000E+00  9.000E+00
      21     1     1     2   511   502  1.275341016E+01  8.283312536E+00 -1.484849668E+01  2.125418996E+01  1.685873940E-07  0.00000E+00  9.000E+00
#rwgt            1           1   2.6464745452170528E-002           3      281534           0
</event>
<event>
      5   9999  3.79277E-02  1.85885E+02 -1.00000E+00  1.12818E-01
      21    -1     0     0   502   512  0.000000000E+00  0.000000000E+00  3.625312286E+02  3.625312286E+02  0.000000000E+00  0.00000E+00  9.000E+00
      21    -1     0     0   501   502  0.000000000E+00  0.000000000E+00 -9.258023005E+02  9.258023005E+02  0.000000000E+00  0.00000E+00  9.000E+00
      25     1     1     2     0     0 -8.672705003E+01  8.077577103E+01 -5.401489608E+01  1.805240023E+02  1.250000000E+02  0.00000E+00  9.000E+00
      25     1     1     2     0     0 -3.826366030E+01 -2.183643415E+02 -7.566831796E+02  7.983367257E+02  1.250000000E+02  0.00000E+00  9.000E+00
      21     1     1     2   501   512  1.249907103E+02  1.375885704E+02  2.474270038E+02  3.094728010E+02  5.394796609E-06  0.00000E+00  9.000E+00
#rwgt            1           1   5.2249243301984362E-002           3      281678           0
</event>
<event>
      5   9999  3.79277E-02  1.07416E+01 -1.00000E+00  1.92233E-01
      21    -1     0     0   511   501  0.000000000E+00  0.000000000E+00  1.183420008E+02  1.183420008E+02  0.000000000E+00  0.00000E+00  9.000E+00
      21    -1     0     0   501   502  0.000000000E+00  0.000000000E+00 -1.499388465E+03  1.499388465E+03  0.000000000E+00  0.00000E+00  9.000E+00
      25     1     1     2     0     0  1.369584667E+02 -1.692142988E+02 -1.295256164E+03  1.319357659E+03  1.250000000E+02  0.00000E+00  9.000E+00
      25     1     1     2     0     0 -1.317616708E+02  1.786150870E+02 -1.056659137E+02  2.757802976E+02  1.250000000E+02  0.00000E+00  9.000E+00
      21     1     1     2   511   502 -5.196795897E+00 -9.400788174E+00  1.987561330E+01  2.259251004E+01  9.536743164E-07  0.00000E+00  9.000E+00
#rwgt            1           1   3.5413815715906787E-002           3      281767           0
</event>
<event>
      5   9999  3.79277E-02  9.31096E+01 -1.00000E+00  1.25239E-01
      21    -1     0     0   512   501  0.000000000E+00  0.000000000E+00  2.138439984E+02  2.138439984E+02  0.000000000E+00  0.00000E+00  9.000E+00
      21    -1     0     0   501   502  0.000000000E+00  0.000000000E+00 -3.133901242E+02  3.133901242E+02  0.000000000E+00  0.00000E+00  9.000E+00
      25     1     1     2     0     0  3.897960479E+01  1.586922597E+02 -1.162056410E+02  2.362866773E+02  1.250000000E+02  0.00000E+00  9.000E+00
      25     1     1     2     0     0 -1.018081763E+02 -8.997563955E+01 -2.959836294E+01  1.869801689E+02  1.250000000E+02  0.00000E+00  9.000E+00
      21     1     1     2   512   502  6.282857147E+01 -6.871662014E+01  4.625787819E+01  1.039672764E+02  9.536743164E-07  0.00000E+00  9.000E+00
#rwgt            1           1   4.4766961623791485E-002           3      282099           0
</event>
<event>
      5   9999  3.79277E-02  5.73485E+01 -1.00000E+00  1.35761E-01
      21    -1     0     0   502   501  0.000000000E+00  0.000000000E+00  1.016317600E+03  1.016317600E+03  0.000000000E+00  0.00000E+00  9.000E+00
      21    -1     0     0   501   511  0.000000000E+00  0.000000000E+00 -4.451790861E+02  4.451790861E+02  0.000000000E+00  0.00000E+00  9.000E+00
      25     1     1     2     0     0 -1.019929949E+01 -5.016114944E+01  9.005078863E+02  9.105820226E+02  1.250000000E+02  0.00000E+00  9.000E+00
      25     1     1     2     0     0  6.171325223E+01  2.495879717E+01  6.255182436E+01  1.548198882E+02  1.250000000E+02  0.00000E+00  9.000E+00
      21     1     1     2   502   511 -5.151395274E+01  2.520235227E+01 -3.919211972E+02  3.960947749E+02  5.394796609E-06  0.00000E+00  9.000E+00
#rwgt            1           1   5.3395627181058301E-002           3      282182           0
</event>
<event>
      5   9999  3.79277E-02  2.04775E+01 -1.00000E+00  1.65528E-01
      21    -1     0     0   502   501  0.000000000E+00  0.000000000E+00  3.650337398E+02  3.650337398E+02  0.000000000E+00  0.00000E+00  9.000E+00
      21    -1     0     0   501   512  0.000000000E+00  0.000000000E+00 -2.090409932E+02  2.090409932E+02  0.000000000E+00  0.00000E+00  9.000E+00
      25     1     1     2     0     0 -4.022209548E+01 -3.757298103E+01 -1.920051410E+01  1.379246374E+02  1.250000000E+02  0.00000E+00  9.000E+00
      25     1     1     2     0     0  3.012549413E+01  1.975764572E+01  2.908909927E+02  3.186541693E+02  1.250000000E+02  0.00000E+00  9.000E+00
      21     1     1     2   502   512  1.009660135E+01  1.781533531E+01 -1.156977320E+02  1.174959264E+02  1.907348633E-06  0.00000E+00  9.000E+00
#rwgt            1           1   8.7292138593721858E-003           3      282265           0
</event>
<event>
      5   9999  3.79277E-02  5.53967E+01 -1.00000E+00  1.36582E-01
      21    -1     0     0   502   501  0.000000000E+00  0.000000000E+00  1.538607785E+02  1.538607785E+02  0.000000000E+00  0.00000E+00  9.000E+00
      21    -1     0     0   511   502  0.000000000E+00  0.000000000E+00 -7.698554344E+02  7.698554344E+02  0.000000000E+00  0.00000E+00  9.000E+00
      25     1     1     2     0     0 -4.238880250E+01 -6.662834027E+01  1.003271971E+02  1.786804208E+02  1.250000000E+02  0.00000E+00  9.000E+00
      25     1     1     2     0     0 -1.106765716E+01  8.116112779E+01 -5.221069725E+02  5.430748682E+02  1.250000000E+02  0.00000E+00  9.000E+00
      21     1     1     2   511   501  5.345645965E+01 -1.453278752E+01 -1.942148805E+02  2.019609239E+02  3.814697266E-06  0.00000E+00  9.000E+00
#rwgt            1           1   3.2021843350195922E-002           3      282466           0
</event>
<event>
      5   9999  3.79277E-02  6.50304E+01 -1.00000E+00  1.32861E-01
      21    -1     0     0   502   501  0.000000000E+00  0.000000000E+00  4.833303802E+01  4.833303802E+01  0.000000000E+00  0.00000E+00  9.000E+00
      -2    -1     0     0     0   502  0.000000000E+00  0.000000000E+00 -3.350525044E+03  3.350525044E+03  0.000000000E+00  0.00000E+00  9.000E+00
      25     1     1     2     0     0  1.610287891E+02  1.039570725E+02 -6.247364796E+02  6.653254939E+02  1.250000000E+02  0.00000E+00  9.000E+00
      25     1     1     2     0     0 -1.590520438E+02 -1.689574580E+02 -6.033454786E+02  6.584033276E+02  1.250000000E+02  0.00000E+00  9.000E+00
      -2     1     1     2     0   501 -1.976745288E+00  6.500038550E+01 -2.074110048E+03  2.075129261E+03  3.051757812E-05  0.00000E+00  9.000E+00
#rwgt            1           1   2.1368969688252793E-002           3      282677           0
</event>
<event>
      5   9999  3.79277E-02  1.27196E+01 -1.00000E+00  1.84408E-01
      21    -1     0     0   502   501  0.000000000E+00  0.000000000E+00  4.802902014E+01  4.802902014E+01  0.000000000E+00  0.00000E+00  9.000E+00
      21    -1     0     0   511   502  0.000000000E+00  0.000000000E+00 -1.727785844E+03  1.727785844E+03  0.000000000E+00  0.00000E+00  9.000E+00
      25     1     1     2     0     0  2.336065516E+02 -5.299838972E+01 -8.483874226E+02  8.903746791E+02  1.250000000E+02  0.00000E+00  9.000E+00
      25     1     1     2     0     0 -2.446110610E+02  5.937714765E+01 -7.130162373E+02  7.664054877E+02  1.250000000E+02  0.00000E+00  9.000E+00
      21     1     1     2   511   501  1.100450945E+01 -6.378757929E+00 -1.183531639E+02  1.190346974E+02  1.907348633E-06  0.00000E+00  9.000E+00
#rwgt            1           1   3.8106599360789167E-002           3      282847           0
</event>
<event>
      5   9999  3.79277E-02  8.69515E+01 -1.00000E+00  1.26622E-01
      21    -1     0     0   502   512  0.000000000E+00  0.000000000E+00  2.321039904E+02  2.321039904E+02  0.000000000E+00  0.00000E+00  9.000E+00
      21    -1     0     0   501   502  0.000000000E+00  0.000000000E+00 -1.108898816E+03  1.108898816E+03  0.000000000E+00  0.00000E+00  9.000E+00
      25     1     1     2     0     0 -3.468477697E+02  1.081789127E+01 -4.589369570E+02  5.887856423E+02  1.250000000E+02  0.00000E+00  9.000E+00
      25     1     1     2     0     0  2.660222611E+02 -4.287720168E+01 -5.316530763E+02  6.090043443E+02  1.250000000E+02  0.00000E+00  9.000E+00
      21     1     1     2   501   512  8.082550867E+01  3.205931041E+01  1.137952081E+02  1.432128194E+02  4.046097457E-06  0.00000E+00  9.000E+00
#rwgt            1           1   3.5184451030206433E-002           3      283141           0
</event>
<event>
      5   9999  3.79277E-02  5.94423E+01  7.55638E-03  1.34920E-01
      -2    -1     0     0     0   501  0.000000000E+00  0.000000000E+00  1.478207749E+02  1.478207749E+02  0.000000000E+00  0.00000E+00  9.000E+00
       2    -1     0     0   502     0  0.000000000E+00  0.000000000E+00 -7.224441511E+02  7.224441511E+02  0.000000000E+00  0.00000E+00  9.000E+00
      25     1     1     2     0     0  1.808496427E+02  4.236007624E+01 -3.014401776E+02  3.754892142E+02  1.250000000E+02  0.00000E+00  9.000E+00
      25     1     1     2     0     0 -1.263648462E+02 -1.859464689E+01 -3.527609100E+02  3.954479673E+02  1.250000000E+02  0.00000E+00  9.000E+00
      21     1     1     2   502   501 -5.448479645E+01 -2.376542935E+01  7.957771142E+01  9.932774452E+01  9.536743164E-07  0.00000E+00  9.000E+00
#rwgt            3           4   3.6409713478793255E-005           3      283303           0
</event>
<event>
      5   9999  3.79277E-02  1.23157E+02 -1.00000E+00  1.19892E-01
       2    -1     0     0   502     0  0.000000000E+00  0.000000000E+00  7.502417451E+02  7.502417451E+02  0.000000000E+00  0.00000E+00  9.000E+00
      21    -1     0     0   501   502  0.000000000E+00  0.000000000E+00 -8.873329318E+01  8.873329318E+01  0.000000000E+00  0.00000E+00  9.000E+00
      25     1     1     2     0     0  8.166622722E+01 -4.910445908E+01  3.837733541E+01  1.617975292E+02  1.250000000E+02  0.00000E+00  9.000E+00
      25     1     1     2     0     0  4.147197127E+01  5.123134636E+01  3.560878138E+02  3.831032582E+02  1.250000000E+02  0.00000E+00  9.000E+00
       2     1     1     2   501     0 -1.231381985E+02 -2.126887283E+00  2.670433027E+02  2.940742510E+02  3.814697266E-06  0.00000E+00  9.000E+00
#rwgt            1           1   5.1338410228314341E-002           3      283322           0
</event>
<event>
      5   9999  3.79277E-02  2.10441E+01 -1.00000E+00  1.64566E-01
      21    -1     0     0   511   501  0.000000000E+00  0.000000000E+00  1.659198686E+02  1.659198686E+02  0.000000000E+00  0.00000E+00  9.000E+00
      21    -1     0     0   501   502  0.000000000E+00  0.000000000E+00 -7.884932069E+02  7.884932069E+02  0.000000000E+00  0.00000E+00  9.000E+00
      25     1     1     2     0     0 -1.205617068E+02  8.042429298E+01 -6.405165521E+02  6.684980520E+02  1.250000000E+02  0.00000E+00  9.000E+00
      25     1     1     2     0     0  1.260724187E+02 -6.011451458E+01 -6.650311075E+01  1.988860814E+02  1.250000000E+02  0.00000E+00  9.000E+00
      21     1     1     2   511   502 -5.510711952E+00 -2.030977839E+01  8.444632454E+01  8.702894216E+01  1.907348633E-06  0.00000E+00  9.000E+00
#rwgt            1           1   4.1888729368671863E-002           3      283387           0
</event>
<event>
      5   9999  3.79277E-02  1.38216E+02 -1.00000E+00  1.17820E-01
      21    -1     0     0   502   501  0.000000000E+00  0.000000000E+00  6.137361862E+02  6.137361862E+02  0.000000000E+00  0.00000E+00  9.000E+00
      21    -1     0     0   512   502  0.000000000E+00  0.000000000E+00 -1.951236063E+02  1.951236063E+02  0.000000000E+00  0.00000E+00  9.000E+00
      25     1     1     2     0     0  1.659742871E+02  1.485380530E+02  3.263841205E+02  4.144425307E+02  1.250000000E+02  0.00000E+00  9.000E+00
      25     1     1     2     0     0 -2.051124345E+02 -1.597961870E+01  8.743765199E+01  2.561187263E+02  1.250000000E+02  0.00000E+00  9.000E+00
      21     1     1     2   512   501  3.913814735E+01 -1.325584343E+02  4.790807419E+00  1.382985355E+02  1.064572996E-06  0.00000E+00  9.000E+00
#rwgt            1           1   4.3763367480680201E-002           3      283687           0
</event>
<event>
      5   9999  3.79277E-02  1.21959E+02 -1.00000E+00  1.20071E-01
      21    -1     0     0   502   501  0.000000000E+00  0.000000000E+00  4.131606516E+02  4.131606516E+02  0.000000000E+00  0.00000E+00  9.000E+00
       2    -1     0     0   501     0  0.000000000E+00  0.000000000E+00 -3.345806177E+02  3.345806177E+02  0.000000000E+00  0.00000E+00  9.000E+00
      25     1     1     2     0     0 -1.222521670E+02  7.444654667E+01  2.654877525E+02  3.264913895E+02  1.250000000E+02  0.00000E+00  9.000E+00
      25     1     1     2     0     0  1.034407792E+02 -1.949456219E+02 -1.059772934E+02  2.748817510E+02  1.250000000E+02  0.00000E+00  9.000E+00
       2     1     1     2   502     0  1.881138780E+01  1.204990752E+02 -8.093042510E+01  1.463681289E+02  2.697398305E-06  0.00000E+00  9.000E+00
#rwgt            1           1   4.7214626187920397E-002           3      283861           0
</event>
<event>
      5   9999  3.79277E-02  4.60632E+01 -1.00000E+00  1.41139E-01
      21    -1     0     0   511   501  0.000000000E+00  0.000000000E+00  6.866630957E+02  6.866630957E+02  0.000000000E+00  0.00000E+00  9.000E+00
      21    -1     0     0   501   502  0.000000000E+00  0.000000000E+00 -1.445439409E+03  1.445439409E+03  0.000000000E+00  0.00000E+00  9.000E+00
      25     1     1     2     0     0  1.002294651E+01  7.166936191E+01 -1.212725488E+03  1.221296469E+03  1.250000000E+02  0.00000E+00  9.000E+00
      25     1     1     2     0     0 -1.513509545E+01 -1.174480426E+02 -1.950478139E+02  2.601764085E+02  1.250000000E+02  0.00000E+00  9.000E+00
      21     1     1     2   511   502  5.112148942E+00  4.577868066E+01  6.489969880E+02  6.506296274E+02  7.629394531E-06  0.00000E+00  9.000E+00
#rwgt            1           1   4.7741346409970374E-002           3      283912           0
</event>
<event>
      5   9999  3.79277E-02  5.33237E+01 -1.00000E+00  1.37499E-01
      21    -1     0     0   502   512  0.000000000E+00  0.000000000E+00  2.344997318E+02  2.344997318E+02  0.000000000E+00  0.00000E+00  9.000E+00
      21    -1     0     0   501   502  0.000000000E+00  0.000000000E+00 -1.199687652E+03  1.199687652E+03  0.000000000E+00  0.00000E+00  9.000E+00
      25     1     1     2     0     0  1.920516000E+02 -2.514850771E+02 -9.248298565E+02  9.854257073E+02  1.250000000E+02  0.00000E+00  9.000E+00
      25     1     1     2     0     0 -2.278304020E+02  2.910236066E+02 -5.357816156E+01  3.938236294E+02  1.250000000E+02  0.00000E+00  9.000E+00
      21     1     1     2   501   512  3.577880206E+01 -3.953852952E+01  1.322009816E+01  5.493804682E+01  9.078709013E-07  0.00000E+00  9.000E+00
#rwgt            1           1   9.7523793299254147E-002           3      284043           0
</event>
<event>
      5   9999  3.79277E-02  1.66503E+01 -1.00000E+00  1.73217E-01
      21    -1     0     0   502   511  0.000000000E+00  0.000000000E+00  8.137935976E+02  8.137935976E+02  0.000000000E+00  0.00000E+00  9.000E+00
      21    -1     0     0   501   502  0.000000000E+00  0.000000000E+00 -1.130592279E+02  1.130592279E+02  0.000000000E+00  0.00000E+00  9.000E+00
      25     1     1     2     0     0 -2.014467515E+01 -1.690964482E+02  2.446684281E+01  2.126571022E+02  1.250000000E+02  0.00000E+00  9.000E+00
      25     1     1     2     0     0  3.670535309E+01  1.673715741E+02  6.082134119E+02  6.441343657E+02  1.250000000E+02  0.00000E+00  9.000E+00
      21     1     1     2   501   511 -1.656067794E+01  1.724874054E+00  6.805411510E+01  7.006135758E+01  0.000000000E+00  0.00000E+00  9.000E+00
#rwgt            1           1   4.8289008347937513E-002           3      284456           0
</event>
<event>
      5   9999  3.79277E-02  7.78779E+01 -1.00000E+00  1.28917E-01
      21    -1     0     0   512   501  0.000000000E+00  0.000000000E+00  1.323933081E+02  1.323933081E+02  0.000000000E+00  0.00000E+00  9.000E+00
      21    -1     0     0   501   502  0.000000000E+00  0.000000000E+00 -5.497539622E+02  5.497539622E+02  0.000000000E+00  0.00000E+00  9.000E+00
      25     1     1     2     0     0  7.923309021E+01  1.114120917E+02 -3.463589862E+02  3.927850355E+02  1.250000000E+02  0.00000E+00  9.000E+00
      25     1     1     2     0     0 -1.440926999E+02 -6.830518280E+01 -5.290792497E+01  2.094100110E+02  1.250000000E+02  0.00000E+00  9.000E+00
      21     1     1     2   512   502  6.485960970E+01 -4.310690891E+01 -1.809374297E+01  7.995222386E+01  1.617033478E-06  0.00000E+00  9.000E+00
#rwgt            1           1   4.7680687830482578E-002           3      284793           0
</event>
<event>
      5   9999  3.79277E-02  2.14579E+02 -1.00000E+00  1.10547E-01
      21    -1     0     0   502   511  0.000000000E+00  0.000000000E+00  2.079311068E+03  2.079311068E+03  0.000000000E+00  0.00000E+00  9.000E+00
      21    -1     0     0   501   502  0.000000000E+00  0.000000000E+00 -9.484654110E+01  9.484654110E+01  0.000000000E+00  0.00000E+00  9.000E+00
      25     1     1     2     0     0 -1.584332750E+02  8.561526687E+01  5.538563779E+02  5.956617865E+02  1.250000000E+02  0.00000E+00  9.000E+00
      25     1     1     2     0     0  1.839091945E+02 -2.986768684E+02  4.997284005E+02  6.232045714E+02  1.250000000E+02  0.00000E+00  9.000E+00
      21     1     1     2   501   511 -2.547591956E+01  2.130616015E+02  9.308797488E+02  9.552912515E+02  1.078959322E-05  0.00000E+00  9.000E+00
#rwgt            2          11   9.0950531562613939E-004           3      285028           0
</event>
<event>
      5   9999  3.79277E-02  3.23187E+01 -1.00000E+00  1.50828E-01
      21    -1     0     0   512   501  0.000000000E+00  0.000000000E+00  6.368059812E+02  6.368059812E+02  0.000000000E+00  0.00000E+00  9.000E+00
      21    -1     0     0   501   502  0.000000000E+00  0.000000000E+00 -7.785118080E+02  7.785118080E+02  0.000000000E+00  0.00000E+00  9.000E+00
      25     1     1     2     0     0 -7.506066027E+01  4.573617695E+01 -1.779989487E+02  2.345943869E+02  1.250000000E+02  0.00000E+00  9.000E+00
      25     1     1     2     0     0  9.050429221E+01 -1.734614960E+01 -5.612337557E+02  5.823231443E+02  1.250000000E+02  0.00000E+00  9.000E+00
      21     1     1     2   512   502 -1.544363195E+01 -2.839002735E+01  5.975268776E+02  5.984002581E+02  1.078959322E-05  0.00000E+00  9.000E+00
#rwgt            1           1   3.0263541518337812E-002           3      285123           0
</event>
<event>
      5   9999  3.79277E-02  1.94844E+02 -1.00000E+00  1.12063E-01
      21    -1     0     0   502   501  0.000000000E+00  0.000000000E+00  6.665266040E+02  6.665266040E+02  0.000000000E+00  0.00000E+00  9.000E+00
      21    -1     0     0   501   511  0.000000000E+00  0.000000000E+00 -1.357210337E+02  1.357210337E+02  0.000000000E+00  0.00000E+00  9.000E+00
      25     1     1     2     0     0  1.200346588E+01  1.410657641E+02  3.294106404E+02  3.797104199E+02  1.250000000E+02  0.00000E+00  9.000E+00
      25     1     1     2     0     0  1.059786064E+02  1.399655020E+01  1.461122066E+02  2.200026031E+02  1.250000000E+02  0.00000E+00  9.000E+00
      21     1     1     2   502   511 -1.179820722E+02 -1.550623143E+02  5.528272316E+01  2.025346147E+02  3.015782986E-06  0.00000E+00  9.000E+00
#rwgt            1           1   3.6489434851462908E-002           3      285257           0
</event>
<event>
      5   9999  3.79277E-02  4.15417E+01 -1.00000E+00  1.43829E-01
      21    -1     0     0   512   501  0.000000000E+00  0.000000000E+00  5.715555506E+02  5.715555506E+02  0.000000000E+00  0.00000E+00  9.000E+00
      21    -1     0     0   501   502  0.000000000E+00  0.000000000E+00 -2.685300668E+02  2.685300668E+02  0.000000000E+00  0.00000E+00  9.000E+00
      25     1     1     2     0     0 -1.303010802E+02 -2.385898442E+01  1.633990188E+02  2.446872739E+02  1.250000000E+02  0.00000E+00  9.000E+00
      25     1     1     2     0     0  1.702648518E+02  1.251819685E+01 -1.771191272E+02  2.759402294E+02  1.250000000E+02  0.00000E+00  9.000E+00
      21     1     1     2   512   502 -3.996377156E+01  1.134078757E+01  3.167455922E+02  3.194581141E+02  0.000000000E+00  0.00000E+00  9.000E+00
#rwgt            1           1   3.8241320954541157E-002           3      285340           0
</event>
<event>
      5   9999  3.79277E-02  1.11932E+02 -1.00000E+00  1.21665E-01
      21    -1     0     0   511   501  0.000000000E+00  0.000000000E+00  1.099541559E+02  1.099541559E+02  0.000000000E+00  0.00000E+00  9.000E+00
      21    -1     0     0   501   502  0.000000000E+00  0.000000000E+00 -1.050555976E+03  1.050555976E+03  0.000000000E+00  0.00000E+00  9.000E+00
      25     1     1     2     0     0 -5.373181772E+01 -7.536654336E+01 -6.738492247E+02  6.915670623E+02  1.250000000E+02  0.00000E+00  9.000E+00
      25     1     1     2     0     0 -3.212932262E+01  1.471756813E+02 -2.945017724E+02  3.536230599E+02  1.250000000E+02  0.00000E+00  9.000E+00
      21     1     1     2   511   502  8.586114034E+01 -7.180913791E+01  2.774917738E+01  1.153200093E+02  2.050954167E-06  0.00000E+00  9.000E+00
#rwgt            1           1   3.4613062722167416E-002           3      285457           0
</event>
<event>
      5   9999  3.79277E-02  6.53137E+01 -1.00000E+00  1.32763E-01
      21    -1     0     0   502   512  0.000000000E+00  0.000000000E+00  1.704583847E+02  1.704583847E+02  0.000000000E+00  0.00000E+00  9.000E+00
      21    -1     0     0   501   502  0.000000000E+00  0.000000000E+00 -7.755852690E+02  7.755852690E+02  0.000000000E+00  0.00000E+00  9.000E+00
      25     1     1     2     0     0 -2.218415085E+02  2.066648652E+02 -1.682676269E+02  3.685960060E+02  1.250000000E+02  0.00000E+00  9.000E+00
      25     1     1     2     0     0  1.577272045E+02 -1.942056563E+02 -4.283689242E+02  5.115844439E+02  1.250000000E+02  0.00000E+00  9.000E+00
      21     1     1     2   501   512  6.411430402E+01 -1.245920892E+01 -8.490333189E+00  6.586320387E+01  7.907449699E-07  0.00000E+00  9.000E+00
#rwgt            1           1   4.2022799257515508E-002           3      285550           0
</event>
<event>
      5   9999  3.79277E-02  8.62416E+01 -1.00000E+00  1.26790E-01
      21    -1     0     0   511   501  0.000000000E+00  0.000000000E+00  1.947981897E+02  1.947981897E+02  0.000000000E+00  0.00000E+00  9.000E+00
      21    -1     0     0   501   502  0.000000000E+00  0.000000000E+00 -2.343823237E+02  2.343823237E+02  0.000000000E+00  0.00000E+00  9.000E+00
      25     1     1     2     0     0 -5.235582367E+00  4.144235282E+01  6.266643763E+01  1.459347880E+02  1.250000000E+02  0.00000E+00  9.000E+00
      25     1     1     2     0     0  7.670563845E+01 -8.970877392E+01 -9.568695332E+01  1.967547004E+02  1.250000000E+02  0.00000E+00  9.000E+00
      21     1     1     2   511   502 -7.147005608E+01  4.826642111E+01 -6.563618270E+00  8.649102501E+01  1.015030525E-06  0.00000E+00  9.000E+00
#rwgt            1           1   5.1036352926778890E-002           3      285746           0
</event>
<event>
      5   9999  3.79277E-02  2.95832E+01 -1.00000E+00  1.53463E-01
      21    -1     0     0   502   501  0.000000000E+00  0.000000000E+00  9.676740214E+02  9.676740214E+02  0.000000000E+00  0.00000E+00  9.000E+00
      21    -1     0     0   501   512  0.000000000E+00  0.000000000E+00 -6.017037326E+01  6.017037326E+01  0.000000000E+00  0.00000E+00  9.000E+00
      25     1     1     2     0     0  2.394907015E+01  1.241770611E+02  7.082134880E+02  7.301950733E+02  1.250000000E+02  0.00000E+00  9.000E+00
      25     1     1     2     0     0 -5.162515835E+01 -1.346268267E+02  1.800519688E+02  2.623609173E+02  1.250000000E+02  0.00000E+00  9.000E+00
      21     1     1     2   502   512  2.767608820E+01  1.044976551E+01  1.923819125E+01  3.528840404E+01  4.768371582E-07  0.00000E+00  9.000E+00
#rwgt            1           1   3.5301657307986525E-002           3      285919           0
</event>
<event>
      5   9999  3.79277E-02  7.33389E+01 -1.00000E+00  1.30204E-01
       1    -1     0     0   502     0  0.000000000E+00  0.000000000E+00  1.167105010E+02  1.167105010E+02  0.000000000E+00  0.00000E+00  9.000E+00
      21    -1     0     0   501   502  0.000000000E+00  0.000000000E+00 -7.970753084E+02  7.970753084E+02  0.000000000E+00  0.00000E+00  9.000E+00
      25     1     1     2     0     0  5.099084388E+01 -6.225377034E+01 -4.710259344E+02  4.939291740E+02  1.250000000E+02  0.00000E+00  9.000E+00
      25     1     1     2     0     0 -1.243293603E+02  6.202781222E+01 -2.674528858E+02  3.262840564E+02  1.250000000E+02  0.00000E+00  9.000E+00
       1     1     1     2   501     0  7.333851644E+01  2.259581133E-01  5.811401280E+01  9.357257897E+01  9.536743164E-07  0.00000E+00  9.000E+00
#rwgt            1           1   3.9896190503776401E-002           3      286092           0
</event>
<event>
      5   9999  3.79277E-02  1.04117E+02 -1.00000E+00  1.23045E-01
       1    -1     0     0   502     0  0.000000000E+00  0.000000000E+00  1.266739958E+03  1.266739958E+03  0.000000000E+00  0.00000E+00  9.000E+00
      21    -1     0     0   501   502  0.000000000E+00  0.000000000E+00 -2.544696816E+02  2.544696816E+02  0.000000000E+00  0.00000E+00  9.000E+00
      25     1     1     2     0     0  2.573022361E+02  8.005640818E+01  1.049280217E+02  3.150370755E+02  1.250000000E+02  0.00000E+00  9.000E+00
      25     1     1     2     0     0 -1.769000558E+02 -1.390580929E+01 -6.632031568E+01  2.269589953E+02  1.250000000E+02  0.00000E+00  9.000E+00
       1     1     1     2   501     0 -8.040218026E+01 -6.615059889E+01  9.736625702E+02  9.792135686E+02  2.157918644E-05  0.00000E+00  9.000E+00
#rwgt            1           1   3.9572315416567971E-002           3      286201           0
</event>
<event>
      5   9999  3.79277E-02  1.69714E+01 -1.00000E+00  1.72476E-01
      21    -1     0     0   502   511  0.000000000E+00  0.000000000E+00  3.025136353E+02  3.025136353E+02  0.000000000E+00  0.00000E+00  9.000E+00
      21    -1     0     0   501   502  0.000000000E+00  0.000000000E+00 -8.853960472E+02  8.853960472E+02  0.000000000E+00  0.00000E+00  9.000E+00
      25     1     1     2     0     0  2.560732971E+02 -1.259101753E+02 -3.731189362E+02  4.860757618E+02  1.250000000E+02  0.00000E+00  9.000E+00
      25     1     1     2     0     0 -2.560336646E+02  1.089388688E+02 -4.043534244E+02  5.065052876E+02  1.250000000E+02  0.00000E+00  9.000E+00
      21     1     1     2   501   511 -3.963246390E-02  1.697130654E+01  1.945899486E+02  1.953286331E+02  2.697398305E-06  0.00000E+00  9.000E+00
#rwgt            1           1   3.2387084678622523E-002           3      286283           0
</event>
<event>
      5   9999  3.79277E-02  1.67884E+02 -1.00000E+00  1.14487E-01
      21    -1     0     0   502   501  0.000000000E+00  0.000000000E+00  1.746274387E+03  1.746274387E+03  0.000000000E+00  0.00000E+00  9.000E+00
      21    -1     0     0   501   512  0.000000000E+00  0.000000000E+00 -1.269068231E+02  1.269068231E+02  0.000000000E+00  0.00000E+00  9.000E+00
      25     1     1     2     0     0  1.225402676E+02 -4.586494076E+01  1.447210245E+03  1.458479415E+03  1.250000000E+02  0.00000E+00  9.000E+00
      25     1     1     2     0     0  1.920378035E+01 -4.409948977E+01  2.037913405E+02  2.438636107E+02  1.250000000E+02  0.00000E+00  9.000E+00
      21     1     1     2   502   512 -1.417440480E+02  8.996443053E+01 -3.163402192E+01  1.708381844E+02  1.469710828E-06  0.00000E+00  9.000E+00
#rwgt            1           1   1.4308898239590541E-002           3      286524           0
</event>
<event>
      5   9999  3.79277E-02  3.23813E+01 -1.00000E+00  1.50771E-01
      21    -1     0     0   502   501  0.000000000E+00  0.000000000E+00  2.492358312E+02  2.492358312E+02  0.000000000E+00  0.00000E+00  9.000E+00
       2    -1     0     0   501     0  0.000000000E+00  0.000000000E+00 -3.950222067E+02  3.950222067E+02  0.000000000E+00  0.00000E+00  9.000E+00
      25     1     1     2     0     0  1.067099219E+02 -1.911209573E+01 -3.316533960E+01  1.687519463E+02  1.250000000E+02  0.00000E+00  9.000E+00
      25     1     1     2     0     0 -7.993484593E+01  9.009524417E-01  1.499469044E+02  2.109489641E+02  1.250000000E+02  0.00000E+00  9.000E+00
       2     1     1     2   502     0 -2.677507596E+01  1.821114329E+01 -2.625679403E+02  2.645571275E+02  0.000000000E+00  0.00000E+00  9.000E+00
#rwgt            1           1   3.9560355481034273E-002           3      286668           0
</event>
<event>
      5   9999  3.79277E-02  1.88808E+02 -1.00000E+00  1.12566E-01
      21    -1     0     0   502   501  0.000000000E+00  0.000000000E+00  8.832900756E+01  8.832900756E+01  0.000000000E+00  0.00000E+00  9.000E+00
      21    -1     0     0   511   502  0.000000000E+00  0.000000000E+00 -1.342967004E+03  1.342967004E+03  0.000000000E+00  0.00000E+00  9.000E+00
      25     1     1     2     0     0  1.552234486E+01 -1.073332351E+02 -4.701239759E+02  4.984003604E+02  1.250000000E+02  0.00000E+00  9.000E+00
      25     1     1     2     0     0  1.702531979E+02  1.410376847E+02 -2.145315905E+02  3.324553853E+02  1.250000000E+02  0.00000E+00  9.000E+00
      21     1     1     2   511   501 -1.857755428E+02 -3.370444958E+01 -5.699824301E+02  6.004402658E+02  7.629394531E-06  0.00000E+00  9.000E+00
#rwgt            2          11   1.3731412277305296E-003           3      286800           0
</event>
<event>
      5   9999 -3.79277E-02  5.46721E+01 -1.00000E+00  1.36898E-01
      21    -1     0     0   502   512  0.000000000E+00  0.000000000E+00  1.411520636E+02  1.411520636E+02  0.000000000E+00  0.00000E+00  9.000E+00
      21    -1     0     0   501   502  0.000000000E+00  0.000000000E+00 -4.621340356E+02  4.621340356E+02  0.000000000E+00  0.00000E+00  9.000E+00
      25     1     1     2     0     0 -1.228701349E+02 -1.471974952E+02 -2.234635121E+02  3.198829691E+02  1.250000000E+02  0.00000E+00  9.000E+00
      25     1     1     2     0     0  1.391576153E+02  9.500785596E+01 -6.431119979E+01  2.194362436E+02  1.250000000E+02  0.00000E+00  9.000E+00
      21     1     1     2   501   512 -1.628748035E+01  5.218963925E+01 -3.320726006E+01  6.396688660E+01  8.259061849E-07  0.00000E+00  9.000E+00
#rwgt            1           1 -0.27615800420213588                3      286820           0
</event>
<event>
      5   9999  3.79277E-02  9.00629E+01 -1.00000E+00  1.25907E-01
      21    -1     0     0   502   501  0.000000000E+00  0.000000000E+00  4.696250224E+01  4.696250224E+01  0.000000000E+00  0.00000E+00  9.000E+00
       2    -1     0     0   501     0  0.000000000E+00  0.000000000E+00 -2.150839444E+03  2.150839444E+03  0.000000000E+00  0.00000E+00  9.000E+00
      25     1     1     2     0     0  1.125383187E+02  1.440660307E+01 -1.728577910E+02  2.416138227E+02  1.250000000E+02  0.00000E+00  9.000E+00
      25     1     1     2     0     0 -8.711459843E+01 -1.008065591E+02 -7.575352585E+02  7.792532217E+02  1.250000000E+02  0.00000E+00  9.000E+00
       2     1     1     2   502     0 -2.542372028E+01  8.639995607E+01 -1.173483893E+03  1.176934902E+03  0.000000000E+00  0.00000E+00  9.000E+00
#rwgt            1           1   3.6216725723993773E-002           3      286923           0
</event>
<event>
      5   9999  3.79277E-02  6.27719E+01 -1.00000E+00  1.33664E-01
      21    -1     0     0   511   501  0.000000000E+00  0.000000000E+00  3.607193886E+01  3.607193886E+01  0.000000000E+00  0.00000E+00  9.000E+00
      21    -1     0     0   501   502  0.000000000E+00  0.000000000E+00 -2.414215585E+03  2.414215585E+03  0.000000000E+00  0.00000E+00  9.000E+00
      25     1     1     2     0     0 -1.141796812E+02 -9.919146722E+01 -4.131173156E+02  4.573476393E+02  1.250000000E+02  0.00000E+00  9.000E+00
      25     1     1     2     0     0  1.540818290E+02  1.476490366E+02 -1.789853206E+03  1.806859415E+03  1.250000000E+02  0.00000E+00  9.000E+00
      21     1     1     2   511   502 -3.990214784E+01 -4.845756938E+01 -1.751731250E+02  1.860804696E+02  0.000000000E+00  0.00000E+00  9.000E+00
#rwgt            1           1   9.7435235130785169E-002           3      287053           0
</event>
<event>
      5   9999  3.79277E-02  1.86826E+01 -1.00000E+00  1.68848E-01
      21    -1     0     0   502   501  0.000000000E+00  0.000000000E+00  1.760344951E+03  1.760344951E+03  0.000000000E+00  0.00000E+00  9.000E+00
      21    -1     0     0   512   502  0.000000000E+00  0.000000000E+00 -2.216944031E+01  2.216944031E+01  0.000000000E+00  0.00000E+00  9.000E+00
      25     1     1     2     0     0  4.178589959E+00  1.387667628E+02  8.091052852E+02  8.303914966E+02  1.250000000E+02  0.00000E+00  9.000E+00
      25     1     1     2     0     0 -2.282407892E+01 -1.375890626E+02  8.777286008E+02  8.974877076E+02  1.250000000E+02  0.00000E+00  9.000E+00
      21     1     1     2   512   501  1.864548896E+01 -1.177700213E+00  5.134162434E+01  5.463518671E+01  9.536743164E-07  0.00000E+00  9.000E+00
#rwgt            1           1   3.5068703835776677E-002           3      287183           0
</event>
<event>
      5   9999  3.79277E-02  2.72557E+01 -1.00000E+00  1.55991E-01
      21    -1     0     0   502   501  0.000000000E+00  0.000000000E+00  5.071390631E+01  5.071390631E+01  0.000000000E+00  0.00000E+00  9.000E+00
      21    -1     0     0   511   502  0.000000000E+00  0.000000000E+00 -1.154897028E+03  1.154897028E+03  0.000000000E+00  0.00000E+00  9.000E+00
      25     1     1     2     0     0 -1.152149669E+02  4.813010023E+01 -2.225780861E+02  2.841777605E+02  1.250000000E+02  0.00000E+00  9.000E+00
      25     1     1     2     0     0  1.143625241E+02 -2.088776598E+01 -3.528230629E+02  3.919492307E+02  1.250000000E+02  0.00000E+00  9.000E+00
      21     1     1     2   511   501  8.524428661E-01 -2.724233425E+01 -5.287819725E+02  5.294839429E+02  1.078959322E-05  0.00000E+00  9.000E+00
#rwgt            1           1   3.5932366444144666E-002           3      287367           0
</event>
<event>
      5   9999  3.79277E-02  1.16401E+01 -1.00000E+00  1.88429E-01
      21    -1     0     0   502   501  0.000000000E+00  0.000000000E+00  6.472442911E+01  6.472442911E+01  0.000000000E+00  0.00000E+00  9.000E+00
      21    -1     0     0   501   512  0.000000000E+00  0.000000000E+00 -9.732633010E+02  9.732633010E+02  0.000000000E+00  0.00000E+00  9.000E+00
      25     1     1     2     0     0 -5.252937726E+01  3.791362040E+01 -2.820238803E+01  1.435867430E+02  1.250000000E+02  0.00000E+00  9.000E+00
      25     1     1     2     0     0  5.289018933E+01 -4.954812421E+01 -8.429657840E+02  8.552594353E+02  1.250000000E+02  0.00000E+00  9.000E+00
      21     1     1     2   502   512 -3.608120717E-01  1.163450381E+01 -3.737069988E+01  3.914155175E+01  0.000000000E+00  0.00000E+00  9.000E+00
#rwgt            1           1   4.4007306700562167E-002           3      287567           0
</event>
<event>
      5   9999  3.79277E-02  6.83605E+01 -1.00000E+00  1.31744E-01
      21    -1     0     0   511   501  0.000000000E+00  0.000000000E+00  4.318808979E+02  4.318808979E+02  0.000000000E+00  0.00000E+00  9.000E+00
      21    -1     0     0   501   502  0.000000000E+00  0.000000000E+00 -3.142383767E+02  3.142383767E+02  0.000000000E+00  0.00000E+00  9.000E+00
      25     1     1     2     0     0  1.993206825E+02  5.322849038E+01  2.460708139E+02  3.445835923E+02  1.250000000E+02  0.00000E+00  9.000E+00
      25     1     1     2     0     0 -1.443575285E+02 -9.387581706E+01 -2.073637892E+02  2.971136249E+02  1.250000000E+02  0.00000E+00  9.000E+00
      21     1     1     2   511   502 -5.496315397E+01  4.064732668E+01  7.893549645E+01  1.044220573E+02  1.907348633E-06  0.00000E+00  9.000E+00
#rwgt            2          11   2.5658783644436434E-003           3      287852           0
</event>
<event>
      5   9999 -3.79277E-02  4.00310E+00 -1.00000E+00  2.63391E-01
      21    -1     0     0   502   501  0.000000000E+00  0.000000000E+00  4.899364221E+03  4.899364221E+03  0.000000000E+00  0.00000E+00  9.000E+00
      21    -1     0     0   501   512  0.000000000E+00  0.000000000E+00 -5.308909164E+01  5.308909164E+01  0.000000000E+00  0.00000E+00  9.000E+00
      25     1     1     2     0     0 -1.872523735E+02 -9.958248802E+00  3.615269620E+03  3.622286852E+03  1.250000000E+02  0.00000E+00  9.000E+00
      25     1     1     2     0     0  1.833035135E+02  1.061498097E+01  1.270853054E+03  1.290118344E+03  1.250000000E+02  0.00000E+00  9.000E+00
      21     1     1     2   502   512  3.948859989E+00 -6.567321725E-01 -3.984754468E+01  4.004811618E+01  4.473129043E-06  0.00000E+00  9.000E+00
#rwgt            1           1  -7.5662370015715870E-004           3      287902           0
</event>
<event>
      5   9999  3.79277E-02  1.31730E+02 -1.00000E+00  1.18674E-01
      21    -1     0     0   502   501  0.000000000E+00  0.000000000E+00  8.908505703E+02  8.908505703E+02  0.000000000E+00  0.00000E+00  9.000E+00
       2    -1     0     0   501     0  0.000000000E+00  0.000000000E+00 -4.510587835E+02  4.510587835E+02  0.000000000E+00  0.00000E+00  9.000E+00
      25     1     1     2     0     0  3.428366284E-01 -4.067108815E+02  4.680002576E+02  6.325054148E+02  1.250000000E+02  0.00000E+00  9.000E+00
      25     1     1     2     0     0  1.175000666E+02  4.655819259E+02  1.206375313E+02  5.106380414E+02  1.250000000E+02  0.00000E+00  9.000E+00
       2     1     1     2   502     0 -1.178429032E+02 -5.887104439E+01 -1.488460020E+02  1.987658976E+02  5.046370146E-06  0.00000E+00  9.000E+00
#rwgt            1           1   7.8822519888637824E-002           3      288382           0
</event>
<event>
      5   9999  3.79277E-02  1.16749E+02 -1.00000E+00  1.20877E-01
      21    -1     0     0   502   501  0.000000000E+00  0.000000000E+00  9.261969947E+01  9.261969947E+01  0.000000000E+00  0.00000E+00  9.000E+00
      21    -1     0     0   511   502  0.000000000E+00  0.000000000E+00 -1.389953656E+03  1.389953656E+03  0.000000000E+00  0.00000E+00  9.000E+00
      25     1     1     2     0     0 -8.079743789E+01  1.007988650E+02 -2.529704990E+02  3.103348361E+02  1.250000000E+02  0.00000E+00  9.000E+00
      25     1     1     2     0     0  1.307733730E+02  4.712787200E+00 -7.503722774E+01  1.959067916E+02  1.250000000E+02  0.00000E+00  9.000E+00
      21     1     1     2   511   501 -4.997593508E+01 -1.055116522E+02 -9.693262301E+02  9.763317280E+02  0.000000000E+00  0.00000E+00  9.000E+00
#rwgt            1           1   4.5617911501565120E-002           3      288643           0
</event>
<event>
      5   9999  3.79277E-02  8.72931E+00 -1.00000E+00  2.02837E-01
      21    -1     0     0   502   512  0.000000000E+00  0.000000000E+00  3.306086517E+02  3.306086517E+02  0.000000000E+00  0.00000E+00  9.000E+00
      21    -1     0     0   501   502  0.000000000E+00  0.000000000E+00 -1.237565482E+02  1.237565482E+02  0.000000000E+00  0.00000E+00  9.000E+00
      25     1     1     2     0     0 -3.222347998E+01 -1.065113422E+02  2.007465154E+02  2.613564273E+02  1.250000000E+02  0.00000E+00  9.000E+00
      25     1     1     2     0     0  2.934619501E+01  9.826986167E+01 -2.236689302E+01  1.632281923E+02  1.250000000E+02  0.00000E+00  9.000E+00
      21     1     1     2   501   512  2.877284977E+00  8.241480529E+00  2.847248122E+01  2.978058020E+01  3.371747881E-07  0.00000E+00  9.000E+00
#rwgt            1           1   2.4373241952779970E-002           3      288773           0
</event>
<event>
      5   9999  3.79277E-02  4.71277E+01 -1.00000E+00  1.40558E-01
      21    -1     0     0   511   501  0.000000000E+00  0.000000000E+00  1.437444474E+02  1.437444474E+02  0.000000000E+00  0.00000E+00  9.000E+00
      21    -1     0     0   501   502  0.000000000E+00  0.000000000E+00 -1.003848844E+03  1.003848844E+03  0.000000000E+00  0.00000E+00  9.000E+00
      25     1     1     2     0     0 -6.250004661E+01 -2.468914014E+01 -9.120187930E+02  9.229946306E+02  1.250000000E+02  0.00000E+00  9.000E+00
      25     1     1     2     0     0  8.455360759E+01 -1.696008273E+01 -3.438968123E+00  1.519005710E+02  1.250000000E+02  0.00000E+00  9.000E+00
      21     1     1     2   511   502 -2.205356098E+01  4.164922287E+01  5.535336445E+01  7.269808989E+01  1.651812370E-06  0.00000E+00  9.000E+00
#rwgt            1           1   3.7283813990796534E-002           3      288964           0
</event>
<event>
      5   9999  3.79277E-02  3.73423E+01 -1.00000E+00  1.46717E-01
      21    -1     0     0   502   512  0.000000000E+00  0.000000000E+00  5.368170901E+01  5.368170901E+01  0.000000000E+00  0.00000E+00  9.000E+00
      21    -1     0     0   501   502  0.000000000E+00  0.000000000E+00 -7.218824048E+02  7.218824048E+02  0.000000000E+00  0.00000E+00  9.000E+00
      25     1     1     2     0     0  4.011728516E+01  4.270651705E+01 -5.399871759E+02  5.573548181E+02  1.250000000E+02  0.00000E+00  9.000E+00
      25     1     1     2     0     0 -4.223339789E+00 -5.300556797E+01 -8.153141365E+01  1.584291585E+02  1.250000000E+02  0.00000E+00  9.000E+00
      21     1     1     2   501   512 -3.589394537E+01  1.029905093E+01 -4.668210623E+01  5.978013722E+01  6.743495762E-07  0.00000E+00  9.000E+00
#rwgt            1           1   4.7131153725241418E-002           3      289176           0
</event>
<event>
      5   9999  3.79277E-02  5.03538E+01 -1.00000E+00  1.38901E-01
      21    -1     0     0   502   501  0.000000000E+00  0.000000000E+00  2.941824337E+02  2.941824337E+02  0.000000000E+00  0.00000E+00  9.000E+00
       4    -1     0     0   501     0  0.000000000E+00  0.000000000E+00 -2.199297522E+02  2.199297522E+02  0.000000000E+00  0.00000E+00  9.000E+00
      25     1     1     2     0     0  7.708732933E+01 -3.086394246E+01  1.207353734E+02  1.926059960E+02  1.250000000E+02  0.00000E+00  9.000E+00
      25     1     1     2     0     0 -1.195015498E+02  3.724631481E+00  7.610876879E+01  1.889762894E+02  1.250000000E+02  0.00000E+00  9.000E+00
       4     1     1     2   502     0  4.241422046E+01  2.713931098E+01 -1.225914607E+02  1.325299005E+02  3.303624740E-06  0.00000E+00  9.000E+00
#rwgt            1           1   3.2394538452020047E-002           3      289320           0
</event>
<event>
      5   9999  3.79277E-02  2.19061E+02 -1.00000E+00  1.10228E-01
       2    -1     0     0   502     0  0.000000000E+00  0.000000000E+00  1.819899646E+03  1.819899646E+03  0.000000000E+00  0.00000E+00  9.000E+00
      21    -1     0     0   501   502  0.000000000E+00  0.000000000E+00 -1.016951396E+02  1.016951396E+02  0.000000000E+00  0.00000E+00  9.000E+00
      25     1     1     2     0     0 -1.903071592E+02  1.010980819E+02  1.303319484E+02  2.811566357E+02  1.250000000E+02  0.00000E+00  9.000E+00
      25     1     1     2     0     0 -1.708297997E+01 -3.055054530E+01  2.224452362E+02  2.575500867E+02  1.250000000E+02  0.00000E+00  9.000E+00
       2     1     1     2   501     0  2.073901391E+02 -7.054753662E+01  1.365427322E+03  1.382888063E+03  0.000000000E+00  0.00000E+00  9.000E+00
#rwgt            1           1   4.2693993926512172E-002           3      289420           0
</event>
<event>
      5   9999  3.79277E-02  1.46886E+01 -1.00000E+00  1.78246E-01
      21    -1     0     0   502   511  0.000000000E+00  0.000000000E+00  6.407780068E+02  6.407780068E+02  0.000000000E+00  0.00000E+00  9.000E+00
      21    -1     0     0   501   502  0.000000000E+00  0.000000000E+00 -7.664900288E+02  7.664900288E+02  0.000000000E+00  0.00000E+00  9.000E+00
      25     1     1     2     0     0 -1.629314014E+02 -4.314630180E+01 -3.461247332E+01  2.126764402E+02  1.250000000E+02  0.00000E+00  9.000E+00
      25     1     1     2     0     0  1.775640390E+02  4.442719935E+01 -6.236357092E+02  6.618529004E+02  1.250000000E+02  0.00000E+00  9.000E+00
      21     1     1     2   501   511 -1.463263760E+01 -1.280897559E+00  5.325361606E+02  5.327386950E+02  7.629394531E-06  0.00000E+00  9.000E+00
#rwgt            1           1   3.6029650452677829E-002           3      289489           0
</event>
<event>
      5   9999  3.79277E-02  1.27174E+01 -1.00000E+00  1.84415E-01
      21    -1     0     0   502   501  0.000000000E+00  0.000000000E+00  2.876255567E+02  2.876255567E+02  0.000000000E+00  0.00000E+00  9.000E+00
      21    -1     0     0   512   502  0.000000000E+00  0.000000000E+00 -1.431548062E+02  1.431548062E+02  0.000000000E+00  0.00000E+00  9.000E+00
      25     1     1     2     0     0 -3.377775320E+01  1.447543191E+02  1.114602350E+02  2.239266252E+02  1.250000000E+02  0.00000E+00  9.000E+00
      25     1     1     2     0     0  4.348346091E+01 -1.365365697E+02  3.659238643E+01  1.936415477E+02  1.250000000E+02  0.00000E+00  9.000E+00
      21     1     1     2   512   501 -9.705707710E+00 -8.217749379E+00 -3.581870895E+00  1.321219006E+01  2.528810911E-07  0.00000E+00  9.000E+00
#rwgt            1           1   3.9536137362383636E-002           3      289662           0
</event>
<event>
      5   9999  3.79277E-02  6.16681E+01 -1.00000E+00  1.34070E-01
      21    -1     0     0   502   511  0.000000000E+00  0.000000000E+00  1.187178522E+03  1.187178522E+03  0.000000000E+00  0.00000E+00  9.000E+00
      21    -1     0     0   501   502  0.000000000E+00  0.000000000E+00 -1.101795374E+02  1.101795374E+02  0.000000000E+00  0.00000E+00  9.000E+00
      25     1     1     2     0     0  6.271319157E+01  3.928619461E+01 -1.318963748E+01  1.458606048E+02  1.250000000E+02  0.00000E+00  9.000E+00
      25     1     1     2     0     0 -1.202014185E+02 -6.160349921E+01  2.573657730E+02  3.163945531E+02  1.250000000E+02  0.00000E+00  9.000E+00
      21     1     1     2   501   511  5.748822698E+01  2.231730460E+01  8.328228489E+02  8.351029015E+02  1.078959322E-05  0.00000E+00  9.000E+00
#rwgt            1           1   3.7614588257856942E-002           3      289840           0
</event>
<event>
      5   9999  3.79277E-02  1.97831E+02 -1.00000E+00  1.11821E-01
      21    -1     0     0   502   501  0.000000000E+00  0.000000000E+00  1.031229730E+02  1.031229730E+02  0.000000000E+00  0.00000E+00  9.000E+00
      21    -1     0     0   501   512  0.000000000E+00  0.000000000E+00 -1.360191930E+03  1.360191930E+03  0.000000000E+00  0.00000E+00  9.000E+00
      25     1     1     2     0     0 -1.136085784E+02  4.309358838E+01 -1.990262557E+02  2.645759190E+02  1.250000000E+02  0.00000E+00  9.000E+00
      25     1     1     2     0     0  2.218512434E+02  1.224976629E+02 -2.871601658E+02  4.028766715E+02  1.250000000E+02  0.00000E+00  9.000E+00
      21     1     1     2   502   512 -1.082426650E+02 -1.655912513E+02 -7.708825350E+02  7.958623121E+02  0.000000000E+00  0.00000E+00  9.000E+00
#rwgt            1           1   9.7527829829905308E-003           3      290042           0
</event>
<event>
      5   9999  3.79277E-02  7.38332E+01 -1.00000E+00  1.30059E-01
      21    -1     0     0   502   501  0.000000000E+00  0.000000000E+00  5.598311879E+01  5.598311879E+01  0.000000000E+00  0.00000E+00  9.000E+00
       1    -1     0     0   501     0  0.000000000E+00  0.000000000E+00 -1.966011101E+03  1.966011101E+03  0.000000000E+00  0.00000E+00  9.000E+00
      25     1     1     2     0     0 -1.841719601E+02  2.808333969E+01 -4.471034856E+02  5.002344567E+02  1.250000000E+02  0.00000E+00  9.000E+00
      25     1     1     2     0     0  1.268238325E+02  1.841964943E+01 -2.549189492E+02  3.114999818E+02  1.250000000E+02  0.00000E+00  9.000E+00
       1     1     1     2   502     0  5.734812762E+01 -4.650298913E+01 -1.208005547E+03  1.210259781E+03  1.525878906E-05  0.00000E+00  9.000E+00
#rwgt            1           1   4.1171875553805859E-002           3      290088           0
</event>
<event>
      5   9999  3.79277E-02  4.35153E+01 -1.00000E+00  1.42607E-01
      21    -1     0     0   511   501  0.000000000E+00  0.000000000E+00  6.050326778E+01  6.050326778E+01  0.000000000E+00  0.00000E+00  9.000E+00
      21    -1     0     0   501   502  0.000000000E+00  0.000000000E+00 -1.520248251E+03  1.520248251E+03  0.000000000E+00  0.00000E+00  9.000E+00
      25     1     1     2     0     0 -2.369405410E+02  2.788339788E+01 -9.850097472E+02  1.021169675E+03  1.250000000E+02  0.00000E+00  9.000E+00
      25     1     1     2     0     0  1.934282019E+02 -2.838977037E+01 -4.571047267E+02  5.126306463E+02  1.250000000E+02  0.00000E+00  9.000E+00
      21     1     1     2   511   502  4.351233919E+01  5.063724899E-01 -1.763050973E+01  4.695119752E+01  1.092571186E-06  0.00000E+00  9.000E+00
#rwgt            1           1   4.4701856930207680E-002           3      290310           0
</event>
<event>
      5   9999  3.79277E-02  3.09140E+01 -1.00000E+00  1.52140E-01
      21    -1     0     0   502   501  0.000000000E+00  0.000000000E+00  6.026871343E+01  6.026871343E+01  0.000000000E+00  0.00000E+00  9.000E+00
      21    -1     0     0   512   502  0.000000000E+00  0.000000000E+00 -1.054364409E+03  1.054364409E+03  0.000000000E+00  0.00000E+00  9.000E+00
      25     1     1     2     0     0 -1.633395469E+02  4.479938966E+01 -1.977432284E+02  2.888151265E+02  1.250000000E+02  0.00000E+00  9.000E+00
      25     1     1     2     0     0  1.324263262E+02 -4.457620706E+01 -6.963397126E+02  7.211364402E+02  1.250000000E+02  0.00000E+00  9.000E+00
      21     1     1     2   512   501  3.091322075E+01 -2.231825969E-01 -1.000127545E+02  1.046815556E+02  1.348699152E-06  0.00000E+00  9.000E+00
#rwgt            1           1   3.8605604108959357E-002           3      290470           0
</event>
<event>
      5   9999  3.79277E-02  2.44355E+01 -1.00000E+00  1.59497E-01
      21    -1     0     0   502   501  0.000000000E+00  0.000000000E+00  3.757121194E+02  3.757121194E+02  0.000000000E+00  0.00000E+00  9.000E+00
      21    -1     0     0   511   502  0.000000000E+00  0.000000000E+00 -1.428288848E+02  1.428288848E+02  0.000000000E+00  0.00000E+00  9.000E+00
      25     1     1     2     0     0  1.298727487E+02 -1.008850482E+02  1.141062095E+02  2.359871837E+02  1.250000000E+02  0.00000E+00  9.000E+00
      25     1     1     2     0     0 -1.507418905E+02  1.135961648E+02  1.231698095E+02  2.577266152E+02  1.250000000E+02  0.00000E+00  9.000E+00
      21     1     1     2   511   501  2.086914180E+01 -1.271111667E+01 -4.392784394E+00  2.482720526E+01  3.318646170E-07  0.00000E+00  9.000E+00
#rwgt            1           1  0.24741668861482499                3      290608           0
</event>
<event>
      5   9999  3.79277E-02  3.62720E+01 -1.00000E+00  1.47525E-01
      21    -1     0     0   512   501  0.000000000E+00  0.000000000E+00  2.375877767E+02  2.375877767E+02  0.000000000E+00  0.00000E+00  9.000E+00
      21    -1     0     0   501   502  0.000000000E+00  0.000000000E+00 -6.653951782E+02  6.653951782E+02  0.000000000E+00  0.00000E+00  9.000E+00
      25     1     1     2     0     0  3.326081503E+02  1.092283954E+02 -1.969697315E+02  4.206912159E+02  1.250000000E+02  0.00000E+00  9.000E+00
      25     1     1     2     0     0 -3.541349362E+02 -8.003497746E+01 -2.263805763E+02  4.457469192E+02  1.250000000E+02  0.00000E+00  9.000E+00
      21     1     1     2   512   502  2.152678590E+01 -2.919341798E+01 -4.457093751E+00  3.654481973E+01  1.192092896E-07  0.00000E+00  9.000E+00
#rwgt            1           1   2.7426386977466639E-002           3      290709           0
</event>
<event>
      5   9999  3.79277E-02  2.76584E+02 -1.00000E+00  1.06752E-01
      21    -1     0     0   502   501  0.000000000E+00  0.000000000E+00  1.659874991E+02  1.659874991E+02  0.000000000E+00  0.00000E+00  9.000E+00
      21    -1     0     0   511   502  0.000000000E+00  0.000000000E+00 -1.154733403E+03  1.154733403E+03  0.000000000E+00  0.00000E+00  9.000E+00
      25     1     1     2     0     0  6.578706819E+01 -8.160219488E+01  3.866780403E+01  1.676515900E+02  1.250000000E+02  0.00000E+00  9.000E+00
      25     1     1     2     0     0  1.622854406E+02 -7.486430420E+01 -2.721685851E+02  3.487720846E+02  1.250000000E+02  0.00000E+00  9.000E+00
      21     1     1     2   511   501 -2.280725088E+02  1.564664991E+02 -7.552451231E+02  8.042972278E+02  0.000000000E+00  0.00000E+00  9.000E+00
#rwgt            1           1   6.0535818909794981E-002           3      290892           0
</event>
<event>
      5   9999  3.79277E-02  1.21849E+02 -1.00000E+00  1.20087E-01
      21    -1     0     0   502   501  0.000000000E+00  0.000000000E+00  4.346958715E+02  4.346958715E+02  0.000000000E+00  0.00000E+00  9.000E+00
      21    -1     0     0   501   512  0.000000000E+00  0.000000000E+00 -3.601554891E+02  3.601554891E+02  0.000000000E+00  0.00000E+00  9.000E+00
      25     1     1     2     0     0 -1.232091075E+02  2.980571819E+02  2.778410424E+01  3.470094009E+02  1.250000000E+02  0.00000E+00  9.000E+00
      25     1     1     2     0     0  5.543144420E+01 -1.967978842E+02  1.545516755E+02  2.851548222E+02  1.250000000E+02  0.00000E+00  9.000E+00
      21     1     1     2   502   512  6.777766333E+01 -1.012592977E+02 -1.077953973E+02  1.626871375E+02  1.907348633E-06  0.00000E+00  9.000E+00
#rwgt            1           1   3.6126489887844192E-002           3      290938           0
</event>
<event>
      5   9999  3.79277E-02  2.16158E+01 -1.00000E+00  1.63632E-01
      21    -1     0     0   502   511  0.000000000E+00  0.000000000E+00  8.433582121E+01  8.433582121E+01  0.000000000E+00  0.00000E+00  9.000E+00
      21    -1     0     0   501   502  0.000000000E+00  0.000000000E+00 -1.172786183E+03  1.172786183E+03  0.000000000E+00  0.00000E+00  9.000E+00
      25     1     1     2     0     0  7.912291496E+01  2.571071262E+01 -1.058140068E+03  1.068740792E+03  1.250000000E+02  0.00000E+00  9.000E+00
      25     1     1     2     0     0 -8.446951926E+01 -4.766623182E+00  2.609691105E-01  1.509400162E+02  1.250000000E+02  0.00000E+00  9.000E+00
      21     1     1     2   501   511  5.346604293E+00 -2.094408944E+01 -3.057126252E+01  3.744119592E+01  0.000000000E+00  0.00000E+00  9.000E+00
#rwgt            1           1   4.8241171215276817E-002           3      291008           0
</event>
<event>
      5   9999  3.79277E-02  4.52233E+01 -1.00000E+00  1.41610E-01
      21    -1     0     0   502   512  0.000000000E+00  0.000000000E+00  4.266511542E+02  4.266511542E+02  0.000000000E+00  0.00000E+00  9.000E+00
      21    -1     0     0   501   502  0.000000000E+00  0.000000000E+00 -4.283241303E+02  4.283241303E+02  0.000000000E+00  0.00000E+00  9.000E+00
      25     1     1     2     0     0  1.351235175E+02 -1.485264447E+02 -2.591642177E+02  3.508697215E+02  1.250000000E+02  0.00000E+00  9.000E+00
      25     1     1     2     0     0 -1.735232800E+02  1.246390665E+02  4.981720060E+00  2.475783576E+02  1.250000000E+02  0.00000E+00  9.000E+00
      21     1     1     2   501   512  3.839976257E+01  2.388737815E+01  2.525095216E+02  2.565272054E+02  3.814697266E-06  0.00000E+00  9.000E+00
#rwgt            1           1   2.6191578047572966E-002           3      291254           0
</event>
<event>
      5   9999  3.79277E-02  2.83167E+01 -1.00000E+00  1.54802E-01
      21    -1     0     0   511   501  0.000000000E+00  0.000000000E+00  1.080064189E+02  1.080064189E+02  0.000000000E+00  0.00000E+00  9.000E+00
      21    -1     0     0   501   502  0.000000000E+00  0.000000000E+00 -4.761060975E+02  4.761060975E+02  0.000000000E+00  0.00000E+00  9.000E+00
      25     1     1     2     0     0 -1.976043127E+01 -1.599881390E+02 -2.384202997E+02  3.137768611E+02  1.250000000E+02  0.00000E+00  9.000E+00
      25     1     1     2     0     0 -8.097784818E+00  1.549130424E+02 -1.361367112E+02  2.412919994E+02  1.250000000E+02  0.00000E+00  9.000E+00
      21     1     1     2   511   502  2.785821609E+01  5.075096650E+00  6.457332239E+00  2.904365592E+01  3.576278687E-07  0.00000E+00  9.000E+00
#rwgt            1           1   3.5361732708288025E-002           3      291506           0
</event>
<event>
      5   9999  3.79277E-02  5.11297E+01 -1.00000E+00  1.38524E-01
       1    -1     0     0   502     0  0.000000000E+00  0.000000000E+00  3.003464780E+02  3.003464780E+02  0.000000000E+00  0.00000E+00  9.000E+00
      21    -1     0     0   501   502  0.000000000E+00  0.000000000E+00 -1.173685254E+03  1.173685254E+03  0.000000000E+00  0.00000E+00  9.000E+00
      25     1     1     2     0     0  6.968466524E+01 -7.672201039E+01 -2.356644363E+02  2.861904016E+02  1.250000000E+02  0.00000E+00  9.000E+00
      25     1     1     2     0     0 -1.171624485E+02  5.774542267E+01 -9.013249671E+02  9.192786680E+02  1.250000000E+02  0.00000E+00  9.000E+00
       1     1     1     2   501     0  4.747778326E+01  1.897658771E+01  2.636506269E+02  2.685626628E+02  0.000000000E+00  0.00000E+00  9.000E+00
#rwgt            1           1   4.7539945371179240E-002           3      291708           0
</event>
<event>
      5   9999  3.79277E-02  9.61116E+00 -1.00000E+00  1.97770E-01
      21    -1     0     0   502   501  0.000000000E+00  0.000000000E+00  6.525235580E+01  6.525235580E+01  0.000000000E+00  0.00000E+00  9.000E+00
      21    -1     0     0   511   502  0.000000000E+00  0.000000000E+00 -7.390008539E+02  7.390008539E+02  0.000000000E+00  0.00000E+00  9.000E+00
      25     1     1     2     0     0  2.676078726E+01  1.143994194E+02 -5.592678093E+02  5.849861959E+02  1.250000000E+02  0.00000E+00  9.000E+00
      25     1     1     2     0     0 -3.017189902E+01 -1.054139444E+02 -8.200232385E+01  1.853963977E+02  1.250000000E+02  0.00000E+00  9.000E+00
      21     1     1     2   511   501  3.411111766E+00 -8.985474983E+00 -3.247836493E+01  3.387061607E+01  0.000000000E+00  0.00000E+00  9.000E+00
#rwgt            1           1   3.8097167386898126E-002           3      291863           0
</event>
<event>
      5   9999  3.79277E-02  4.15382E+01 -1.00000E+00  1.43831E-01
      21    -1     0     0   502   501  0.000000000E+00  0.000000000E+00  6.063494451E+02  6.063494451E+02  0.000000000E+00  0.00000E+00  9.000E+00
      21    -1     0     0   512   502  0.000000000E+00  0.000000000E+00 -1.083736667E+03  1.083736667E+03  0.000000000E+00  0.00000E+00  9.000E+00
      25     1     1     2     0     0  2.818547388E+01  9.801225282E+01  1.416575791E+02  2.146920873E+02  1.250000000E+02  0.00000E+00  9.000E+00
      25     1     1     2     0     0  9.962269038E+00 -8.157543359E+01  4.146783590E+02  4.408366360E+02  1.250000000E+02  0.00000E+00  9.000E+00
      21     1     1     2   512   501 -3.814774292E+01 -1.643681923E+01 -1.033723160E+03  1.034557389E+03  0.000000000E+00  0.00000E+00  9.000E+00
#rwgt            1           1   4.2156564747487288E-002           3      292118           0
</event>
<event>
      5   9999  3.79277E-02  2.18561E+01 -1.00000E+00  1.63251E-01
      21    -1     0     0   502   511  0.000000000E+00  0.000000000E+00  9.683963094E+02  9.683963094E+02  0.000000000E+00  0.00000E+00  9.000E+00
      21    -1     0     0   501   502  0.000000000E+00  0.000000000E+00 -7.497392004E+01  7.497392004E+01  0.000000000E+00  0.00000E+00  9.000E+00
      25     1     1     2     0     0  1.345720740E+02 -7.351385445E+01  6.530752160E+02  6.823827135E+02  1.250000000E+02  0.00000E+00  9.000E+00
      25     1     1     2     0     0 -1.295910126E+02  5.223292343E+01  8.803739645E+01  2.071175802E+02  1.250000000E+02  0.00000E+00  9.000E+00
      21     1     1     2   501   511 -4.981061325E+00  2.128093102E+01  1.523097769E+02  1.538699358E+02  1.907348633E-06  0.00000E+00  9.000E+00
#rwgt            1           1   6.4219772782562939E-002           3      292285           0
</event>
<event>
      5   9999  3.79277E-02  6.41260E+01 -1.00000E+00  1.33178E-01
      21    -1     0     0   512   501  0.000000000E+00  0.000000000E+00  1.046728418E+02  1.046728418E+02  0.000000000E+00  0.00000E+00  9.000E+00
      21    -1     0     0   501   502  0.000000000E+00  0.000000000E+00 -8.881107140E+02  8.881107140E+02  0.000000000E+00  0.00000E+00  9.000E+00
      25     1     1     2     0     0  2.041031876E+02 -1.302705868E+02 -5.004393007E+02  5.698184190E+02  1.250000000E+02  0.00000E+00  9.000E+00
      25     1     1     2     0     0 -1.469250552E+02  1.593016023E+02 -2.225597289E+02  3.348459426E+02  1.250000000E+02  0.00000E+00  9.000E+00
      21     1     1     2   512   502 -5.717813239E+01 -2.903101551E+01 -6.043884261E+01  8.811919417E+01  6.743495762E-07  0.00000E+00  9.000E+00
#rwgt            1           1  0.28328597869155636                3      292500           0
</event>
<event>
      5   9999  3.79277E-02  1.39248E+01 -1.00000E+00  1.80482E-01
      21    -1     0     0   502   511  0.000000000E+00  0.000000000E+00  1.943708981E+03  1.943708981E+03  0.000000000E+00  0.00000E+00  9.000E+00
      21    -1     0     0   501   502  0.000000000E+00  0.000000000E+00 -4.928212021E+01  4.928212021E+01  0.000000000E+00  0.00000E+00  9.000E+00
      25     1     1     2     0     0 -8.878769213E+01  1.839793407E+02  3.379308019E+02  4.141906312E+02  1.250000000E+02  0.00000E+00  9.000E+00
      25     1     1     2     0     0  1.026945561E+02 -1.832733441E+02  1.358827185E+03  1.380641738E+03  1.250000000E+02  0.00000E+00  9.000E+00
      21     1     1     2   501   511 -1.390686398E+01 -7.059966347E-01  1.976688733E+02  1.981587313E+02  0.000000000E+00  0.00000E+00  9.000E+00
#rwgt            1           1  0.48002818185920065                3      292572           0
</event>
<event>
      5   9999  3.79277E-02  1.50858E+02 -1.00000E+00  1.16296E-01
      21    -1     0     0   502   501  0.000000000E+00  0.000000000E+00  7.653467697E+01  7.653467697E+01  0.000000000E+00  0.00000E+00  9.000E+00
       2    -1     0     0   501     0  0.000000000E+00  0.000000000E+00 -1.585305607E+03  1.585305607E+03  0.000000000E+00  0.00000E+00  9.000E+00
      25     1     1     2     0     0  1.201308935E+02 -8.777637644E+00 -2.957160111E+02  3.429014985E+02  1.250000000E+02  0.00000E+00  9.000E+00
      25     1     1     2     0     0 -2.150361002E+02  1.260425406E+02 -3.744190774E+02  4.668424701E+02  1.250000000E+02  0.00000E+00  9.000E+00
       2     1     1     2   502     0  9.490520670E+01 -1.172649030E+02 -8.386358418E+02  8.520963155E+02  1.078959322E-05  0.00000E+00  9.000E+00
#rwgt            1           1   3.9613126580101798E-002           3      292782           0
</event>
<event>
      5   9999  3.79277E-02  1.07514E+01 -1.00000E+00  1.92189E-01
      21    -1     0     0   502   501  0.000000000E+00  0.000000000E+00  5.183303703E+01  5.183303703E+01  0.000000000E+00  0.00000E+00  9.000E+00
      21    -1     0     0   511   502  0.000000000E+00  0.000000000E+00 -7.010596330E+02  7.010596330E+02  0.000000000E+00  0.00000E+00  9.000E+00
      25     1     1     2     0     0 -1.105112786E+02  3.179501348E+01 -4.529644652E+02  4.837617929E+02  1.250000000E+02  0.00000E+00  9.000E+00
      25     1     1     2     0     0  1.028579547E+02 -2.424391616E+01 -1.512945326E+02  2.228958545E+02  1.250000000E+02  0.00000E+00  9.000E+00
      21     1     1     2   511   501  7.653323853E+00 -7.551097329E+00 -4.496759819E+01  4.623502270E+01  8.259061849E-07  0.00000E+00  9.000E+00
#rwgt            1           1   4.2894463597052374E-002           3      292821           0
</event>
<event>
      5   9999  3.79277E-02  1.22469E+02 -1.00000E+00  1.19994E-01
      21    -1     0     0   512   501  0.000000000E+00  0.000000000E+00  1.331539418E+02  1.331539418E+02  0.000000000E+00  0.00000E+00  9.000E+00
      21    -1     0     0   501   502  0.000000000E+00  0.000000000E+00 -5.826417510E+02  5.826417510E+02  0.000000000E+00  0.00000E+00  9.000E+00
      25     1     1     2     0     0 -1.111212617E+02 -1.054919861E+02 -2.870735325E+02  3.485867281E+02  1.250000000E+02  0.00000E+00  9.000E+00
      25     1     1     2     0     0 -5.812830511E+00  1.418932167E+02 -1.548947708E+02  2.445094353E+02  1.250000000E+02  0.00000E+00  9.000E+00
      21     1     1     2   512   502  1.169340922E+02 -3.640123067E+01 -7.519505849E+00  1.226995293E+02  1.072883606E-06  0.00000E+00  9.000E+00
#rwgt            1           1   3.5564818107585175E-002           3      293154           0
</event>
<event>
      5   9999  3.79277E-02  1.28479E+01 -1.00000E+00  1.83963E-01
      21    -1     0     0   502   511  0.000000000E+00  0.000000000E+00  1.764194669E+03  1.764194669E+03  0.000000000E+00  0.00000E+00  9.000E+00
      21    -1     0     0   501   502  0.000000000E+00  0.000000000E+00 -3.600966480E+01  3.600966480E+01  0.000000000E+00  0.00000E+00  9.000E+00
      25     1     1     2     0     0  1.121072965E+02 -4.091165485E+01  7.491070542E+02  7.687835769E+02  1.250000000E+02  0.00000E+00  9.000E+00
      25     1     1     2     0     0 -1.068458315E+02  2.919046313E+01  2.409013196E+02  2.931323261E+02  1.250000000E+02  0.00000E+00  9.000E+00
      21     1     1     2   501   511 -5.261465056E+00  1.172119172E+01  7.381766303E+02  7.382884307E+02  1.078959322E-05  0.00000E+00  9.000E+00
#rwgt            1           1   3.6924413974801333E-002           3      293231           0
</event>
<event>
      5   9999  3.79277E-02  1.51339E+01 -1.00000E+00  1.77021E-01
      21    -1     0     0   502   501  0.000000000E+00  0.000000000E+00  5.075817473E+02  5.075817473E+02  0.000000000E+00  0.00000E+00  9.000E+00
      21    -1     0     0   512   502  0.000000000E+00  0.000000000E+00 -1.445874504E+02  1.445874504E+02  0.000000000E+00  0.00000E+00  9.000E+00
      25     1     1     2     0     0 -8.070812672E+01 -1.047712084E+01  3.016572149E+01  1.521793105E+02  1.250000000E+02  0.00000E+00  9.000E+00
      25     1     1     2     0     0  7.396309955E+01  2.402483756E+01  4.025604571E+02  4.286346399E+02  1.250000000E+02  0.00000E+00  9.000E+00
      21     1     1     2   512   501  6.745027175E+00 -1.354771672E+01 -6.973188159E+01  7.135524739E+01  9.536743164E-07  0.00000E+00  9.000E+00
#rwgt            1           1   3.5183302820323871E-002           3      293510           0
</event>
<event>
      5   9999  3.79277E-02  2.32785E+01 -1.00000E+00  1.61107E-01
      21    -1     0     0   502   501  0.000000000E+00  0.000000000E+00  7.622636916E+02  7.622636916E+02  0.000000000E+00  0.00000E+00  9.000E+00
      21    -1     0     0   511   502  0.000000000E+00  0.000000000E+00 -3.710214534E+02  3.710214534E+02  0.000000000E+00  0.00000E+00  9.000E+00
      25     1     1     2     0     0 -3.626421025E+02  2.836802943E+02  3.780329530E+01  4.785790353E+02  1.250000000E+02  0.00000E+00  9.000E+00
      25     1     1     2     0     0  3.591549680E+02 -3.066961241E+02  3.803314264E+02  6.191379471E+02  1.250000000E+02  0.00000E+00  9.000E+00
      21     1     1     2   511   501  3.487134433E+00  2.301582978E+01 -2.689248351E+01  3.556816268E+01  1.118282261E-06  0.00000E+00  9.000E+00
#rwgt            1           1   8.5454949756071943E-002           3      293696           0
</event>
<event>
      5   9999  3.79277E-02  1.28233E+02 -1.00000E+00  1.19158E-01
      21    -1     0     0   502   501  0.000000000E+00  0.000000000E+00  9.148552469E+01  9.148552469E+01  0.000000000E+00  0.00000E+00  9.000E+00
       2    -1     0     0   501     0  0.000000000E+00  0.000000000E+00 -1.108205195E+03  1.108205195E+03  0.000000000E+00  0.00000E+00  9.000E+00
      25     1     1     2     0     0 -2.053613974E+02  6.274183481E+01 -2.665227582E+02  3.643751117E+02  1.250000000E+02  0.00000E+00  9.000E+00
      25     1     1     2     0     0  1.170589673E+02 -1.557271598E+02 -5.597438598E+02  6.057160545E+02  1.250000000E+02  0.00000E+00  9.000E+00
       2     1     1     2   502     0  8.830243005E+01  9.298532502E+01 -1.904530521E+02  2.295995533E+02  4.672030912E-06  0.00000E+00  9.000E+00
#rwgt            1           1   3.4652690360188053E-002           3      293871           0
</event>
<event>
      5   9999  3.79277E-02  9.86255E+00 -1.00000E+00  1.96455E-01
      21    -1     0     0   502   501  0.000000000E+00  0.000000000E+00  5.148600416E+02  5.148600416E+02  0.000000000E+00  0.00000E+00  9.000E+00
      21    -1     0     0   511   502  0.000000000E+00  0.000000000E+00 -8.000777997E+01  8.000777997E+01  0.000000000E+00  0.00000E+00  9.000E+00
      25     1     1     2     0     0  1.517005166E+02  1.072689517E+01  1.923901497E+02  2.752582110E+02  1.250000000E+02  0.00000E+00  9.000E+00
      25     1     1     2     0     0 -1.467771196E+02 -1.927265315E+01  2.416219306E+02  3.097113420E+02  1.250000000E+02  0.00000E+00  9.000E+00
      21     1     1     2   511   501 -4.923396995E+00  8.545757982E+00  8.401813927E-01  9.898268648E+00  1.303319311E-07  0.00000E+00  9.000E+00
#rwgt            1           1   4.6174653065072291E-002           3      294043           0
</event>
<event>
      5   9999  3.79277E-02  1.07331E+02 -1.00000E+00  1.22462E-01
      21    -1     0     0   512   501  0.000000000E+00  0.000000000E+00  3.826797612E+02  3.826797612E+02  0.000000000E+00  0.00000E+00  9.000E+00
      21    -1     0     0   501   502  0.000000000E+00  0.000000000E+00 -2.940136326E+02  2.940136326E+02  0.000000000E+00  0.00000E+00  9.000E+00
      25     1     1     2     0     0  2.000188915E+02 -1.591261300E+02 -1.110065188E+02  3.054114102E+02  1.250000000E+02  0.00000E+00  9.000E+00
      25     1     1     2     0     0 -1.110392719E+02  9.910498333E+01  1.741257851E+02  2.609526905E+02  1.250000000E+02  0.00000E+00  9.000E+00
      21     1     1     2   512   502 -8.897961963E+01  6.002114671E+01  2.554686236E+01  1.103292932E+02  1.719260824E-06  0.00000E+00  9.000E+00
#rwgt            1           1   2.3226187346456102E-002           3      294212           0
</event>
<event>
      5   9999  3.79277E-02  1.63021E+02 -1.00000E+00  1.14979E-01
      21    -1     0     0   502   501  0.000000000E+00  0.000000000E+00  3.211742131E+01  3.211742131E+01  0.000000000E+00  0.00000E+00  9.000E+00
       2    -1     0     0   501     0  0.000000000E+00  0.000000000E+00 -2.588019058E+03  2.588019058E+03  0.000000000E+00  0.00000E+00  9.000E+00
      25     1     1     2     0     0  1.757401318E+02  1.010569490E+02 -7.101756206E+02  7.490470699E+02  1.250000000E+02  0.00000E+00  9.000E+00
      25     1     1     2     0     0 -2.008809484E+01 -5.259802206E+01 -1.043490355E+03  1.052457697E+03  1.250000000E+02  0.00000E+00  9.000E+00
       2     1     1     2   502     0 -1.556520370E+02 -4.845892693E+01 -8.022356618E+02  8.186317128E+02  0.000000000E+00  0.00000E+00  9.000E+00
#rwgt            1           1   6.6070350098452982E-002           3      294329           0
</event>
<event>
      5   9999  3.79277E-02  6.31891E+01 -1.00000E+00  1.33512E-01
      21    -1     0     0   502   501  0.000000000E+00  0.000000000E+00  1.909568941E+02  1.909568941E+02  0.000000000E+00  0.00000E+00  9.000E+00
      21    -1     0     0   511   502  0.000000000E+00  0.000000000E+00 -1.622001507E+03  1.622001507E+03  0.000000000E+00  0.00000E+00  9.000E+00
      25     1     1     2     0     0  3.152984021E+02 -4.041394530E+02 -9.181296572E+02  1.058928160E+03  1.250000000E+02  0.00000E+00  9.000E+00
      25     1     1     2     0     0 -2.528996627E+02  3.941763737E+02 -4.183304942E+02  6.402801382E+02  1.250000000E+02  0.00000E+00  9.000E+00
      21     1     1     2   511   501 -6.239873942E+01  9.963079333E+00 -9.458446122E+01  1.137501030E+02  1.348699152E-06  0.00000E+00  9.000E+00
#rwgt            1           1   7.6716784455529596E-002           3      294356           0
</event>
<event>
      5   9999  3.79277E-02  2.62807E+01 -1.00000E+00  1.57143E-01
      21    -1     0     0   512   501  0.000000000E+00  0.000000000E+00  2.104437503E+02  2.104437503E+02  0.000000000E+00  0.00000E+00  9.000E+00
      21    -1     0     0   501   502  0.000000000E+00  0.000000000E+00 -4.305303070E+02  4.305303070E+02  0.000000000E+00  0.00000E+00  9.000E+00
      25     1     1     2     0     0  8.049972030E+00  2.122334672E+01 -3.638392253E+02  3.853819072E+02  1.250000000E+02  0.00000E+00  9.000E+00
      25     1     1     2     0     0  1.693209360E+00 -4.563128033E+01  2.683586981E+01  1.357580370E+02  1.250000000E+02  0.00000E+00  9.000E+00
      21     1     1     2   512   502 -9.743181391E+00  2.440793361E+01  1.169167989E+02  1.198341131E+02  0.000000000E+00  0.00000E+00  9.000E+00
#rwgt            1           1   3.3150164646260555E-002           3      294553           0
</event>
<event>
      5   9999  3.79277E-02  1.03896E+01 -1.00000E+00  1.93858E-01
      21    -1     0     0   502   501  0.000000000E+00  0.000000000E+00  9.920922817E+01  9.920922817E+01  0.000000000E+00  0.00000E+00  9.000E+00
      21    -1     0     0   511   502  0.000000000E+00  0.000000000E+00 -5.596337087E+02  5.596337087E+02  0.000000000E+00  0.00000E+00  9.000E+00
      25     1     1     2     0     0  1.096905688E+02 -1.446413233E+02 -1.512448458E+02  2.673071953E+02  1.250000000E+02  0.00000E+00  9.000E+00
      25     1     1     2     0     0 -1.199842258E+02  1.432327458E+02 -2.717060927E+02  3.526485995E+02  1.250000000E+02  0.00000E+00  9.000E+00
      21     1     1     2   511   501  1.029365699E+01  1.408577500E+00 -3.747354197E+01  3.888714199E+01  0.000000000E+00  0.00000E+00  9.000E+00
#rwgt            1           1   3.4839748950486860E-002           3      294680           0
</event>
<event>
      5   9999  3.79277E-02  5.40362E+01 -1.00000E+00  1.37179E-01
      21    -1     0     0   502   501  0.000000000E+00  0.000000000E+00  1.108953241E+02  1.108953241E+02  0.000000000E+00  0.00000E+00  9.000E+00
       2    -1     0     0   501     0  0.000000000E+00  0.000000000E+00 -5.418568769E+02  5.418568769E+02  0.000000000E+00  0.00000E+00  9.000E+00
      25     1     1     2     0     0 -1.447001229E+01 -1.564897442E+02 -7.639895482E+01  2.148492997E+02  1.250000000E+02  0.00000E+00  9.000E+00
      25     1     1     2     0     0  1.119037139E+01  1.025532008E+02 -1.324427808E+02  2.093047386E+02  1.250000000E+02  0.00000E+00  9.000E+00
       2     1     1     2   502     0  3.279640906E+00  5.393654341E+01 -2.221198172E+02  2.285981626E+02  2.697398305E-06  0.00000E+00  9.000E+00
#rwgt            1           1  0.15021981109902305                3      294896           0
</event>
<event>
      5   9999  3.79277E-02  3.44109E+01 -1.00000E+00  1.49014E-01
      21    -1     0     0   502   501  0.000000000E+00  0.000000000E+00  5.801525428E+02  5.801525428E+02  0.000000000E+00  0.00000E+00  9.000E+00
      21    -1     0     0   511   502  0.000000000E+00  0.000000000E+00 -1.184414039E+02  1.184414039E+02  0.000000000E+00  0.00000E+00  9.000E+00
      25     1     1     2     0     0  9.684854480E+00 -1.530976812E+02  3.953500560E+02  4.421078637E+02  1.250000000E+02  0.00000E+00  9.000E+00
      25     1     1     2     0     0 -4.192763846E+01  1.651190144E+02  6.818204847E+01  2.220270423E+02  1.250000000E+02  0.00000E+00  9.000E+00
      21     1     1     2   511   501  3.224278398E+01 -1.202133313E+01 -1.820965478E+00  3.445904067E+01  9.982665911E-07  0.00000E+00  9.000E+00
#rwgt            1           1   3.1683397632356718E-002           3      295001           0
</event>
<event>
      5   9999  3.79277E-02  2.23522E+01 -1.00000E+00  1.62481E-01
      21    -1     0     0   502   501  0.000000000E+00  0.000000000E+00  9.805763712E+01  9.805763712E+01  0.000000000E+00  0.00000E+00  9.000E+00
      21    -1     0     0   501   512  0.000000000E+00  0.000000000E+00 -4.701772565E+02  4.701772565E+02  0.000000000E+00  0.00000E+00  9.000E+00
      25     1     1     2     0     0 -7.767712657E-02 -4.844866081E+01  2.622828096E+01  1.366023480E+02  1.250000000E+02  0.00000E+00  9.000E+00
      25     1     1     2     0     0  5.569236314E-01  7.079575932E+01 -3.516018388E+02  3.798173281E+02  1.250000000E+02  0.00000E+00  9.000E+00
      21     1     1     2   502   512 -4.792465048E-01 -2.234709852E+01 -4.674606151E+01  5.181521742E+01  0.000000000E+00  0.00000E+00  9.000E+00
#rwgt            1           1   4.7688474186454111E-002           3      295089           0
</event>
<event>
      5   9999  3.79277E-02  9.84786E+01 -1.00000E+00  1.24128E-01
      21    -1     0     0   502   501  0.000000000E+00  0.000000000E+00  1.138050219E+02  1.138050219E+02  0.000000000E+00  0.00000E+00  9.000E+00
      21    -1     0     0   511   502  0.000000000E+00  0.000000000E+00 -8.491865896E+02  8.491865896E+02  0.000000000E+00  0.00000E+00  9.000E+00
      25     1     1     2     0     0  9.180627206E+01 -5.335069119E+01  4.764774109E+00  1.640804404E+02  1.250000000E+02  0.00000E+00  9.000E+00
      25     1     1     2     0     0 -3.260169063E+01  1.320453895E+02 -3.412714094E+02  3.880593124E+02  1.250000000E+02  0.00000E+00  9.000E+00
      21     1     1     2   511   501 -5.920458144E+01 -7.869469832E+01 -3.988749325E+02  4.108518587E+02  7.629394531E-06  0.00000E+00  9.000E+00
#rwgt            1           1   5.8793280433585622E-002           3      295308           0
</event>
<event>
      5   9999  3.79277E-02  2.06784E+01 -1.00000E+00  1.65183E-01
      21    -1     0     0   502   501  0.000000000E+00  0.000000000E+00  4.020210993E+01  4.020210993E+01  0.000000000E+00  0.00000E+00  9.000E+00
      -1    -1     0     0     0   502  0.000000000E+00  0.000000000E+00 -1.180481280E+03  1.180481280E+03  0.000000000E+00  0.00000E+00  9.000E+00
      25     1     1     2     0     0  5.656032488E+01 -1.060280069E+02 -2.587544776E+02  3.114801571E+02  1.250000000E+02  0.00000E+00  9.000E+00
      25     1     1     2     0     0 -4.259302441E+01  9.077974000E+01 -4.589453563E+02  4.861182644E+02  1.250000000E+02  0.00000E+00  9.000E+00
      -1     1     1     2     0   501 -1.396730048E+01  1.524826692E+01 -4.225793360E+02  4.230849682E+02  5.394796609E-06  0.00000E+00  9.000E+00
#rwgt            1           1   4.5555861158418663E-002           3      295451           0
</event>
<event>
      5   9999  3.79277E-02  8.13761E+01 -1.00000E+00  1.27992E-01
      21    -1     0     0   502   501  0.000000000E+00  0.000000000E+00  4.925735366E+02  4.925735366E+02  0.000000000E+00  0.00000E+00  9.000E+00
      21    -1     0     0   501   511  0.000000000E+00  0.000000000E+00 -3.175174002E+02  3.175174002E+02  0.000000000E+00  0.00000E+00  9.000E+00
      25     1     1     2     0     0 -7.305455111E+01 -1.538512510E+01  3.757065960E+02  4.029318997E+02  1.250000000E+02  0.00000E+00  9.000E+00
      25     1     1     2     0     0  1.494517033E+02  4.341265847E+01 -9.995227867E+00  1.998633912E+02  1.250000000E+02  0.00000E+00  9.000E+00
      21     1     1     2   502   511 -7.639715223E+01 -2.802753337E+01 -1.906552317E+02  2.072956460E+02  0.000000000E+00  0.00000E+00  9.000E+00
#rwgt            1           1   4.4799057094296289E-002           3      295584           0
</event>
<event>
      5   9999  3.79277E-02  1.80736E+01 -1.00000E+00  1.70082E-01
      21    -1     0     0   502   512  0.000000000E+00  0.000000000E+00  5.896176549E+01  5.896176549E+01  0.000000000E+00  0.00000E+00  9.000E+00
      21    -1     0     0   501   502  0.000000000E+00  0.000000000E+00 -6.014563843E+02  6.014563843E+02  0.000000000E+00  0.00000E+00  9.000E+00
      25     1     1     2     0     0  3.606818160E+01 -3.443393454E+01 -5.638619112E+01  1.459144000E+02  1.250000000E+02  0.00000E+00  9.000E+00
      25     1     1     2     0     0 -4.632070987E+01  4.931823028E+01 -4.672169602E+02  4.883590727E+02  1.250000000E+02  0.00000E+00  9.000E+00
      21     1     1     2   501   512  1.025252827E+01 -1.488429574E+01 -1.889146744E+01  2.614467705E+01  4.768371582E-07  0.00000E+00  9.000E+00
#rwgt            1           1   1.6323779703047294E-002           3      295635           0
</event>
<event>
      5   9999  3.79277E-02  2.00523E+01 -1.00000E+00  1.66276E-01
      21    -1     0     0   511   501  0.000000000E+00  0.000000000E+00  4.142912824E+02  4.142912824E+02  0.000000000E+00  0.00000E+00  9.000E+00
      21    -1     0     0   501   502  0.000000000E+00  0.000000000E+00 -1.641603885E+02  1.641603885E+02  0.000000000E+00  0.00000E+00  9.000E+00
      25     1     1     2     0     0 -1.298165451E+02 -7.764702192E+01 -6.264785055E+01  2.059882244E+02  1.250000000E+02  0.00000E+00  9.000E+00
      25     1     1     2     0     0  1.159446699E+02  6.316724246E+01  2.879469042E+02  3.405461594E+02  1.250000000E+02  0.00000E+00  9.000E+00
      21     1     1     2   511   502  1.387187519E+01  1.447977946E+01  2.483184024E+01  3.191728723E+01  0.000000000E+00  0.00000E+00  9.000E+00
#rwgt            1           1   2.7812815933278917E-002           3      295774           0
</event>
<event>
      5   9999 -3.79277E-02  3.10698E+01 -1.00000E+00  1.51990E-01
      21    -1     0     0   502   512  0.000000000E+00  0.000000000E+00  4.120331229E+01  4.120331229E+01  0.000000000E+00  0.00000E+00  9.000E+00
      21    -1     0     0   501   502  0.000000000E+00  0.000000000E+00 -1.313879197E+03  1.313879197E+03  0.000000000E+00  0.00000E+00  9.000E+00
      25     1     1     2     0     0 -6.205760168E+01  7.032111191E+01 -2.586119558E+02  3.021611299E+02  1.250000000E+02  0.00000E+00  9.000E+00
      25     1     1     2     0     0  3.173554923E+01 -7.709632644E+01 -1.010543667E+03  1.021652823E+03  1.250000000E+02  0.00000E+00  9.000E+00
      21     1     1     2   501   512  3.032205245E+01  6.775214532E+00 -3.520262698E+00  3.126855683E+01  1.173318606E-06  0.00000E+00  9.000E+00
#rwgt            1           1  -4.2171519201699308E-002           3      296001           0
</event>
<event>
      5   9999  3.79277E-02  6.61324E+01 -1.00000E+00  1.32483E-01
      21    -1     0     0   502   501  0.000000000E+00  0.000000000E+00  1.147119608E+02  1.147119608E+02  0.000000000E+00  0.00000E+00  9.000E+00
      21    -1     0     0   511   502  0.000000000E+00  0.000000000E+00 -6.663984461E+02  6.663984461E+02  0.000000000E+00  0.00000E+00  9.000E+00
      25     1     1     2     0     0 -4.656016330E+01 -1.214930869E+02  9.199677501E+00  1.806600482E+02  1.250000000E+02  0.00000E+00  9.000E+00
      25     1     1     2     0     0  2.804587133E+01  5.800512072E+01 -3.001909428E+02  3.314977633E+02  1.250000000E+02  0.00000E+00  9.000E+00
      21     1     1     2   511   501  1.851429197E+01  6.348796616E+01 -2.606952199E+02  2.689525953E+02  5.394796609E-06  0.00000E+00  9.000E+00
#rwgt            1           1   2.4370761579584021E-002           3      296206           0
</event>
<event>
      5   9999  3.79277E-02  4.46987E+01 -1.00000E+00  1.41911E-01
      21    -1     0     0   502   512  0.000000000E+00  0.000000000E+00  4.785690870E+02  4.785690870E+02  0.000000000E+00  0.00000E+00  9.000E+00
      21    -1     0     0   501   502  0.000000000E+00  0.000000000E+00 -4.201250181E+02  4.201250181E+02  0.000000000E+00  0.00000E+00  9.000E+00
      25     1     1     2     0     0 -6.897646356E+00  2.695311795E+02 -1.616851011E+01  2.976256960E+02  1.250000000E+02  0.00000E+00  9.000E+00
      25     1     1     2     0     0 -3.576000469E+01 -2.561782925E+02 -1.823359810E+02  3.402609373E+02  1.250000000E+02  0.00000E+00  9.000E+00
      21     1     1     2   501   512  4.265765105E+01 -1.335288696E+01  2.569485600E+02  2.608074717E+02  3.814697266E-06  0.00000E+00  9.000E+00
#rwgt            1           1   4.0829737671709568E-002           3      296296           0
</event>
<event>
      5   9999  3.79277E-02  5.23223E+01 -1.00000E+00  1.37960E-01
      21    -1     0     0   502   501  0.000000000E+00  0.000000000E+00  1.103197291E+02  1.103197291E+02  0.000000000E+00  0.00000E+00  9.000E+00
      21    -1     0     0   501   511  0.000000000E+00  0.000000000E+00 -5.620676990E+02  5.620676990E+02  0.000000000E+00  0.00000E+00  9.000E+00
      25     1     1     2     0     0  8.043213868E+01  1.467541892E+02 -8.859950491E+01  2.268942336E+02  1.250000000E+02  0.00000E+00  9.000E+00
      25     1     1     2     0     0 -1.158765622E+02 -1.082662777E+02 -2.542726166E+02  3.246975949E+02  1.250000000E+02  0.00000E+00  9.000E+00
      21     1     1     2   502   511  3.544442356E+01 -3.848791152E+01 -1.088758484E+02  1.207955995E+02  0.000000000E+00  0.00000E+00  9.000E+00
#rwgt            1           1   3.9956518044696666E-002           3      296466           0
</event>
<event>
      5   9999  3.79277E-02  1.70671E+01 -1.00000E+00  1.72259E-01
      21    -1     0     0   502   501  0.000000000E+00  0.000000000E+00  2.834422172E+02  2.834422172E+02  0.000000000E+00  0.00000E+00  9.000E+00
      21    -1     0     0   512   502  0.000000000E+00  0.000000000E+00 -2.116876968E+03  2.116876968E+03  0.000000000E+00  0.00000E+00  9.000E+00
      25     1     1     2     0     0 -3.900306072E+00  1.993101933E+02  3.528298274E+01  2.379278344E+02  1.250000000E+02  0.00000E+00  9.000E+00
      25     1     1     2     0     0 -1.283514615E+01 -1.959618680E+02  5.451150629E+01  2.390863840E+02  1.250000000E+02  0.00000E+00  9.000E+00
      21     1     1     2   512   501  1.673545223E+01 -3.348325322E+00 -1.923229239E+03  1.923304966E+03  3.051757812E-05  0.00000E+00  9.000E+00
#rwgt            1           1   3.9406612229161420E-002           3      296552           0
</event>
<event>
      5   9999  3.79277E-02  1.84815E+01 -1.00000E+00  1.69249E-01
      21    -1     0     0   511   501  0.000000000E+00  0.000000000E+00  2.760519106E+02  2.760519106E+02  0.000000000E+00  0.00000E+00  9.000E+00
      21    -1     0     0   501   502  0.000000000E+00  0.000000000E+00 -2.111232378E+02  2.111232378E+02  0.000000000E+00  0.00000E+00  9.000E+00
      25     1     1     2     0     0  9.177597288E+01 -7.341525606E+01 -1.223589567E+02  2.107352446E+02  1.250000000E+02  0.00000E+00  9.000E+00
      25     1     1     2     0     0 -1.078934906E+02  8.245908771E+01  1.658609842E+02  2.481438546E+02  1.250000000E+02  0.00000E+00  9.000E+00
      21     1     1     2   511   502  1.611751776E+01 -9.043831652E+00  2.142664536E+01  2.829604921E+01  4.768371582E-07  0.00000E+00  9.000E+00
#rwgt            1           1   3.5589340870671754E-002           3      296820           0
</event>
<event>
      5   9999  3.79277E-02  1.13704E+01 -1.00000E+00  1.89523E-01
      21    -1     0     0   502   501  0.000000000E+00  0.000000000E+00  1.471368166E+02  1.471368166E+02  0.000000000E+00  0.00000E+00  9.000E+00
      21    -1     0     0   501   512  0.000000000E+00  0.000000000E+00 -3.858350774E+02  3.858350774E+02  0.000000000E+00  0.00000E+00  9.000E+00
      25     1     1     2     0     0 -8.640573878E+01 -1.544793823E+02 -1.436803513E+02  2.599978358E+02  1.250000000E+02  0.00000E+00  9.000E+00
      25     1     1     2     0     0  7.504619627E+01  1.549754078E+02 -3.963702833E+01  2.164379879E+02  1.250000000E+02  0.00000E+00  9.000E+00
      21     1     1     2   502   512  1.135954251E+01 -4.960254790E-01 -5.538088122E+01  5.653607036E+01  9.536743164E-07  0.00000E+00  9.000E+00
#rwgt            1           1   7.8871338873819988E-002           3      296990           0
</event>
<event>
      5   9999  3.79277E-02  2.77472E+01 -1.00000E+00  1.55432E-01
      21    -1     0     0   502   501  0.000000000E+00  0.000000000E+00  3.131879508E+02  3.131879508E+02  0.000000000E+00  0.00000E+00  9.000E+00
      -2    -1     0     0     0   502  0.000000000E+00  0.000000000E+00 -1.891511234E+02  1.891511234E+02  0.000000000E+00  0.00000E+00  9.000E+00
      25     1     1     2     0     0 -6.751852034E+01  1.183420185E+02 -4.372163418E+01  1.900004348E+02  1.250000000E+02  0.00000E+00  9.000E+00
      25     1     1     2     0     0  7.764957631E+01 -1.441735710E+02  1.872787394E+02  2.784130053E+02  1.250000000E+02  0.00000E+00  9.000E+00
      -2     1     1     2     0   501 -1.013105597E+01  2.583155254E+01 -1.952027783E+01  3.392563409E+01  4.129530925E-07  0.00000E+00  9.000E+00
#rwgt            1           1   4.4280894934201259E-002           3      297414           0
</event>
<event>
      5   9999  3.79277E-02  1.32084E+02 -1.00000E+00  1.18626E-01
      21    -1     0     0   502   501  0.000000000E+00  0.000000000E+00  3.258058747E+02  3.258058747E+02  0.000000000E+00  0.00000E+00  9.000E+00
      21    -1     0     0   501   511  0.000000000E+00  0.000000000E+00 -7.158559679E+02  7.158559679E+02  0.000000000E+00  0.00000E+00  9.000E+00
      25     1     1     2     0     0  1.706706234E+02  1.001002121E+02 -4.561360976E+02  5.126730475E+02  1.250000000E+02  0.00000E+00  9.000E+00
      25     1     1     2     0     0 -2.705836428E+02 -1.864920116E+02  1.390480405E+02  3.780927607E+02  1.250000000E+02  0.00000E+00  9.000E+00
      21     1     1     2   502   511  9.991301947E+01  8.639179951E+01 -7.296203618E+01  1.508960344E+02  3.015782986E-06  0.00000E+00  9.000E+00
#rwgt            1           1   4.0540579592070351E-002           3      297729           0
</event>
<event>
      5   9999  3.79277E-02  9.06157E+01 -1.00000E+00  1.25784E-01
      21    -1     0     0   502   512  0.000000000E+00  0.000000000E+00  2.653359050E+02  2.653359050E+02  0.000000000E+00  0.00000E+00  9.000E+00
      21    -1     0     0   501   502  0.000000000E+00  0.000000000E+00 -6.544623748E+02  6.544623748E+02  0.000000000E+00  0.00000E+00  9.000E+00
      25     1     1     2     0     0 -1.755262830E+01  1.367163293E+02 -5.633501531E+02  5.932856348E+02  1.250000000E+02  0.00000E+00  9.000E+00
      25     1     1     2     0     0  2.711519513E+01 -4.660665078E+01  6.997786377E+00  1.363135456E+02  1.250000000E+02  0.00000E+00  9.000E+00
      21     1     1     2   501   512 -9.562566830E+00 -9.010967854E+01  1.672258968E+02  1.901990994E+02  3.814697266E-06  0.00000E+00  9.000E+00
#rwgt            1           1   3.9813409241909521E-002           3      297813           0
</event>
<event>
      5   9999  3.79277E-02  4.79101E+00 -1.00000E+00  2.46275E-01
      21    -1     0     0   502   511  0.000000000E+00  0.000000000E+00  4.476228017E+01  4.476228017E+01  0.000000000E+00  0.00000E+00  9.000E+00
      21    -1     0     0   501   502  0.000000000E+00  0.000000000E+00 -1.102497314E+03  1.102497314E+03  0.000000000E+00  0.00000E+00  9.000E+00
      25     1     1     2     0     0 -1.386464215E+02 -6.191188957E+01 -7.261439129E+02  7.523070480E+02  1.250000000E+02  0.00000E+00  9.000E+00
      25     1     1     2     0     0  1.398441908E+02  6.655076218E+01 -3.345843718E+02  3.893033566E+02  1.250000000E+02  0.00000E+00  9.000E+00
      21     1     1     2   501   511 -1.197769274E+00 -4.638872606E+00  2.993250926E+00  5.649189445E+00  1.032382731E-07  0.00000E+00  9.000E+00
#rwgt            1           1   4.7057694700056309E-002           3      297925           0
</event>
<event>
      5   9999  3.79277E-02  7.02280E+01 -1.00000E+00  1.31149E-01
       4    -1     0     0   502     0  0.000000000E+00  0.000000000E+00  9.328569916E+01  9.328569916E+01  0.000000000E+00  0.00000E+00  9.000E+00
      21    -1     0     0   501   502  0.000000000E+00  0.000000000E+00 -2.701178614E+03  2.701178614E+03  0.000000000E+00  0.00000E+00  9.000E+00
      25     1     1     2     0     0  2.244408277E+02  1.150817166E+01 -1.099799310E+03  1.129464318E+03  1.250000000E+02  0.00000E+00  9.000E+00
      25     1     1     2     0     0 -1.669989836E+02  2.889482344E+01 -1.562209982E+03  1.576340255E+03  1.250000000E+02  0.00000E+00  9.000E+00
       4     1     1     2   501     0 -5.744184410E+01 -4.040299509E+01  5.411637652E+01  8.865974100E+01  2.236564522E-06  0.00000E+00  9.000E+00
#rwgt            1           1   6.3031193300330773E-002           3      298386           0
</event>
<event>
      5   9999  3.79277E-02  6.93300E+00 -1.00000E+00  2.16146E-01
      21    -1     0     0   502   501  0.000000000E+00  0.000000000E+00  9.344698737E+01  9.344698737E+01  0.000000000E+00  0.00000E+00  9.000E+00
      21    -1     0     0   501   511  0.000000000E+00  0.000000000E+00 -4.408281241E+02  4.408281241E+02  0.000000000E+00  0.00000E+00  9.000E+00
      25     1     1     2     0     0 -6.898379406E+00 -8.335741338E+01 -3.357227161E+02  3.678733316E+02  1.250000000E+02  0.00000E+00  9.000E+00
      25     1     1     2     0     0  2.635146495E+00  8.882471599E+01 -6.231474576E-01  1.533693662E+02  1.250000000E+02  0.00000E+00  9.000E+00
      21     1     1     2   502   511  4.263232911E+00 -5.467302611E+00 -1.103527322E+01  1.303241373E+01  1.685873940E-07  0.00000E+00  9.000E+00
#rwgt            2          11   2.1804322925180466E-003           3      298479           0
</event>
<event>
      5   9999  3.79277E-02  9.93348E+01 -1.00000E+00  1.23958E-01
      21    -1     0     0   502   512  0.000000000E+00  0.000000000E+00  1.283023527E+03  1.283023527E+03  0.000000000E+00  0.00000E+00  9.000E+00
      21    -1     0     0   501   502  0.000000000E+00  0.000000000E+00 -4.455471112E+01  4.455471112E+01  0.000000000E+00  0.00000E+00  9.000E+00
      25     1     1     2     0     0  2.121934730E+01 -1.658975072E+02  5.714069960E+02  6.083610759E+02  1.250000000E+02  0.00000E+00  9.000E+00
      25     1     1     2     0     0  3.589716235E+01  8.462570842E+01  2.855223439E+02  3.249586522E+02  1.250000000E+02  0.00000E+00  9.000E+00
      21     1     1     2   501   512 -5.711650964E+01  8.127179883E+01  3.815394758E+02  3.942585098E+02  5.394796609E-06  0.00000E+00  9.000E+00
#rwgt            1           1   4.9109552760188357E-002           3      298664           0
</event>
<event>
      5   9999  3.79277E-02  4.06511E+01 -1.00000E+00  1.44407E-01
      21    -1     0     0   502   511  0.000000000E+00  0.000000000E+00  1.606746430E+02  1.606746430E+02  0.000000000E+00  0.00000E+00  9.000E+00
      21    -1     0     0   501   502  0.000000000E+00  0.000000000E+00 -1.186381860E+03  1.186381860E+03  0.000000000E+00  0.00000E+00  9.000E+00
      25     1     1     2     0     0  1.846762391E+02 -1.066580384E+01 -4.906478030E+02  5.390541153E+02  1.250000000E+02  0.00000E+00  9.000E+00
      25     1     1     2     0     0 -1.780527150E+02  5.077365850E+01 -6.493470879E+02  6.867003526E+02  1.250000000E+02  0.00000E+00  9.000E+00
      21     1     1     2   501   511 -6.623524089E+00 -4.010785466E+01  1.142876744E+02  1.213020346E+02  3.015782986E-06  0.00000E+00  9.000E+00
#rwgt            1           1   4.5996244085936916E-002           3      298726           0
</event>
<event>
      5   9999  3.79277E-02  5.90027E+01 -1.00000E+00  1.35094E-01
      21    -1     0     0   502   501  0.000000000E+00  0.000000000E+00  1.563942654E+02  1.563942654E+02  0.000000000E+00  0.00000E+00  9.000E+00
      21    -1     0     0   501   512  0.000000000E+00  0.000000000E+00 -2.356826609E+03  2.356826609E+03  0.000000000E+00  0.00000E+00  9.000E+00
      25     1     1     2     0     0  3.952134253E+01 -1.248056616E+02  3.883746558E+01  1.851262769E+02  1.250000000E+02  0.00000E+00  9.000E+00
      25     1     1     2     0     0 -8.825725816E+01  9.154705986E+01 -1.366620122E+02  2.246591048E+02  1.250000000E+02  0.00000E+00  9.000E+00
      21     1     1     2   502   512  4.873591563E+01  3.325860169E+01 -2.102607797E+03  2.103435493E+03  3.051757812E-05  0.00000E+00  9.000E+00
#rwgt            1           1   4.0315070809695937E-002           3      298831           0
</event>
<event>
      5   9999  3.79277E-02  1.80107E+01 -1.00000E+00  1.70213E-01
      21    -1     0     0   502   501  0.000000000E+00  0.000000000E+00  2.939499696E+01  2.939499696E+01  0.000000000E+00  0.00000E+00  9.000E+00
      21    -1     0     0   501   511  0.000000000E+00  0.000000000E+00 -1.212462462E+03  1.212462462E+03  0.000000000E+00  0.00000E+00  9.000E+00
      25     1     1     2     0     0  9.583845122E+01 -1.850276269E+00 -7.987320297E+02  8.141168758E+02  1.250000000E+02  0.00000E+00  9.000E+00
      25     1     1     2     0     0 -1.052589486E+02  1.720087916E+01 -3.056383234E+02  3.470087913E+02  1.250000000E+02  0.00000E+00  9.000E+00
      21     1     1     2   502   511  9.420497424E+00 -1.535060289E+01 -7.869711172E+01  8.073179159E+01  1.348699152E-06  0.00000E+00  9.000E+00
#rwgt            1           1   3.9168813443752455E-002           3      298953           0
</event>
<event>
      5   9999  3.79277E-02  3.70256E+01 -1.00000E+00  1.46953E-01
      21    -1     0     0   502   501  0.000000000E+00  0.000000000E+00  5.749348289E+02  5.749348289E+02  0.000000000E+00  0.00000E+00  9.000E+00
      21    -1     0     0   501   512  0.000000000E+00  0.000000000E+00 -8.329023142E+01  8.329023142E+01  0.000000000E+00  0.00000E+00  9.000E+00
      25     1     1     2     0     0 -1.624627147E+02 -3.830491816E+01  2.753496262E+02  3.454038463E+02  1.250000000E+02  0.00000E+00  9.000E+00
      25     1     1     2     0     0  1.297123503E+02  5.557663480E+01  1.878267992E+02  2.661164457E+02  1.250000000E+02  0.00000E+00  9.000E+00
      21     1     1     2   502   512  3.275036440E+01 -1.727171664E+01  2.846817210E+01  4.670476835E+01  1.168007728E-06  0.00000E+00  9.000E+00
#rwgt            2          11   2.9269859465494296E-003           3      299220           0
</event>
<event>
      5   9999  3.79277E-02  2.02047E+01 -1.00000E+00  1.66005E-01
       2    -1     0     0   502     0  0.000000000E+00  0.000000000E+00  2.531250464E+03  2.531250464E+03  0.000000000E+00  0.00000E+00  9.000E+00
      21    -1     0     0   501   502  0.000000000E+00  0.000000000E+00 -7.585993548E+01  7.585993548E+01  0.000000000E+00  0.00000E+00  9.000E+00
      25     1     1     2     0     0 -4.463667410E+01  4.330663502E+01  2.036379643E+01  1.410942292E+02  1.250000000E+02  0.00000E+00  9.000E+00
      25     1     1     2     0     0  6.343640011E+01 -5.070930209E+01  3.442061426E+02  3.750979589E+02  1.250000000E+02  0.00000E+00  9.000E+00
       2     1     1     2   501     0 -1.879972602E+01  7.402667072E+00  2.090820590E+03  2.090918212E+03  0.000000000E+00  0.00000E+00  9.000E+00
#rwgt            1           1   3.9646477154046955E-002           3      299330           0
</event>
<event>
      5   9999  3.79277E-02  3.45546E+01 -1.00000E+00  1.48895E-01
      21    -1     0     0   502   511  0.000000000E+00  0.000000000E+00  8.066022978E+02  8.066022978E+02  0.000000000E+00  0.00000E+00  9.000E+00
      21    -1     0     0   501   502  0.000000000E+00  0.000000000E+00 -6.747271955E+01  6.747271955E+01  0.000000000E+00  0.00000E+00  9.000E+00
      25     1     1     2     0     0  6.421376393E+01 -1.267458635E+02  1.694220649E+02  2.540014911E+02  1.250000000E+02  0.00000E+00  9.000E+00
      25     1     1     2     0     0 -5.383224576E+01  1.597041012E+02  4.759315748E+02  5.201338044E+02  1.250000000E+02  0.00000E+00  9.000E+00
      21     1     1     2   501   511 -1.038151817E+01 -3.295823770E+01  9.377593855E+01  9.993972184E+01  1.348699152E-06  0.00000E+00  9.000E+00
#rwgt            1           1   3.3287240999661988E-002           3      299522           0
</event>
<event>
      5   9999  3.79277E-02  4.45772E+01 -1.00000E+00  1.41981E-01
      21    -1     0     0   502   512  0.000000000E+00  0.000000000E+00  2.871737179E+02  2.871737179E+02  0.000000000E+00  0.00000E+00  9.000E+00
      21    -1     0     0   501   502  0.000000000E+00  0.000000000E+00 -8.124396592E+02  8.124396592E+02  0.000000000E+00  0.00000E+00  9.000E+00
      25     1     1     2     0     0 -2.084797162E+02  4.035035508E+00 -2.847253299E+02  3.743976323E+02  1.250000000E+02  0.00000E+00  9.000E+00
      25     1     1     2     0     0  2.527845226E+02 -8.955369682E+00 -4.389794915E+02  5.218315892E+02  1.250000000E+02  0.00000E+00  9.000E+00
      21     1     1     2   501   512 -4.430480637E+01  4.920334174E+00  1.984388801E+02  2.033841555E+02  2.697398305E-06  0.00000E+00  9.000E+00
#rwgt            1           1   2.2923947398695493E-002           3      299628           0
</event>
<event>
      5   9999  3.79277E-02  2.03883E+01 -1.00000E+00  1.65683E-01
      21    -1     0     0   502   511  0.000000000E+00  0.000000000E+00  1.128144594E+03  1.128144594E+03  0.000000000E+00  0.00000E+00  9.000E+00
      21    -1     0     0   501   502  0.000000000E+00  0.000000000E+00 -1.081190139E+03  1.081190139E+03  0.000000000E+00  0.00000E+00  9.000E+00
      25     1     1     2     0     0 -2.004195710E+02 -1.037369133E+00 -3.298320673E+02  4.056886406E+02  1.250000000E+02  0.00000E+00  9.000E+00
      25     1     1     2     0     0  2.169196847E+02  1.301348628E+01 -6.913061297E+02  7.353588684E+02  1.250000000E+02  0.00000E+00  9.000E+00
      21     1     1     2   501   511 -1.650011371E+01 -1.197611714E+01  1.068092651E+03  1.068287224E+03  1.525878906E-05  0.00000E+00  9.000E+00
#rwgt            1           1   3.5723603442224888E-002           3      299750           0
</event>
<event>
      5   9999  3.79277E-02  4.27731E+01 -1.00000E+00  1.43058E-01
      21    -1     0     0   502   501  0.000000000E+00  0.000000000E+00  2.001481693E+03  2.001481693E+03  0.000000000E+00  0.00000E+00  9.000E+00
      21    -1     0     0   512   502  0.000000000E+00  0.000000000E+00 -2.521428095E+01  2.521428095E+01  0.000000000E+00  0.00000E+00  9.000E+00
      25     1     1     2     0     0 -1.487534577E+02 -1.542046307E+01  1.275217214E+03  1.290026870E+03  1.250000000E+02  0.00000E+00  9.000E+00
      25     1     1     2     0     0  1.081787527E+02  2.895681841E+01  6.431300636E+02  6.646671487E+02  1.250000000E+02  0.00000E+00  9.000E+00
      21     1     1     2   512   501  4.057470500E+01 -1.353635535E+01  5.792013400E+01  7.200195501E+01  2.132480600E-06  0.00000E+00  9.000E+00
#rwgt            1           1   8.4083995069514972E-002           3      299978           0
</event>
<event>
      5   9999  3.79277E-02  2.90191E+01 -1.00000E+00  1.54049E-01
      21    -1     0     0   502   511  0.000000000E+00  0.000000000E+00  6.854514461E+02  6.854514461E+02  0.000000000E+00  0.00000E+00  9.000E+00
      21    -1     0     0   501   502  0.000000000E+00  0.000000000E+00 -8.950177160E+01  8.950177160E+01  0.000000000E+00  0.00000E+00  9.000E+00
      25     1     1     2     0     0 -1.463838522E+02  2.746803080E+01  4.997798739E+02  5.362719900E+02  1.250000000E+02  0.00000E+00  9.000E+00
      25     1     1     2     0     0  1.223975206E+02 -1.113515024E+01  4.684190475E+01  1.814505681E+02  1.250000000E+02  0.00000E+00  9.000E+00
      21     1     1     2   501   511  2.398633159E+01 -1.633288057E+01  4.932789589E+01  5.723065965E+01  6.743495762E-07  0.00000E+00  9.000E+00
#rwgt            1           1   2.6109021244276283E-002           3      300036           0
</event>
<event>
      5   9999  3.79277E-02  3.12787E+01 -1.00000E+00  1.51791E-01
      21    -1     0     0   502   501  0.000000000E+00  0.000000000E+00  7.946003571E+02  7.946003571E+02  0.000000000E+00  0.00000E+00  9.000E+00
      21    -1     0     0   501   512  0.000000000E+00  0.000000000E+00 -1.203686554E+03  1.203686554E+03  0.000000000E+00  0.00000E+00  9.000E+00
      25     1     1     2     0     0 -2.164962409E+02  1.136482820E+02  3.996388086E+02  4.848945572E+02  1.250000000E+02  0.00000E+00  9.000E+00
      25     1     1     2     0     0  2.444745918E+02 -9.966373732E+01  2.915299630E+02  4.126928712E+02  1.250000000E+02  0.00000E+00  9.000E+00
      21     1     1     2   502   512 -2.797835090E+01 -1.398454468E+01 -1.100254968E+03  1.100699483E+03  1.525878906E-05  0.00000E+00  9.000E+00
#rwgt            1           1   4.5204426121752531E-002           3      300315           0
</event>
<event>
      5   9999  3.79277E-02  5.42320E+00 -1.00000E+00  2.32512E-01
      21    -1     0     0   502   501  0.000000000E+00  0.000000000E+00  2.998553812E+02  2.998553812E+02  0.000000000E+00  0.00000E+00  9.000E+00
      21    -1     0     0   511   502  0.000000000E+00  0.000000000E+00 -3.100859926E+02  3.100859926E+02  0.000000000E+00  0.00000E+00  9.000E+00
      25     1     1     2     0     0 -2.262519220E+02 -1.020903406E+02  1.065561069E+01  2.781203191E+02  1.250000000E+02  0.00000E+00  9.000E+00
      25     1     1     2     0     0  2.243349997E+02  1.071634567E+02  3.069129955E+01  2.799592013E+02  1.250000000E+02  0.00000E+00  9.000E+00
      21     1     1     2   511   501  1.916922263E+00 -5.073116063E+00 -5.157752168E+01  5.186185342E+01  0.000000000E+00  0.00000E+00  9.000E+00
#rwgt            1           1   4.1658615307758905E-002           3      300494           0
</event>
<event>
      5   9999  3.79277E-02  1.25124E+01 -1.00000E+00  1.85139E-01
      21    -1     0     0   502   501  0.000000000E+00  0.000000000E+00  4.711854807E+02  4.711854807E+02  0.000000000E+00  0.00000E+00  9.000E+00
      21    -1     0     0   512   502  0.000000000E+00  0.000000000E+00 -5.477175070E+02  5.477175070E+02  0.000000000E+00  0.00000E+00  9.000E+00
      25     1     1     2     0     0  7.587740358E+01 -3.106105983E+02 -8.008275354E+01  3.525259871E+02  1.250000000E+02  0.00000E+00  9.000E+00
      25     1     1     2     0     0 -8.530300784E+01  3.023815203E+02  2.494295189E+02  4.201800470E+02  1.250000000E+02  0.00000E+00  9.000E+00
      21     1     1     2   512   501  9.425604262E+00  8.229078040E+00 -2.458787917E+02  2.461969535E+02  0.000000000E+00  0.00000E+00  9.000E+00
#rwgt            1           1  0.11013387430596731                3      300908           0
</event>
<event>
      5   9999  3.79277E-02  2.86572E+01 -1.00000E+00  1.54434E-01
      21    -1     0     0   502   511  0.000000000E+00  0.000000000E+00  2.793693759E+02  2.793693759E+02  0.000000000E+00  0.00000E+00  9.000E+00
      21    -1     0     0   501   502  0.000000000E+00  0.000000000E+00 -2.558690545E+02  2.558690545E+02  0.000000000E+00  0.00000E+00  9.000E+00
      25     1     1     2     0     0 -1.866356087E+02  1.341750541E+02 -5.745302864E+00  2.617132097E+02  1.250000000E+02  0.00000E+00  9.000E+00
      25     1     1     2     0     0  1.580531414E+02 -1.362426984E+02  2.445940377E+01  2.444711247E+02  1.250000000E+02  0.00000E+00  9.000E+00
      21     1     1     2   501   511  2.858246730E+01  2.067644222E+00  4.786220514E+00  2.905409603E+01  1.788139343E-07  0.00000E+00  9.000E+00
#rwgt            1           1  0.10085790319835915                3      301097           0
</event>
<event>
      5   9999  3.79277E-02  8.58197E+01 -1.00000E+00  1.26891E-01
      21    -1     0     0   502   512  0.000000000E+00  0.000000000E+00  1.495170607E+02  1.495170607E+02  0.000000000E+00  0.00000E+00  9.000E+00
      21    -1     0     0   501   502  0.000000000E+00  0.000000000E+00 -6.670426915E+02  6.670426915E+02  0.000000000E+00  0.00000E+00  9.000E+00
      25     1     1     2     0     0 -3.512092588E+00 -1.464839982E+02 -1.601246628E+02  2.504691681E+02  1.250000000E+02  0.00000E+00  9.000E+00
      25     1     1     2     0     0  8.730915284E+01  1.650062832E+02 -4.085035095E+02  4.662081927E+02  1.250000000E+02  0.00000E+00  9.000E+00
      21     1     1     2   501   512 -8.379706025E+01 -1.852228491E+01  5.110254152E+01  9.988239131E+01  2.023048729E-06  0.00000E+00  9.000E+00
#rwgt            2          11   1.9707028012003291E-003           3      301381           0
</event>
<event>
      5   9999  3.79277E-02  4.04882E+01 -1.00000E+00  1.44514E-01
      21    -1     0     0   511   501  0.000000000E+00  0.000000000E+00  1.974056009E+02  1.974056009E+02  0.000000000E+00  0.00000E+00  9.000E+00
      21    -1     0     0   501   502  0.000000000E+00  0.000000000E+00 -4.937270003E+02  4.937270003E+02  0.000000000E+00  0.00000E+00  9.000E+00
      25     1     1     2     0     0  2.127563704E+02 -1.082316871E+02 -2.989369249E+01  2.711051532E+02  1.250000000E+02  0.00000E+00  9.000E+00
      25     1     1     2     0     0 -1.989288286E+02  1.462855600E+02 -2.586277133E+02  3.787947175E+02  1.250000000E+02  0.00000E+00  9.000E+00
      21     1     1     2   511   502 -1.382754177E+01 -3.805387295E+01 -7.799993540E+00  4.123273041E+01  7.725644944E-07  0.00000E+00  9.000E+00
#rwgt            1           1   3.6631420306186227E-002           3      301461           0
</event>
<event>
      5   9999  3.79277E-02  4.97717E+01 -1.00000E+00  1.39189E-01
       2    -1     0     0   502     0  0.000000000E+00  0.000000000E+00  9.532820066E+02  9.532820066E+02  0.000000000E+00  0.00000E+00  9.000E+00
      21    -1     0     0   501   502  0.000000000E+00  0.000000000E+00 -1.020827161E+02  1.020827161E+02  0.000000000E+00  0.00000E+00  9.000E+00
      25     1     1     2     0     0  9.256203325E+01 -2.092228036E+02  2.553413960E+02  3.649193610E+02  1.250000000E+02  0.00000E+00  9.000E+00
      25     1     1     2     0     0 -5.148701613E+01  2.373308725E+02  3.742644522E+02  4.633311300E+02  1.250000000E+02  0.00000E+00  9.000E+00
       2     1     1     2   501     0 -4.107501711E+01 -2.810806885E+01  2.215934422E+02  2.271142316E+02  2.697398305E-06  0.00000E+00  9.000E+00
#rwgt            1           1   1.0878380261583945E-002           3      301650           0
</event>
<event>
      5   9999  3.79277E-02  2.82539E+01 -1.00000E+00  1.54871E-01
      21    -1     0     0   502   501  0.000000000E+00  0.000000000E+00  2.708192073E+02  2.708192073E+02  0.000000000E+00  0.00000E+00  9.000E+00
      21    -1     0     0   501   511  0.000000000E+00  0.000000000E+00 -2.815702025E+02  2.815702025E+02  0.000000000E+00  0.00000E+00  9.000E+00
      25     1     1     2     0     0 -8.940878804E+01  7.076317278E+01 -1.675761840E+02  2.381347002E+02  1.250000000E+02  0.00000E+00  9.000E+00
      25     1     1     2     0     0  9.162865269E+01 -4.259661164E+01  2.037274119E+02  2.594997874E+02  1.250000000E+02  0.00000E+00  9.000E+00
      21     1     1     2   502   511 -2.219864652E+00 -2.816656114E+01 -4.690222307E+01  5.475492211E+01  6.743495762E-07  0.00000E+00  9.000E+00
#rwgt            1           1   4.1866383541062979E-002           3      301802           0
</event>
<event>
      5   9999  3.79277E-02  2.99749E+01 -1.00000E+00  1.53065E-01
      21    -1     0     0   502   501  0.000000000E+00  0.000000000E+00  1.103712493E+03  1.103712493E+03  0.000000000E+00  0.00000E+00  9.000E+00
      21    -1     0     0   501   512  0.000000000E+00  0.000000000E+00 -4.488066746E+01  4.488066746E+01  0.000000000E+00  0.00000E+00  9.000E+00
      25     1     1     2     0     0  6.040906657E+01 -3.409465872E+01  1.173326705E+02  1.849423063E+02  1.250000000E+02  0.00000E+00  9.000E+00
      25     1     1     2     0     0 -8.733735978E+01  2.092807737E+01  8.962724118E+02  9.093926738E+02  1.250000000E+02  0.00000E+00  9.000E+00
      21     1     1     2   502   512  2.692829321E+01  1.316658135E+01  4.522674281E+01  5.425818008E+01  1.066240300E-06  0.00000E+00  9.000E+00
#rwgt            1           1   3.4092935206902972E-002           3      301913           0
</event>
<event>
      5   9999  3.79277E-02  5.39436E+01 -1.00000E+00  1.37220E-01
       2    -1     0     0   502     0  0.000000000E+00  0.000000000E+00  1.347018863E+03  1.347018863E+03  0.000000000E+00  0.00000E+00  9.000E+00
      21    -1     0     0   501   502  0.000000000E+00  0.000000000E+00 -7.951458249E+02  7.951458249E+02  0.000000000E+00  0.00000E+00  9.000E+00
      25     1     1     2     0     0 -1.094589994E+02 -2.125765466E+01 -1.551660230E+02  2.283301450E+02  1.250000000E+02  0.00000E+00  9.000E+00
      25     1     1     2     0     0  1.311244212E+02  7.065927241E+01 -5.871552624E+02  6.185164903E+02  1.250000000E+02  0.00000E+00  9.000E+00
       2     1     1     2   501     0 -2.166542178E+01 -4.940161775E+01  1.294194323E+03  1.295318052E+03  2.157918644E-05  0.00000E+00  9.000E+00
#rwgt            1           1   4.5216554178462716E-002           3      302056           0
</event>
<event>
      5   9999 -3.79277E-02  1.00005E+01 -1.00000E+00  1.95755E-01
      21    -1     0     0   502   511  0.000000000E+00  0.000000000E+00  1.404696717E+02  1.404696717E+02  0.000000000E+00  0.00000E+00  9.000E+00
      21    -1     0     0   501   502  0.000000000E+00  0.000000000E+00 -2.847872200E+02  2.847872200E+02  0.000000000E+00  0.00000E+00  9.000E+00
      25     1     1     2     0     0 -1.273472723E+02 -5.413378461E+01 -1.390881904E+02  2.326334436E+02  1.250000000E+02  0.00000E+00  9.000E+00
      25     1     1     2     0     0  1.175331022E+02  5.221228168E+01 -1.320510412E+01  1.798319417E+02  1.250000000E+02  0.00000E+00  9.000E+00
      21     1     1     2   501   511  9.814170105E+00  1.921502929E+00  7.975746186E+00  1.279150638E+01  8.429369702E-08  0.00000E+00  9.000E+00
#rwgt            1           1 -0.23402795419576503                3      302165           0
</event>
<event>
      5   9999  3.79277E-02  5.19277E+01 -1.00000E+00  1.38145E-01
      21    -1     0     0   502   501  0.000000000E+00  0.000000000E+00  7.136763801E+01  7.136763801E+01  0.000000000E+00  0.00000E+00  9.000E+00
      21    -1     0     0   512   502  0.000000000E+00  0.000000000E+00 -5.092150949E+02  5.092150949E+02  0.000000000E+00  0.00000E+00  9.000E+00
      25     1     1     2     0     0 -9.697838640E+01  3.036561515E+01 -9.545731044E+01  1.872537747E+02  1.250000000E+02  0.00000E+00  9.000E+00
      25     1     1     2     0     0  5.786509339E+01  3.790515726E+00 -2.105687970E+02  2.516484757E+02  1.250000000E+02  0.00000E+00  9.000E+00
      21     1     1     2   512   501  3.911329301E+01 -3.415613087E+01 -1.318213495E+02  1.416804826E+02  0.000000000E+00  0.00000E+00  9.000E+00
#rwgt            1           1   3.3195519533212085E-002           3      302399           0
</event>
<event>
      5   9999  3.79277E-02  2.61547E+01 -1.00000E+00  1.57296E-01
       1    -1     0     0   502     0  0.000000000E+00  0.000000000E+00  1.220667510E+03  1.220667510E+03  0.000000000E+00  0.00000E+00  9.000E+00
      21    -1     0     0   501   502  0.000000000E+00  0.000000000E+00 -1.134768361E+02  1.134768361E+02  0.000000000E+00  0.00000E+00  9.000E+00
      25     1     1     2     0     0 -1.830941518E+02 -1.290157938E+02  8.587549203E+02  8.962441390E+02  1.250000000E+02  0.00000E+00  9.000E+00
      25     1     1     2     0     0  1.650455685E+02  1.100865235E+02  5.258499765E+01  2.403107661E+02  1.250000000E+02  0.00000E+00  9.000E+00
       1     1     1     2   501     0  1.804858335E+01  1.892927029E+01  1.958507559E+02  1.975894411E+02  0.000000000E+00  0.00000E+00  9.000E+00
#rwgt            1           1   3.7987495494644676E-002           3      302576           0
</event>
<event>
      5   9999  3.79277E-02  7.40978E+01 -1.00000E+00  1.29981E-01
       1    -1     0     0   502     0  0.000000000E+00  0.000000000E+00  5.701598356E+02  5.701598356E+02  0.000000000E+00  0.00000E+00  9.000E+00
      21    -1     0     0   501   502  0.000000000E+00  0.000000000E+00 -2.302229407E+02  2.302229407E+02  0.000000000E+00  0.00000E+00  9.000E+00
      25     1     1     2     0     0  7.096669722E+01  4.802164102E+01 -1.383826584E+02  2.052245362E+02  1.250000000E+02  0.00000E+00  9.000E+00
      25     1     1     2     0     0 -1.338331087E+02 -8.800499238E+00  9.839484456E+01  2.080752153E+02  1.250000000E+02  0.00000E+00  9.000E+00
       1     1     1     2   501     0  6.286641150E+01 -3.922114178E+01  3.799247089E+02  3.870830248E+02  7.629394531E-06  0.00000E+00  9.000E+00
#rwgt            1           1   3.5268221025480308E-002           3      302719           0
</event>
<event>
      5   9999  3.79277E-02  3.35151E+01 -1.00000E+00  1.49771E-01
      21    -1     0     0   502   501  0.000000000E+00  0.000000000E+00  9.533511338E+02  9.533511338E+02  0.000000000E+00  0.00000E+00  9.000E+00
      21    -1     0     0   501   511  0.000000000E+00  0.000000000E+00 -8.173309526E+01  8.173309526E+01  0.000000000E+00  0.00000E+00  9.000E+00
      25     1     1     2     0     0  2.051929368E+02 -1.678008561E+01  4.810229878E+02  5.379533691E+02  1.250000000E+02  0.00000E+00  9.000E+00
      25     1     1     2     0     0 -2.384088452E+02  1.231162824E+01  3.702269582E+02  4.579119503E+02  1.250000000E+02  0.00000E+00  9.000E+00
      21     1     1     2   502   511  3.321590835E+01  4.468457373E+00  2.036809258E+01  3.921890965E+01  5.840038640E-07  0.00000E+00  9.000E+00
#rwgt            1           1   4.2880219995860655E-002           3      302785           0
</event>
<event>
      5   9999  3.79277E-02  2.73134E+01 -1.00000E+00  1.55925E-01
      21    -1     0     0   502   512  0.000000000E+00  0.000000000E+00  3.480339386E+02  3.480339386E+02  0.000000000E+00  0.00000E+00  9.000E+00
      21    -1     0     0   501   502  0.000000000E+00  0.000000000E+00 -4.153859493E+02  4.153859493E+02  0.000000000E+00  0.00000E+00  9.000E+00
      25     1     1     2     0     0  2.165239672E+02  1.374525937E+02  8.403548680E+00  2.854320646E+02  1.250000000E+02  0.00000E+00  9.000E+00
      25     1     1     2     0     0 -1.998850216E+02 -1.591128939E+02 -2.019790015E+02  3.488430190E+02  1.250000000E+02  0.00000E+00  9.000E+00
      21     1     1     2   501   512 -1.663894560E+01  2.166030019E+01  1.262234422E+02  1.291448043E+02  2.336015456E-06  0.00000E+00  9.000E+00
#rwgt            1           1   3.4029284627506540E-002           3      302943           0
</event>
<event>
      5   9999  3.79277E-02  8.79403E+01 -1.00000E+00  1.26391E-01
      21    -1     0     0   502   501  0.000000000E+00  0.000000000E+00  3.633405844E+02  3.633405844E+02  0.000000000E+00  0.00000E+00  9.000E+00
      21    -1     0     0   501   511  0.000000000E+00  0.000000000E+00 -3.717912124E+02  3.717912124E+02  0.000000000E+00  0.00000E+00  9.000E+00
      25     1     1     2     0     0  1.119641217E+02  1.015451456E+02  2.504992229E+02  3.181544308E+02  1.250000000E+02  0.00000E+00  9.000E+00
      25     1     1     2     0     0 -1.310514322E+02 -1.570130682E+01 -4.737969778E+01  1.878585763E+02  1.250000000E+02  0.00000E+00  9.000E+00
      21     1     1     2   502   511  1.908731048E+01 -8.584383875E+01 -2.115701532E+02  2.291187897E+02  0.000000000E+00  0.00000E+00  9.000E+00
#rwgt            2          11   1.5588343217479196E-003           3      303182           0
</event>
<event>
      5   9999  3.79277E-02  5.41527E+00 -1.00000E+00  2.32618E-01
      21    -1     0     0   502   501  0.000000000E+00  0.000000000E+00  4.831990161E+01  4.831990161E+01  0.000000000E+00  0.00000E+00  9.000E+00
      21    -1     0     0   501   512  0.000000000E+00  0.000000000E+00 -3.860252401E+02  3.860252401E+02  0.000000000E+00  0.00000E+00  9.000E+00
      25     1     1     2     0     0 -1.706667463E+01  3.710174331E+01 -1.537716748E+02  2.023327425E+02  1.250000000E+02  0.00000E+00  9.000E+00
      25     1     1     2     0     0  1.910703546E+01 -3.208556417E+01 -1.550837922E+02  2.026586905E+02  1.250000000E+02  0.00000E+00  9.000E+00
      21     1     1     2   502   512 -2.040360833E+00 -5.016179139E+00 -2.884987153E+01  2.935370867E+01  4.768371582E-07  0.00000E+00  9.000E+00
#rwgt            1           1   1.0140724380407707E-002           3      303202           0
</event>
<event>
      5   9999  3.79277E-02  2.08691E+01 -1.00000E+00  1.64859E-01
      21    -1     0     0   502   511  0.000000000E+00  0.000000000E+00  1.139973102E+02  1.139973102E+02  0.000000000E+00  0.00000E+00  9.000E+00
      21    -1     0     0   501   502  0.000000000E+00  0.000000000E+00 -1.385951408E+03  1.385951408E+03  0.000000000E+00  0.00000E+00  9.000E+00
      25     1     1     2     0     0 -2.984119386E+02  2.453045219E+01 -5.878347597E+02  6.714358740E+02  1.250000000E+02  0.00000E+00  9.000E+00
      25     1     1     2     0     0  2.777785532E+02 -2.140272383E+01 -7.227480055E+02  7.846073417E+02  1.250000000E+02  0.00000E+00  9.000E+00
      21     1     1     2   501   511  2.063338547E+01 -3.127728364E+00  3.862866690E+01  4.390550293E+01  8.259061849E-07  0.00000E+00  9.000E+00
#rwgt            1           1   3.3458605477752444E-002           3      303520           0
</event>
<event>
      5   9999  3.79277E-02  1.44153E+02 -1.00000E+00  1.17082E-01
      21    -1     0     0   502   512  0.000000000E+00  0.000000000E+00  9.370481815E+01  9.370481815E+01  0.000000000E+00  0.00000E+00  9.000E+00
      21    -1     0     0   501   502  0.000000000E+00  0.000000000E+00 -1.103738015E+03  1.103738015E+03  0.000000000E+00  0.00000E+00  9.000E+00
      25     1     1     2     0     0 -6.687168534E+01 -1.613325004E+02 -8.241574195E+02  8.516809556E+02  1.250000000E+02  0.00000E+00  9.000E+00
      25     1     1     2     0     0  7.106992646E+01  1.724031811E+01 -7.021982457E+01  1.609471552E+02  1.250000000E+02  0.00000E+00  9.000E+00
      21     1     1     2   501   512 -4.198241125E+00  1.440921823E+02 -1.156559532E+02  1.848147227E+02  1.907348633E-06  0.00000E+00  9.000E+00
#rwgt            2          11   2.6076683350339898E-003           3      303682           0
</event>
<event>
      5   9999  3.79277E-02  5.32843E+01 -1.00000E+00  1.37517E-01
      21    -1     0     0   502   501  0.000000000E+00  0.000000000E+00  8.405321382E+01  8.405321382E+01  0.000000000E+00  0.00000E+00  9.000E+00
      21    -1     0     0   511   502  0.000000000E+00  0.000000000E+00 -4.470329043E+02  4.470329043E+02  0.000000000E+00  0.00000E+00  9.000E+00
      25     1     1     2     0     0 -7.793699653E+01  2.075137821E+00 -2.850211630E+02  3.208434899E+02  1.250000000E+02  0.00000E+00  9.000E+00
      25     1     1     2     0     0  2.550447781E+01 -1.156473190E+01 -1.690824607E+01  1.292095592E+02  1.250000000E+02  0.00000E+00  9.000E+00
      21     1     1     2   511   501  5.243251873E+01  9.489594076E+00 -6.105028142E+01  8.103306904E+01  1.168007728E-06  0.00000E+00  9.000E+00
#rwgt            1           1   5.7868618321165202E-002           3      303747           0
</event>
<event>
      5   9999  3.79277E-02  5.89995E+01 -1.00000E+00  1.35095E-01
       2    -1     0     0   502     0  0.000000000E+00  0.000000000E+00  2.746214916E+03  2.746214916E+03  0.000000000E+00  0.00000E+00  9.000E+00
      21    -1     0     0   501   502  0.000000000E+00  0.000000000E+00 -2.098153000E+01  2.098153000E+01  0.000000000E+00  0.00000E+00  9.000E+00
      25     1     1     2     0     0  1.153103539E+02  3.579641727E+01  9.435122122E+02  9.593842586E+02  1.250000000E+02  0.00000E+00  9.000E+00
      25     1     1     2     0     0 -1.569773068E+02  5.974487020E+00  8.175523691E+02  8.418399169E+02  1.250000000E+02  0.00000E+00  9.000E+00
       2     1     1     2   501     0  4.166695296E+01 -4.177090429E+01  9.641688043E+02  9.659722701E+02  1.078959322E-05  0.00000E+00  9.000E+00
#rwgt            1           1   9.1329225583917761E-002           3      303843           0
</event>
<event>
      5   9999  3.79277E-02  1.94145E+01 -1.00000E+00  1.67441E-01
      21    -1     0     0   502   501  0.000000000E+00  0.000000000E+00  2.141758379E+02  2.141758379E+02  0.000000000E+00  0.00000E+00  9.000E+00
      21    -1     0     0   501   511  0.000000000E+00  0.000000000E+00 -1.733992647E+02  1.733992647E+02  0.000000000E+00  0.00000E+00  9.000E+00
      25     1     1     2     0     0  6.993391004E+01  7.341313524E+01  4.360392007E+01  1.667529371E+02  1.250000000E+02  0.00000E+00  9.000E+00
      25     1     1     2     0     0 -7.969162159E+01 -9.019739839E+01  3.617330700E+01  1.772564057E+02  1.250000000E+02  0.00000E+00  9.000E+00
      21     1     1     2   502   511  9.757711548E+00  1.678426315E+01 -3.900065383E+01  4.356575975E+01  0.000000000E+00  0.00000E+00  9.000E+00
#rwgt            1           1   2.3453138642777170E-002           3      304002           0
</event>
<event>
      5   9999  3.79277E-02  1.27335E+01 -1.00000E+00  1.84359E-01
      21    -1     0     0   502   512  0.000000000E+00  0.000000000E+00  2.941545229E+03  2.941545229E+03  0.000000000E+00  0.00000E+00  9.000E+00
      21    -1     0     0   501   502  0.000000000E+00  0.000000000E+00 -1.548546373E+01  1.548546373E+01  0.000000000E+00  0.00000E+00  9.000E+00
      25     1     1     2     0     0  4.642557974E+01  1.488341979E+02  1.456754665E+03  1.470396581E+03  1.250000000E+02  0.00000E+00  9.000E+00
      25     1     1     2     0     0 -3.615615987E+01 -1.413054371E+02  1.068687502E+03  1.085814198E+03  1.250000000E+02  0.00000E+00  9.000E+00
      21     1     1     2   501   512 -1.026941987E+01 -7.528760766E+00  4.006175988E+02  4.008199143E+02  0.000000000E+00  0.00000E+00  9.000E+00
#rwgt            1           1  0.11458169233630251                3      304104           0
</event>
<event>
      5   9999  3.79277E-02  9.02271E+01 -1.00000E+00  1.25871E-01
      21    -1     0     0   502   511  0.000000000E+00  0.000000000E+00  9.884942048E+02  9.884942048E+02  0.000000000E+00  0.00000E+00  9.000E+00
      21    -1     0     0   501   502  0.000000000E+00  0.000000000E+00 -2.275746450E+02  2.275746450E+02  0.000000000E+00  0.00000E+00  9.000E+00
      25     1     1     2     0     0 -2.882673796E+01  1.182158386E+02 -9.186244141E+01  1.971539334E+02  1.250000000E+02  0.00000E+00  9.000E+00
      25     1     1     2     0     0 -6.076299688E+01 -1.289216988E+02  3.087568683E+01  1.920709615E+02  1.250000000E+02  0.00000E+00  9.000E+00
      21     1     1     2   501   511  8.958973484E+01  1.070586016E+01  8.219063144E+02  8.268439549E+02  1.525878906E-05  0.00000E+00  9.000E+00
#rwgt            1           1   3.9475713625565310E-002           3      304352           0
</event>
<event>
      5   9999  3.79277E-02  8.50344E+01 -1.00000E+00  1.27080E-01
      21    -1     0     0   502   512  0.000000000E+00  0.000000000E+00  5.370331178E+02  5.370331178E+02  0.000000000E+00  0.00000E+00  9.000E+00
      21    -1     0     0   501   502  0.000000000E+00  0.000000000E+00 -1.054594575E+02  1.054594575E+02  0.000000000E+00  0.00000E+00  9.000E+00
      25     1     1     2     0     0 -8.085710311E+01  1.385581288E+02  1.332644820E+02  2.431473799E+02  1.250000000E+02  0.00000E+00  9.000E+00
      25     1     1     2     0     0  2.624912352E+00 -1.052328700E+02  1.231154473E+02  2.046051330E+02  1.250000000E+02  0.00000E+00  9.000E+00
      21     1     1     2   501   512  7.823219076E+01 -3.332525880E+01  1.751937311E+02  1.947400625E+02  0.000000000E+00  0.00000E+00  9.000E+00
#rwgt            1           1   3.8795686387242255E-002           3      304424           0
</event>
<event>
      5   9999  3.79277E-02  1.52144E+01 -1.00000E+00  1.76805E-01
      21    -1     0     0   502   511  0.000000000E+00  0.000000000E+00  2.274872175E+02  2.274872175E+02  0.000000000E+00  0.00000E+00  9.000E+00
      21    -1     0     0   501   502  0.000000000E+00  0.000000000E+00 -3.668596367E+02  3.668596367E+02  0.000000000E+00  0.00000E+00  9.000E+00
      25     1     1     2     0     0 -6.696999401E+01 -2.055646240E+02 -1.610567178E+02  2.971633575E+02  1.250000000E+02  0.00000E+00  9.000E+00
      25     1     1     2     0     0  5.470386881E+01  2.145657097E+02 -1.777180747E+01  2.548956535E+02  1.250000000E+02  0.00000E+00  9.000E+00
      21     1     1     2   501   511  1.226612519E+01 -9.001085748E+00  3.945610610E+01  4.228784317E+01  0.000000000E+00  0.00000E+00  9.000E+00
#rwgt            1           1   3.2528480333948263E-002           3      304562           0
</event>
<event>
      5   9999  3.79277E-02  6.80970E+01 -1.00000E+00  1.31830E-01
      21    -1     0     0   502   501  0.000000000E+00  0.000000000E+00  1.128429966E+02  1.128429966E+02  0.000000000E+00  0.00000E+00  9.000E+00
      21    -1     0     0   512   502  0.000000000E+00  0.000000000E+00 -7.102003917E+02  7.102003917E+02  0.000000000E+00  0.00000E+00  9.000E+00
      25     1     1     2     0     0  5.150524101E-01 -1.405225185E+02 -7.486836114E+01  2.024280489E+02  1.250000000E+02  0.00000E+00  9.000E+00
      25     1     1     2     0     0  1.580431681E+01  2.066351511E+02 -2.867157824E+02  3.752050132E+02  1.250000000E+02  0.00000E+00  9.000E+00
      21     1     1     2   512   501 -1.631936922E+01 -6.611263262E+01 -2.357732516E+02  2.454103262E+02  3.814697266E-06  0.00000E+00  9.000E+00
#rwgt            1           1  0.14276613939152885                3      304733           0
</event>
<event>
      5   9999  3.79277E-02  5.11791E+01 -1.00000E+00  1.38500E-01
      21    -1     0     0   502   501  0.000000000E+00  0.000000000E+00  9.192242091E+02  9.192242091E+02  0.000000000E+00  0.00000E+00  9.000E+00
      -3    -1     0     0     0   502  0.000000000E+00  0.000000000E+00 -1.208204040E+02  1.208204040E+02  0.000000000E+00  0.00000E+00  9.000E+00
      25     1     1     2     0     0 -8.109117432E+01  6.908935262E+00  3.181856063E+02  3.514122821E+02  1.250000000E+02  0.00000E+00  9.000E+00
      25     1     1     2     0     0  7.028565315E+01 -5.693437267E+01  5.671448877E+02  5.877583853E+02  1.250000000E+02  0.00000E+00  9.000E+00
      -3     1     1     2     0   501  1.080552118E+01  5.002543741E+01 -8.692668890E+01  1.008739457E+02  3.303624740E-06  0.00000E+00  9.000E+00
#rwgt            1           1   3.7308927290962919E-002           3      305030           0
</event>
<event>
      5   9999  3.79277E-02  3.58205E+01 -1.00000E+00  1.47877E-01
      21    -1     0     0   502   501  0.000000000E+00  0.000000000E+00  4.723056230E+02  4.723056230E+02  0.000000000E+00  0.00000E+00  9.000E+00
      21    -1     0     0   511   502  0.000000000E+00  0.000000000E+00 -2.049047291E+02  2.049047291E+02  0.000000000E+00  0.00000E+00  9.000E+00
      25     1     1     2     0     0 -1.598749611E+02 -1.716228799E+02  2.329040660E+02  3.533889076E+02  1.250000000E+02  0.00000E+00  9.000E+00
      25     1     1     2     0     0  1.531189023E+02  2.068005183E+02  3.301585552E+01  2.879703098E+02  1.250000000E+02  0.00000E+00  9.000E+00
      21     1     1     2   511   501  6.756058783E+00 -3.517763849E+01  1.480972388E+00  3.585113470E+01  7.509948712E-07  0.00000E+00  9.000E+00
#rwgt            1           1   1.9719979980924139E-002           3      305136           0
</event>
<event>
      5   9999  3.79277E-02  3.27140E+01 -1.00000E+00  1.50473E-01
      21    -1     0     0   512   501  0.000000000E+00  0.000000000E+00  1.098681274E+02  1.098681274E+02  0.000000000E+00  0.00000E+00  9.000E+00
      21    -1     0     0   501   502  0.000000000E+00  0.000000000E+00 -2.465021407E+03  2.465021407E+03  0.000000000E+00  0.00000E+00  9.000E+00
      25     1     1     2     0     0 -1.338119546E+02  1.036230394E+01 -1.632466567E+03  1.642737079E+03  1.250000000E+02  0.00000E+00  9.000E+00
      25     1     1     2     0     0  1.214766825E+02 -4.066161021E+01 -8.148916380E+02  8.343160867E+02  1.250000000E+02  0.00000E+00  9.000E+00
      21     1     1     2   512   502  1.233527206E+01  3.029930627E+01  9.220492529E+01  9.783636924E+01  4.046097457E-06  0.00000E+00  9.000E+00
#rwgt            1           1   3.4981218398676871E-002           3      305240           0
</event>
<event>
      5   9999  3.79277E-02  6.67615E+01 -1.00000E+00  1.32271E-01
      21    -1     0     0   502   501  0.000000000E+00  0.000000000E+00  1.893538999E+02  1.893538999E+02  0.000000000E+00  0.00000E+00  9.000E+00
      21    -1     0     0   501   511  0.000000000E+00  0.000000000E+00 -2.994484325E+02  2.994484325E+02  0.000000000E+00  0.00000E+00  9.000E+00
      25     1     1     2     0     0  1.231625227E+02 -2.912656492E+01 -5.542650076E+01  1.863181708E+02  1.250000000E+02  0.00000E+00  9.000E+00
      25     1     1     2     0     0 -1.889594976E+02  1.781934037E+01 -2.248979367E+01  2.283725278E+02  1.250000000E+02  0.00000E+00  9.000E+00
      21     1     1     2   502   511  6.579697491E+01  1.130722455E+01 -3.217823818E+01  7.411163368E+01  4.768371582E-07  0.00000E+00  9.000E+00
#rwgt            1           1   3.6329194828637751E-002           3      305647           0
</event>
<event>
      5   9999  3.79277E-02  9.89645E+01 -1.00000E+00  1.24032E-01
      21    -1     0     0   502   512  0.000000000E+00  0.000000000E+00  1.344493524E+02  1.344493524E+02  0.000000000E+00  0.00000E+00  9.000E+00
      21    -1     0     0   501   502  0.000000000E+00  0.000000000E+00 -5.696379967E+02  5.696379967E+02  0.000000000E+00  0.00000E+00  9.000E+00
      25     1     1     2     0     0  3.135288235E+01  1.895544878E+02 -3.429233579E+02  4.124746495E+02  1.250000000E+02  0.00000E+00  9.000E+00
      25     1     1     2     0     0  1.037673108E+01 -9.981811797E+01 -1.053011826E+02  1.917933061E+02  1.250000000E+02  0.00000E+00  9.000E+00
      21     1     1     2   501   512 -4.172961344E+01 -8.973636985E+01  1.303589619E+01  9.981939341E+01  1.846782373E-06  0.00000E+00  9.000E+00
#rwgt            1           1   3.5578599814947792E-002           3      305836           0
</event>
<event>
      5   9999  3.79277E-02  4.12318E+01 -1.00000E+00  1.44028E-01
      21    -1     0     0   502   501  0.000000000E+00  0.000000000E+00  5.299979270E+01  5.299979270E+01  0.000000000E+00  0.00000E+00  9.000E+00
      21    -1     0     0   501   511  0.000000000E+00  0.000000000E+00 -1.566442167E+03  1.566442167E+03  0.000000000E+00  0.00000E+00  9.000E+00
      25     1     1     2     0     0 -3.145362325E+01  1.043193825E+02 -7.542903339E+02  7.723022542E+02  1.250000000E+02  0.00000E+00  9.000E+00
      25     1     1     2     0     0  7.876089803E+00 -1.381448052E+02 -1.575228767E+02  2.440993172E+02  1.250000000E+02  0.00000E+00  9.000E+00
      21     1     1     2   502   511  2.357753345E+01  3.382542265E+01 -6.016291634E+02  6.030403880E+02  7.629394531E-06  0.00000E+00  9.000E+00
#rwgt            1           1   3.3051999849704014E-002           3      305910           0
</event>
<event>
      5   9999  3.79277E-02  9.32211E+01 -1.00000E+00  1.25215E-01
      21    -1     0     0   502   512  0.000000000E+00  0.000000000E+00  5.542427782E+02  5.542427782E+02  0.000000000E+00  0.00000E+00  9.000E+00
      21    -1     0     0   501   502  0.000000000E+00  0.000000000E+00 -2.184888671E+02  2.184888671E+02  0.000000000E+00  0.00000E+00  9.000E+00
      25     1     1     2     0     0 -1.354942641E+02  8.851434053E+01 -9.052993688E+00  2.046959716E+02  1.250000000E+02  0.00000E+00  9.000E+00
      25     1     1     2     0     0  8.072887372E+01 -1.639526225E+02  1.124891539E+01  2.216960793E+02  1.250000000E+02  0.00000E+00  9.000E+00
      21     1     1     2   501   512  5.476539038E+01  7.543828196E+01  3.335579894E+02  3.463395944E+02  5.394796609E-06  0.00000E+00  9.000E+00
#rwgt            1           1   3.1697148718873643E-002           3      306007           0
</event>
<event>
      5   9999  3.79277E-02  1.37104E+01 -1.00000E+00  1.81142E-01
      21    -1     0     0   502   511  0.000000000E+00  0.000000000E+00  9.089942790E+02  9.089942790E+02  0.000000000E+00  0.00000E+00  9.000E+00
      21    -1     0     0   501   502  0.000000000E+00  0.000000000E+00 -5.096797989E+01  5.096797989E+01  0.000000000E+00  0.00000E+00  9.000E+00
      25     1     1     2     0     0 -9.152122336E+01 -1.211046431E+02  3.914006598E+02  4.380204852E+02  1.250000000E+02  0.00000E+00  9.000E+00
      25     1     1     2     0     0  8.197776537E+01  1.309482276E+02  3.343003407E+02  3.889080998E+02  1.250000000E+02  0.00000E+00  9.000E+00
      21     1     1     2   501   511  9.543457996E+00 -9.843584492E+00  1.323252986E+02  1.330336739E+02  1.907348633E-06  0.00000E+00  9.000E+00
#rwgt            1           1   3.7947281824667785E-002           3      306053           0
</event>
<event>
      5   9999  3.79277E-02  8.14893E+00 -1.00000E+00  2.06629E-01
      21    -1     0     0   512   501  0.000000000E+00  0.000000000E+00  6.801241973E+01  6.801241973E+01  0.000000000E+00  0.00000E+00  9.000E+00
      21    -1     0     0   501   502  0.000000000E+00  0.000000000E+00 -5.544310023E+02  5.544310023E+02  0.000000000E+00  0.00000E+00  9.000E+00
      25     1     1     2     0     0  1.867466095E+01  3.054251617E+01 -4.432135055E+02  4.618926279E+02  1.250000000E+02  0.00000E+00  9.000E+00
      25     1     1     2     0     0 -1.234082939E+01 -3.566965773E+01 -5.860874058E+01  1.431244389E+02  1.250000000E+02  0.00000E+00  9.000E+00
      21     1     1     2   512   502 -6.333831557E+00  5.127141557E+00  1.540366354E+01  1.742635513E+01  4.129530925E-07  0.00000E+00  9.000E+00
#rwgt            1           1   5.7099179052090124E-002           3      306362           0
</event>
<event>
      5   9999  3.79277E-02  6.33176E+01 -1.00000E+00  1.33466E-01
      21    -1     0     0   502   511  0.000000000E+00  0.000000000E+00  1.631426553E+02  1.631426553E+02  0.000000000E+00  0.00000E+00  9.000E+00
      21    -1     0     0   501   502  0.000000000E+00  0.000000000E+00 -7.842217987E+02  7.842217987E+02  0.000000000E+00  0.00000E+00  9.000E+00
      25     1     1     2     0     0  1.508114593E+02 -1.244307286E+02 -4.192138823E+02  4.791579923E+02  1.250000000E+02  0.00000E+00  9.000E+00
      25     1     1     2     0     0 -1.410126910E+02  6.187589816E+01 -2.950668147E+02  3.555314767E+02  1.250000000E+02  0.00000E+00  9.000E+00
      21     1     1     2   501   511 -9.798768245E+00  6.255483042E+01  9.320155352E+01  1.126749850E+02  1.348699152E-06  0.00000E+00  9.000E+00
#rwgt            1           1   3.8645539201543844E-002           3      306583           0
</event>
<event>
      5   9999  3.79277E-02  2.58368E+01 -1.00000E+00  1.57687E-01
      21    -1     0     0   502   501  0.000000000E+00  0.000000000E+00  1.152851529E+03  1.152851529E+03  0.000000000E+00  0.00000E+00  9.000E+00
      21    -1     0     0   501   512  0.000000000E+00  0.000000000E+00 -2.673309699E+01  2.673309699E+01  0.000000000E+00  0.00000E+00  9.000E+00
      25     1     1     2     0     0 -4.575542746E+01  4.220556507E+01  8.218673767E+02  8.336461202E+02  1.250000000E+02  0.00000E+00  9.000E+00
      25     1     1     2     0     0  2.343282918E+01 -5.521482740E+01  2.616824798E+02  2.961426934E+02  1.250000000E+02  0.00000E+00  9.000E+00
      21     1     1     2   502   512  2.232259828E+01  1.300926232E+01  4.256857524E+01  4.979581206E+01  4.768371582E-07  0.00000E+00  9.000E+00
#rwgt            1           1   5.0013008456974636E-002           3      306688           0
</event>
<event>
      5   9999  3.79277E-02  1.69229E+01 -1.00000E+00  1.72587E-01
      21    -1     0     0   502   501  0.000000000E+00  0.000000000E+00  1.636743950E+03  1.636743950E+03  0.000000000E+00  0.00000E+00  9.000E+00
      21    -1     0     0   511   502  0.000000000E+00  0.000000000E+00 -4.247037256E+02  4.247037256E+02  0.000000000E+00  0.00000E+00  9.000E+00
      25     1     1     2     0     0  1.299120060E+01 -7.127029648E+01  1.072748595E+03  1.082433727E+03  1.250000000E+02  0.00000E+00  9.000E+00
      25     1     1     2     0     0 -2.803647093E+01  6.352272545E+01  5.498340288E+02  5.681229088E+02  1.250000000E+02  0.00000E+00  9.000E+00
      21     1     1     2   511   501  1.504527033E+01  7.747571036E+00 -4.105423990E+02  4.108910395E+02  0.000000000E+00  0.00000E+00  9.000E+00
#rwgt            1           1  0.34557285376594588                3      306813           0
</event>
<event>
      5   9999  3.79277E-02  2.99513E+01 -1.00000E+00  1.53089E-01
      21    -1     0     0   502   512  0.000000000E+00  0.000000000E+00  1.286432688E+03  1.286432688E+03  0.000000000E+00  0.00000E+00  9.000E+00
      21    -1     0     0   501   502  0.000000000E+00  0.000000000E+00 -6.357186849E+01  6.357186849E+01  0.000000000E+00  0.00000E+00  9.000E+00
      25     1     1     2     0     0  1.584075534E+02  3.933006000E+01  2.191925983E+02  3.005165582E+02  1.250000000E+02  0.00000E+00  9.000E+00
      25     1     1     2     0     0 -1.443661243E+02 -6.578603753E+01  4.303702550E+02  4.754081793E+02  1.250000000E+02  0.00000E+00  9.000E+00
      21     1     1     2   501   512 -1.404142920E+01  2.645597753E+01  5.732979665E+02  5.740798192E+02  7.629394531E-06  0.00000E+00  9.000E+00
#rwgt            1           1   3.4486634730528702E-002           3      307029           0
</event>
<event>
      5   9999  3.79277E-02  9.92424E+01 -1.00000E+00  1.23977E-01
      21    -1     0     0   511   501  0.000000000E+00  0.000000000E+00  5.622178822E+02  5.622178822E+02  0.000000000E+00  0.00000E+00  9.000E+00
      21    -1     0     0   501   502  0.000000000E+00  0.000000000E+00 -2.564599024E+02  2.564599024E+02  0.000000000E+00  0.00000E+00  9.000E+00
      25     1     1     2     0     0  1.581513397E+01  1.843634846E+02  1.444609577E+02  2.659586081E+02  1.250000000E+02  0.00000E+00  9.000E+00
      25     1     1     2     0     0 -6.511544951E+01 -2.704944070E+02 -5.939383669E+01  3.107408467E+02  1.250000000E+02  0.00000E+00  9.000E+00
      21     1     1     2   511   502  4.930031554E+01  8.613092244E+01  2.206908588E+02  2.419783298E+02  2.697398305E-06  0.00000E+00  9.000E+00
#rwgt            1           1   3.7064003562774325E-002           3      307148           0
</event>
<event>
      5   9999  3.79277E-02  3.25582E+01 -1.00000E+00  1.50612E-01
      21    -1     0     0   502   512  0.000000000E+00  0.000000000E+00  3.350821363E+01  3.350821363E+01  0.000000000E+00  0.00000E+00  9.000E+00
      21    -1     0     0   501   502  0.000000000E+00  0.000000000E+00 -1.104205716E+03  1.104205716E+03  0.000000000E+00  0.00000E+00  9.000E+00
      25     1     1     2     0     0 -6.477497191E+01 -8.110169024E+01 -3.883965939E+02  4.210109206E+02  1.250000000E+02  0.00000E+00  9.000E+00
      25     1     1     2     0     0  8.408961347E+01  1.073119572E+02 -6.096318148E+02  6.370736762E+02  1.250000000E+02  0.00000E+00  9.000E+00
      21     1     1     2   501   512 -1.931464156E+01 -2.621026697E+01 -7.266909381E+01  7.962933296E+01  1.651812370E-06  0.00000E+00  9.000E+00
#rwgt            1           1   4.2142959777014710E-002           3      307229           0
</event>
<event>
      5   9999  3.79277E-02  2.14332E+01 -1.00000E+00  1.63927E-01
      21    -1     0     0   502   501  0.000000000E+00  0.000000000E+00  4.625812868E+01  4.625812868E+01  0.000000000E+00  0.00000E+00  9.000E+00
      21    -1     0     0   501   511  0.000000000E+00  0.000000000E+00 -1.354629910E+03  1.354629910E+03  0.000000000E+00  0.00000E+00  9.000E+00
      25     1     1     2     0     0  1.337176909E+02 -1.168397081E+02 -5.768796831E+02  6.163984970E+02  1.250000000E+02  0.00000E+00  9.000E+00
      25     1     1     2     0     0 -1.528427325E+02  1.071642735E+02 -4.577232718E+02  5.098830022E+02  1.250000000E+02  0.00000E+00  9.000E+00
      21     1     1     2   502   511  1.912504151E+01  9.675434663E+00 -2.737688265E+02  2.746065396E+02  5.394796609E-06  0.00000E+00  9.000E+00
#rwgt            1           1   4.2588539876327026E-002           3      307315           0
</event>
<event>
      5   9999  3.79277E-02  1.37097E+01 -1.00000E+00  1.81144E-01
      21    -1     0     0   502   501  0.000000000E+00  0.000000000E+00  7.150401481E+02  7.150401481E+02  0.000000000E+00  0.00000E+00  9.000E+00
      21    -1     0     0   501   512  0.000000000E+00  0.000000000E+00 -6.432145781E+02  6.432145781E+02  0.000000000E+00  0.00000E+00  9.000E+00
      25     1     1     2     0     0  1.584814740E+02  9.579483765E+01  4.958977187E+02  5.439049328E+02  1.250000000E+02  0.00000E+00  9.000E+00
      25     1     1     2     0     0 -1.645187172E+02 -8.348596436E+01  1.314035962E+02  2.587048891E+02  1.250000000E+02  0.00000E+00  9.000E+00
      21     1     1     2   502   512  6.037243146E+00 -1.230887329E+01 -5.554757448E+02  5.556449044E+02  7.629394531E-06  0.00000E+00  9.000E+00
#rwgt            1           1   3.3466395140062055E-002           3      307584           0
</event>
<event>
      5   9999  3.79277E-02  7.60491E+01 -1.00000E+00  1.29423E-01
       2    -1     0     0   502     0  0.000000000E+00  0.000000000E+00  1.281077071E+03  1.281077071E+03  0.000000000E+00  0.00000E+00  9.000E+00
      21    -1     0     0   501   502  0.000000000E+00  0.000000000E+00 -1.478328520E+02  1.478328520E+02  0.000000000E+00  0.00000E+00  9.000E+00
      25     1     1     2     0     0  1.981597004E+02 -2.284260618E+01  3.177692605E+01  2.375369962E+02  1.250000000E+02  0.00000E+00  9.000E+00
      25     1     1     2     0     0 -1.422712417E+02  7.441728321E+01  1.953630572E+02  2.820828999E+02  1.250000000E+02  0.00000E+00  9.000E+00
       2     1     1     2   501     0 -5.588845869E+01 -5.157467703E+01  9.061042361E+02  9.092900273E+02  1.525878906E-05  0.00000E+00  9.000E+00
#rwgt            1           1   3.3126147504854708E-002           3      307952           0
</event>
<event>
      5   9999  3.79277E-02  1.29704E+02 -1.00000E+00  1.18952E-01
       2    -1     0     0   502     0  0.000000000E+00  0.000000000E+00  1.035869129E+03  1.035869129E+03  0.000000000E+00  0.00000E+00  9.000E+00
      21    -1     0     0   501   502  0.000000000E+00  0.000000000E+00 -3.021518976E+02  3.021518976E+02  0.000000000E+00  0.00000E+00  9.000E+00
      25     1     1     2     0     0  2.929899271E+02  1.388506384E+01 -1.372628896E+02  3.471339701E+02  1.250000000E+02  0.00000E+00  9.000E+00
      25     1     1     2     0     0 -2.055478391E+02  8.191099600E+01  2.499383273E+02  3.564456381E+02  1.250000000E+02  0.00000E+00  9.000E+00
       2     1     1     2   501     0 -8.744208800E+01 -9.579605984E+01  6.210417938E+02  6.344414185E+02  7.629394531E-06  0.00000E+00  9.000E+00
#rwgt            1           1   4.7278544743802955E-002           3      308043           0
</event>
<event>
      5   9999  3.79277E-02  5.78463E+01 -1.00000E+00  1.35557E-01
      21    -1     0     0   502   501  0.000000000E+00  0.000000000E+00  1.934569598E+03  1.934569598E+03  0.000000000E+00  0.00000E+00  9.000E+00
      21    -1     0     0   501   511  0.000000000E+00  0.000000000E+00 -7.518816120E+02  7.518816120E+02  0.000000000E+00  0.00000E+00  9.000E+00
      25     1     1     2     0     0 -1.587009356E+02 -2.938733641E+02  8.457329295E+02  9.178435211E+02  1.250000000E+02  0.00000E+00  9.000E+00
      25     1     1     2     0     0  1.696908067E+02  2.370805960E+02  1.027649289E+03  1.075495346E+03  1.250000000E+02  0.00000E+00  9.000E+00
      21     1     1     2   502   511 -1.098987104E+01  5.679276805E+01 -6.906942329E+02  6.931123423E+02  1.525878906E-05  0.00000E+00  9.000E+00
#rwgt            1           1   3.2966892300730841E-002           3      308112           0
</event>
<event>
      5   9999  3.79277E-02  9.05467E+01 -1.00000E+00  1.25799E-01
      21    -1     0     0   502   501  0.000000000E+00  0.000000000E+00  1.103817717E+03  1.103817717E+03  0.000000000E+00  0.00000E+00  9.000E+00
      21    -1     0     0   512   502  0.000000000E+00  0.000000000E+00 -9.136778606E+01  9.136778606E+01  0.000000000E+00  0.00000E+00  9.000E+00
      25     1     1     2     0     0  9.063142684E+01 -3.133425735E+01  5.097188347E+01  1.655869081E+02  1.250000000E+02  0.00000E+00  9.000E+00
      25     1     1     2     0     0 -1.112835357E+02 -5.682576240E+01  9.067129011E+02  9.237783704E+02  1.250000000E+02  0.00000E+00  9.000E+00
      21     1     1     2   512   501  2.065210885E+01  8.816001975E+01  5.476514640E+01  1.058202246E+02  0.000000000E+00  0.00000E+00  9.000E+00
#rwgt            1           1   3.2468327278263730E-002           3      308248           0
</event>
<event>
      5   9999  3.79277E-02  1.59359E+01 -1.00000E+00  1.74943E-01
      21    -1     0     0   511   501  0.000000000E+00  0.000000000E+00  1.959643678E+03  1.959643678E+03  0.000000000E+00  0.00000E+00  9.000E+00
      21    -1     0     0   501   502  0.000000000E+00  0.000000000E+00 -5.133121652E+01  5.133121652E+01  0.000000000E+00  0.00000E+00  9.000E+00
      25     1     1     2     0     0  7.640223792E+01 -1.930911245E+02  3.104797986E+02  3.938834721E+02  1.250000000E+02  0.00000E+00  9.000E+00
      25     1     1     2     0     0 -7.548173574E+01  1.771818292E+02  1.543042923E+03  1.560031203E+03  1.250000000E+02  0.00000E+00  9.000E+00
      21     1     1     2   511   502 -9.205021835E-01  1.590929530E+01  5.478973998E+01  5.706021914E+01  0.000000000E+00  0.00000E+00  9.000E+00
#rwgt            1           1   3.5590387604333071E-002           3      308413           0
</event>
<event>
      5   9999  3.79277E-02  1.69973E+02 -1.00000E+00  1.14282E-01
      21    -1     0     0   502   512  0.000000000E+00  0.000000000E+00  3.558173508E+02  3.558173508E+02  0.000000000E+00  0.00000E+00  9.000E+00
      21    -1     0     0   501   502  0.000000000E+00  0.000000000E+00 -2.421323726E+02  2.421323726E+02  0.000000000E+00  0.00000E+00  9.000E+00
      25     1     1     2     0     0 -5.831521764E+01  8.761591087E+01  1.801569712E+01  1.643982293E+02  1.250000000E+02  0.00000E+00  9.000E+00
      25     1     1     2     0     0 -1.116369970E+02 -8.495352003E+01 -6.582446034E+01  1.990923887E+02  1.250000000E+02  0.00000E+00  9.000E+00
      21     1     1     2   501   512  1.699522147E+02 -2.662390841E+00  1.614937414E+02  2.344591054E+02  3.303624740E-06  0.00000E+00  9.000E+00
#rwgt            1           1   4.9899044612786124E-002           3      308657           0
</event>
<event>
      5   9999  3.79277E-02  3.62368E+01 -1.00000E+00  1.47553E-01
      21    -1     0     0   502   501  0.000000000E+00  0.000000000E+00  1.369528192E+03  1.369528192E+03  0.000000000E+00  0.00000E+00  9.000E+00
      21    -1     0     0   501   511  0.000000000E+00  0.000000000E+00 -4.799094332E+01  4.799094332E+01  0.000000000E+00  0.00000E+00  9.000E+00
      25     1     1     2     0     0 -9.377717505E+01  1.317972569E+02  2.968046931E+02  3.603924268E+02  1.250000000E+02  0.00000E+00  9.000E+00
      25     1     1     2     0     0  8.898917458E+01 -9.587816961E+01  9.917749466E+02  1.008143959E+03  1.250000000E+02  0.00000E+00  9.000E+00
      21     1     1     2   502   511  4.788000473E+00 -3.591908730E+01  3.295760861E+01  4.898274947E+01  6.743495762E-07  0.00000E+00  9.000E+00
#rwgt            1           1   4.4248375886620707E-002           3      308732           0
</event>
<event>
      5   9999  3.79277E-02  3.06988E+01 -1.00000E+00  1.52349E-01
      21    -1     0     0   502   512  0.000000000E+00  0.000000000E+00  3.172043097E+02  3.172043097E+02  0.000000000E+00  0.00000E+00  9.000E+00
      21    -1     0     0   501   502  0.000000000E+00  0.000000000E+00 -3.552229775E+02  3.552229775E+02  0.000000000E+00  0.00000E+00  9.000E+00
      25     1     1     2     0     0  1.474610264E+02 -2.506502514E+02 -8.347953562E+01  3.273593373E+02  1.250000000E+02  0.00000E+00  9.000E+00
      25     1     1     2     0     0 -1.179948065E+02  2.592616740E+02  4.542661070E+01  3.143691571E+02  1.250000000E+02  0.00000E+00  9.000E+00
      21     1     1     2   501   512 -2.946621986E+01 -8.611422568E+00  3.425710449E-02  3.069879289E+01  3.453188506E-07  0.00000E+00  9.000E+00
#rwgt            1           1   3.6334391558323027E-002           3      308912           0
</event>
<event>
      5   9999  3.79277E-02  1.04963E+02 -1.00000E+00  1.22889E-01
      21    -1     0     0   511   501  0.000000000E+00  0.000000000E+00  1.525685599E+02  1.525685599E+02  0.000000000E+00  0.00000E+00  9.000E+00
      21    -1     0     0   501   502  0.000000000E+00  0.000000000E+00 -6.943929887E+02  6.943929887E+02  0.000000000E+00  0.00000E+00  9.000E+00
      25     1     1     2     0     0 -4.912058834E+01  2.067872425E+02 -1.935318568E+02  3.134539447E+02  1.250000000E+02  0.00000E+00  9.000E+00
      25     1     1     2     0     0  7.201289823E+01 -1.043515565E+02 -3.834860120E+02  4.228021124E+02  1.250000000E+02  0.00000E+00  9.000E+00
      21     1     1     2   511   502 -2.289230989E+01 -1.024356860E+02  3.519344008E+01  1.107054915E+02  1.348699152E-06  0.00000E+00  9.000E+00
#rwgt            1           1   4.0223018892220262E-002           3      309049           0
</event>
<event>
      5   9999  3.79277E-02  3.44712E+01 -1.00000E+00  1.48964E-01
      21    -1     0     0   502   512  0.000000000E+00  0.000000000E+00  3.954395859E+02  3.954395859E+02  0.000000000E+00  0.00000E+00  9.000E+00
      21    -1     0     0   501   502  0.000000000E+00  0.000000000E+00 -3.883585058E+02  3.883585058E+02  0.000000000E+00  0.00000E+00  9.000E+00
      25     1     1     2     0     0  3.235303707E+02 -1.190885717E+01  4.644212346E+01  3.501365340E+02  1.250000000E+02  0.00000E+00  9.000E+00
      25     1     1     2     0     0 -3.193488140E+02 -2.230779644E+01 -1.051469779E+02  3.593914158E+02  1.250000000E+02  0.00000E+00  9.000E+00
      21     1     1     2   501   512 -4.181556701E+00  3.421665361E+01  6.578593450E+01  7.427014191E+01  9.536743164E-07  0.00000E+00  9.000E+00
#rwgt            1           1   3.9996929767151704E-002           3      309126           0
</event>
<event>
      5   9999  3.79277E-02  5.41301E+00 -1.00000E+00  2.32648E-01
      21    -1     0     0   502   501  0.000000000E+00  0.000000000E+00  4.666082554E+01  4.666082554E+01  0.000000000E+00  0.00000E+00  9.000E+00
      21    -1     0     0   511   502  0.000000000E+00  0.000000000E+00 -7.947057936E+02  7.947057936E+02  0.000000000E+00  0.00000E+00  9.000E+00
      25     1     1     2     0     0 -6.217339352E+01  1.207155385E+02 -4.257231765E+02  4.640075378E+02  1.250000000E+02  0.00000E+00  9.000E+00
      25     1     1     2     0     0  6.351857707E+01 -1.259587413E+02 -2.992479027E+02  3.536587641E+02  1.250000000E+02  0.00000E+00  9.000E+00
      21     1     1     2   511   501 -1.345183544E+00  5.243202726E+00 -2.307388879E+01  2.370031725E+01  0.000000000E+00  0.00000E+00  9.000E+00
#rwgt            1           1   4.5044920833841144E-002           3      309246           0
</event>
<event>
      5   9999  3.79277E-02  1.43960E+01 -1.00000E+00  1.79082E-01
      21    -1     0     0   502   512  0.000000000E+00  0.000000000E+00  2.917736594E+02  2.917736594E+02  0.000000000E+00  0.00000E+00  9.000E+00
      21    -1     0     0   501   502  0.000000000E+00  0.000000000E+00 -7.850921212E+02  7.850921212E+02  0.000000000E+00  0.00000E+00  9.000E+00
      25     1     1     2     0     0 -1.274712112E+02 -5.802310659E+01 -2.817985661E+02  3.386015689E+02  1.250000000E+02  0.00000E+00  9.000E+00
      25     1     1     2     0     0  1.381737542E+02  4.839504332E+01 -4.551616488E+02  4.941975244E+02  1.250000000E+02  0.00000E+00  9.000E+00
      21     1     1     2   501   512 -1.070254301E+01  9.628063272E+00  2.436417531E+02  2.440666873E+02  3.814697266E-06  0.00000E+00  9.000E+00
#rwgt            1           1   5.2155034471492612E-002           3      309681           0
</event>
<event>
      5   9999  3.79277E-02  3.12217E+01 -1.00000E+00  1.51846E-01
      21    -1     0     0   502   501  0.000000000E+00  0.000000000E+00  2.376166719E+02  2.376166719E+02  0.000000000E+00  0.00000E+00  9.000E+00
      21    -1     0     0   511   502  0.000000000E+00  0.000000000E+00 -3.155431174E+02  3.155431174E+02  0.000000000E+00  0.00000E+00  9.000E+00
      25     1     1     2     0     0  1.334938618E+02  7.925154330E+01 -1.101702849E+02  2.277364923E+02  1.250000000E+02  0.00000E+00  9.000E+00
      25     1     1     2     0     0 -1.165256768E+02 -1.054597916E+02  1.188605712E+02  2.333513154E+02  1.250000000E+02  0.00000E+00  9.000E+00
      21     1     1     2   511   501 -1.696818501E+01  2.620824833E+01 -8.661673176E+01  9.207198165E+01  1.348699152E-06  0.00000E+00  9.000E+00
#rwgt            1           1  0.18713368549544762                3      309855           0
</event>
<event>
      5   9999  3.79277E-02  2.14124E+01 -1.00000E+00  1.63960E-01
      21    -1     0     0   502   512  0.000000000E+00  0.000000000E+00  4.927283204E+01  4.927283204E+01  0.000000000E+00  0.00000E+00  9.000E+00
      21    -1     0     0   501   502  0.000000000E+00  0.000000000E+00 -1.069080935E+03  1.069080935E+03  0.000000000E+00  0.00000E+00  9.000E+00
      25     1     1     2     0     0  1.708414000E+02 -3.526726873E+01 -4.158465257E+02  4.679571531E+02  1.250000000E+02  0.00000E+00  9.000E+00
      25     1     1     2     0     0 -1.696637768E+02  1.388729583E+01 -5.844109571E+02  6.214014974E+02  1.250000000E+02  0.00000E+00  9.000E+00
      21     1     1     2   501   512 -1.177623214E+00  2.137997291E+01 -1.955062023E+01  2.899511665E+01  5.840038640E-07  0.00000E+00  9.000E+00
#rwgt            1           1   2.1723483380409084E-002           3      310065           0
</event>
<event>
      5   9999  3.79277E-02  5.47628E+01 -1.00000E+00  1.36858E-01
      21    -1     0     0   511   501  0.000000000E+00  0.000000000E+00  1.836527792E+02  1.836527792E+02  0.000000000E+00  0.00000E+00  9.000E+00
      21    -1     0     0   501   502  0.000000000E+00  0.000000000E+00 -7.166060520E+02  7.166060520E+02  0.000000000E+00  0.00000E+00  9.000E+00
      25     1     1     2     0     0  1.363742504E+02  2.005149974E+02 -1.617235911E+01  2.732960768E+02  1.250000000E+02  0.00000E+00  9.000E+00
      25     1     1     2     0     0 -1.274650499E+02 -1.464818094E+02 -5.231290895E+02  5.718332831E+02  1.250000000E+02  0.00000E+00  9.000E+00
      21     1     1     2   511   502 -8.909200505E+00 -5.403318809E+01  6.348175877E+00  5.512947130E+01  3.576278687E-07  0.00000E+00  9.000E+00
#rwgt            1           1   3.7440031418806884E-002           3      310587           0
</event>
<event>
      5   9999  3.79277E-02  5.00801E+01 -1.00000E+00  1.39036E-01
      21    -1     0     0   512   501  0.000000000E+00  0.000000000E+00  1.483034729E+02  1.483034729E+02  0.000000000E+00  0.00000E+00  9.000E+00
      21    -1     0     0   501   502  0.000000000E+00  0.000000000E+00 -3.871523060E+02  3.871523060E+02  0.000000000E+00  0.00000E+00  9.000E+00
      25     1     1     2     0     0  2.329026426E+01 -2.523890364E+01 -2.992118900E+02  3.260861754E+02  1.250000000E+02  0.00000E+00  9.000E+00
      25     1     1     2     0     0  9.087715925E+00  6.344463583E+01  7.215303682E+01  1.579204519E+02  1.250000000E+02  0.00000E+00  9.000E+00
      21     1     1     2   512   502 -3.237798018E+01 -3.820573219E+01 -1.178997999E+01  5.144915161E+01  8.760057960E-07  0.00000E+00  9.000E+00
#rwgt            1           1   4.3910753148291438E-002           3      310757           0
</event>
<event>
      5   9999  3.79277E-02  2.19221E+01 -1.00000E+00  1.63147E-01
      21    -1     0     0   511   501  0.000000000E+00  0.000000000E+00  1.454411224E+02  1.454411224E+02  0.000000000E+00  0.00000E+00  9.000E+00
      21    -1     0     0   501   502  0.000000000E+00  0.000000000E+00 -1.353288847E+03  1.353288847E+03  0.000000000E+00  0.00000E+00  9.000E+00
      25     1     1     2     0     0  2.398257681E+01 -2.053156435E+02 -1.219783032E+03  1.243473089E+03  1.250000000E+02  0.00000E+00  9.000E+00
      25     1     1     2     0     0 -4.005304864E+01  1.904052412E+02  2.212523402E+00  2.312753723E+02  1.250000000E+02  0.00000E+00  9.000E+00
      21     1     1     2   511   502  1.607047182E+01  1.491040233E+01  9.722784655E+00  2.398150754E+01  3.153981341E-07  0.00000E+00  9.000E+00
#rwgt            1           1   8.2385567203721671E-002           3      310879           0
</event>
<event>
      5   9999  3.79277E-02  3.39449E+01 -1.00000E+00  1.49404E-01
      21    -1     0     0   502   512  0.000000000E+00  0.000000000E+00  1.854952449E+03  1.854952449E+03  0.000000000E+00  0.00000E+00  9.000E+00
      21    -1     0     0   501   502  0.000000000E+00  0.000000000E+00 -2.885161479E+01  2.885161479E+01  0.000000000E+00  0.00000E+00  9.000E+00
      25     1     1     2     0     0 -1.926117485E+01  1.634368227E+02  9.432515237E+02  9.656246812E+02  1.250000000E+02  0.00000E+00  9.000E+00
      25     1     1     2     0     0  5.082080616E+01 -1.509370469E+02  5.986163145E+02  6.319266085E+02  1.250000000E+02  0.00000E+00  9.000E+00
      21     1     1     2   501   512 -3.155963131E+01 -1.249977581E+01  2.842329962E+02  2.862527744E+02  0.000000000E+00  0.00000E+00  9.000E+00
#rwgt            1           1   4.2678878179168274E-002           3      311208           0
</event>
<event>
      5   9999  3.79277E-02  3.38116E+01 -1.00000E+00  1.49517E-01
      21    -1     0     0   511   501  0.000000000E+00  0.000000000E+00  1.439243695E+02  1.439243695E+02  0.000000000E+00  0.00000E+00  9.000E+00
      21    -1     0     0   501   502  0.000000000E+00  0.000000000E+00 -6.096357594E+02  6.096357594E+02  0.000000000E+00  0.00000E+00  9.000E+00
      25     1     1     2     0     0 -1.001173132E+02 -1.886202324E+00 -5.034389988E+02  5.283018642E+02  1.250000000E+02  0.00000E+00  9.000E+00
      25     1     1     2     0     0  1.083078860E+02  3.469071354E+01 -7.059220648E+00  1.691415868E+02  1.250000000E+02  0.00000E+00  9.000E+00
      21     1     1     2   511   502 -8.190572755E+00 -3.280451122E+01  4.478682956E+01  5.611667792E+01  1.168007728E-06  0.00000E+00  9.000E+00
#rwgt            1           1   4.0952473656138411E-002           3      311322           0
</event>
<event>
      5   9999  3.79277E-02  6.97067E+01 -1.00000E+00  1.31313E-01
       2    -1     0     0   502     0  0.000000000E+00  0.000000000E+00  2.596521921E+03  2.596521921E+03  0.000000000E+00  0.00000E+00  9.000E+00
      21    -1     0     0   501   502  0.000000000E+00  0.000000000E+00 -1.817707858E+02  1.817707858E+02  0.000000000E+00  0.00000E+00  9.000E+00
      25     1     1     2     0     0 -1.476006527E+02  2.277095156E+02  1.573200245E+02  3.376568765E+02  1.250000000E+02  0.00000E+00  9.000E+00
      25     1     1     2     0     0  1.652711118E+02 -1.602796993E+02  9.741833085E+01  2.794985753E+02  1.250000000E+02  0.00000E+00  9.000E+00
       2     1     1     2   501     0 -1.767045906E+01 -6.742981623E+01  2.160012780E+03  2.161137255E+03  0.000000000E+00  0.00000E+00  9.000E+00
#rwgt            1           1   3.4769869079258171E-002           3      311616           0
</event>
<event>
      5   9999  3.79277E-02  2.55080E+01 -1.00000E+00  1.58099E-01
      21    -1     0     0   502   511  0.000000000E+00  0.000000000E+00  2.554869331E+02  2.554869331E+02  0.000000000E+00  0.00000E+00  9.000E+00
      21    -1     0     0   501   502  0.000000000E+00  0.000000000E+00 -9.041506065E+02  9.041506065E+02  0.000000000E+00  0.00000E+00  9.000E+00
      25     1     1     2     0     0 -1.119963455E+02 -2.611134657E+02 -5.722066149E+02  6.509752941E+02  1.250000000E+02  0.00000E+00  9.000E+00
      25     1     1     2     0     0  1.083388260E+02  2.863578834E+02 -1.973479696E+02  3.851095425E+02  1.250000000E+02  0.00000E+00  9.000E+00
      21     1     1     2   501   511  3.657519529E+00 -2.524441768E+01  1.208909110E+02  1.235527031E+02  2.697398305E-06  0.00000E+00  9.000E+00
#rwgt            1           1   3.5463263837230023E-002           3      311738           0
</event>
<event>
      5   9999  3.79277E-02  2.63327E+01 -1.00000E+00  1.57080E-01
      21    -1     0     0   502   501  0.000000000E+00  0.000000000E+00  3.249082226E+02  3.249082226E+02  0.000000000E+00  0.00000E+00  9.000E+00
      21    -1     0     0   512   502  0.000000000E+00  0.000000000E+00 -1.226515792E+02  1.226515792E+02  0.000000000E+00  0.00000E+00  9.000E+00
      25     1     1     2     0     0  1.234499127E+02  2.375873751E+01  1.453886045E+02  2.292753909E+02  1.250000000E+02  0.00000E+00  9.000E+00
      25     1     1     2     0     0 -1.256633062E+02 -4.999827117E+01  5.322934156E+01  1.917014774E+02  1.250000000E+02  0.00000E+00  9.000E+00
      21     1     1     2   512   501  2.213393512E+00  2.623953366E+01  3.638697308E+00  2.658293354E+01  7.140128941E-07  0.00000E+00  9.000E+00
#rwgt            1           1   3.7858043712023538E-002           3      312114           0
</event>
<event>
      5   9999  3.79277E-02  1.19232E+02 -1.00000E+00  1.20487E-01
      21    -1     0     0   502   501  0.000000000E+00  0.000000000E+00  5.245962621E+02  5.245962621E+02  0.000000000E+00  0.00000E+00  9.000E+00
      21    -1     0     0   501   511  0.000000000E+00  0.000000000E+00 -3.047207292E+03  3.047207292E+03  0.000000000E+00  0.00000E+00  9.000E+00
      25     1     1     2     0     0 -1.009637273E+02  2.805915872E+02  3.411617677E+02  4.700443222E+02  1.250000000E+02  0.00000E+00  9.000E+00
      25     1     1     2     0     0  1.127835401E+02 -3.992366719E+02 -2.814190706E+02  5.166543723E+02  1.250000000E+02  0.00000E+00  9.000E+00
      21     1     1     2   502   511 -1.181981282E+01  1.186450847E+02 -2.582353727E+03  2.585104859E+03  3.051757812E-05  0.00000E+00  9.000E+00
#rwgt            1           1  0.44565962936885195                3      312274           0
</event>
<event>
      5   9999  3.79277E-02  3.00417E+01 -1.00000E+00  1.52998E-01
      21    -1     0     0   502   501  0.000000000E+00  0.000000000E+00  5.558660412E+02  5.558660412E+02  0.000000000E+00  0.00000E+00  9.000E+00
      21    -1     0     0   501   512  0.000000000E+00  0.000000000E+00 -6.638751793E+01  6.638751793E+01  0.000000000E+00  0.00000E+00  9.000E+00
      25     1     1     2     0     0  6.463229353E+01  5.884852380E+01  3.950812097E+02  4.235028269E+02  1.250000000E+02  0.00000E+00  9.000E+00
      25     1     1     2     0     0 -6.543530884E+01 -2.881759123E+01  8.525445793E+01  1.673486056E+02  1.250000000E+02  0.00000E+00  9.000E+00
      21     1     1     2   502   512  8.030153171E-01 -3.003093258E+01  9.142855579E+00  3.140212657E+01  7.633118912E-07  0.00000E+00  9.000E+00
#rwgt            1           1   3.6770675725451028E-002           3      312336           0
</event>
<event>
      5   9999  3.79277E-02  9.69222E+01 -1.00000E+00  1.24442E-01
      21    -1     0     0   502   511  0.000000000E+00  0.000000000E+00  1.673996194E+03  1.673996194E+03  0.000000000E+00  0.00000E+00  9.000E+00
      21    -1     0     0   501   502  0.000000000E+00  0.000000000E+00 -5.551739452E+01  5.551739452E+01  0.000000000E+00  0.00000E+00  9.000E+00
      25     1     1     2     0     0 -3.954550710E+01 -5.037725239E+01  6.548505626E+01  1.549677621E+02  1.250000000E+02  0.00000E+00  9.000E+00
      25     1     1     2     0     0  2.267737818E+00 -3.908941093E+01  1.239734328E+03  1.246635203E+03  1.250000000E+02  0.00000E+00  9.000E+00
      21     1     1     2   501   511  3.727776929E+01  8.946666332E+01  3.132594155E+02  3.279106240E+02  3.814697266E-06  0.00000E+00  9.000E+00
#rwgt            1           1   2.0136428861846085E-002           3      312535           0
</event>
<event>
      5   9999  3.79277E-02  2.03596E+01 -1.00000E+00  1.65733E-01
      21    -1     0     0   502   512  0.000000000E+00  0.000000000E+00  8.302496495E+01  8.302496495E+01  0.000000000E+00  0.00000E+00  9.000E+00
      21    -1     0     0   501   502  0.000000000E+00  0.000000000E+00 -7.997905779E+02  7.997905779E+02  0.000000000E+00  0.00000E+00  9.000E+00
      25     1     1     2     0     0 -1.604635233E+02 -1.235234713E+02 -3.801777237E+02  4.485160999E+02  1.250000000E+02  0.00000E+00  9.000E+00
      25     1     1     2     0     0  1.678752950E+02  1.424860738E+02 -3.198822087E+02  4.079632622E+02  1.250000000E+02  0.00000E+00  9.000E+00
      21     1     1     2   501   512 -7.411771679E+00 -1.896260245E+01 -1.670568052E+01  2.633618068E+01  0.000000000E+00  0.00000E+00  9.000E+00
#rwgt            1           1  0.23186476398305236                3      312707           0
</event>
<event>
      5   9999  3.79277E-02  8.32278E+01 -1.00000E+00  1.27523E-01
      21    -1     0     0   502   501  0.000000000E+00  0.000000000E+00  1.768126947E+02  1.768126947E+02  0.000000000E+00  0.00000E+00  9.000E+00
       2    -1     0     0   501     0  0.000000000E+00  0.000000000E+00 -1.079662734E+03  1.079662734E+03  0.000000000E+00  0.00000E+00  9.000E+00
      25     1     1     2     0     0  9.559046964E+01 -3.583525250E+02 -3.799792860E+02  5.454936551E+02  1.250000000E+02  0.00000E+00  9.000E+00
      25     1     1     2     0     0 -1.060453999E+02  2.757839878E+02 -2.011433069E+02  3.786635244E+02  1.250000000E+02  0.00000E+00  9.000E+00
       2     1     1     2   502     0  1.045493026E+01  8.256853711E+01 -3.217274462E+02  3.323182489E+02  7.629394531E-06  0.00000E+00  9.000E+00
#rwgt            1           1   4.0505387709279632E-002           3      312959           0
</event>
<event>
      5   9999  3.79277E-02  2.12378E+01 -1.00000E+00  1.64246E-01
      21    -1     0     0   502   511  0.000000000E+00  0.000000000E+00  2.938961550E+02  2.938961550E+02  0.000000000E+00  0.00000E+00  9.000E+00
      21    -1     0     0   501   502  0.000000000E+00  0.000000000E+00 -2.891386847E+02  2.891386847E+02  0.000000000E+00  0.00000E+00  9.000E+00
      25     1     1     2     0     0 -8.864629811E+01  9.617944435E+01  9.056870812E+01  2.023273154E+02  1.250000000E+02  0.00000E+00  9.000E+00
      25     1     1     2     0     0  8.521605962E+01 -7.522050093E+01 -2.015726163E+02  2.630141065E+02  1.250000000E+02  0.00000E+00  9.000E+00
      21     1     1     2   501   511  3.430238493E+00 -2.095894342E+01  1.157613784E+02  1.176934177E+02  1.348699152E-06  0.00000E+00  9.000E+00
#rwgt            1           1   3.7802373567813095E-002           3      313049           0
</event>
<event>
      5   9999  3.79277E-02  8.11746E+01 -1.00000E+00  1.28044E-01
      21    -1     0     0   502   501  0.000000000E+00  0.000000000E+00  8.479386812E+02  8.479386812E+02  0.000000000E+00  0.00000E+00  9.000E+00
      21    -1     0     0   501   512  0.000000000E+00  0.000000000E+00 -1.211889409E+02  1.211889409E+02  0.000000000E+00  0.00000E+00  9.000E+00
      25     1     1     2     0     0  2.012997418E+02 -3.615275469E+01  1.439353645E+02  2.795907668E+02  1.250000000E+02  0.00000E+00  9.000E+00
      25     1     1     2     0     0 -1.214772406E+02  5.090689504E+01  5.805984889E+02  6.083320124E+02  1.250000000E+02  0.00000E+00  9.000E+00
      21     1     1     2   502   512 -7.982250122E+01 -1.475414035E+01  2.215886853E+00  8.120484291E+01  1.477245537E-06  0.00000E+00  9.000E+00
#rwgt            1           1   2.7450977881198903E-002           3      313307           0
</event>
<event>
      5   9999  3.79277E-02  4.89476E+00 -1.00000E+00  2.44389E-01
      21    -1     0     0   502   501  0.000000000E+00  0.000000000E+00  5.031166387E+01  5.031166387E+01  0.000000000E+00  0.00000E+00  9.000E+00
      21    -1     0     0   511   502  0.000000000E+00  0.000000000E+00 -7.410816762E+02  7.410816762E+02  0.000000000E+00  0.00000E+00  9.000E+00
      25     1     1     2     0     0  5.270791096E+01  7.595288750E+01 -5.584014355E+02  5.796413790E+02  1.250000000E+02  0.00000E+00  9.000E+00
      25     1     1     2     0     0 -5.419779969E+01 -8.061539264E+01 -1.206173709E+02  1.990220922E+02  1.250000000E+02  0.00000E+00  9.000E+00
      21     1     1     2   511   501  1.489888734E+00  4.662505133E+00 -1.175120596E+01  1.272986898E+01  1.685873940E-07  0.00000E+00  9.000E+00
#rwgt            1           1   2.7120065149195915E-002           3      313391           0
</event>
<event>
      5   9999  3.79277E-02  3.01077E+01 -1.00000E+00  1.52932E-01
      21    -1     0     0   502   501  0.000000000E+00  0.000000000E+00  1.474837011E+02  1.474837011E+02  0.000000000E+00  0.00000E+00  9.000E+00
      21    -1     0     0   512   502  0.000000000E+00  0.000000000E+00 -4.514326910E+02  4.514326910E+02  0.000000000E+00  0.00000E+00  9.000E+00
      25     1     1     2     0     0 -1.118312954E+02 -1.472648352E+02 -1.045235744E+02  2.464616561E+02  1.250000000E+02  0.00000E+00  9.000E+00
      25     1     1     2     0     0  8.205609126E+01  1.428025692E+02 -6.804935525E+01  2.176728982E+02  1.250000000E+02  0.00000E+00  9.000E+00
      21     1     1     2   512   501  2.977520419E+01  4.462265996E+00 -1.313760602E+02  1.347818378E+02  1.907348633E-06  0.00000E+00  9.000E+00
#rwgt            1           1  0.11585921471089097                3      313780           0
</event>
<event>
      5   9999  3.79277E-02  2.51526E+01 -1.00000E+00  1.58553E-01
       2    -1     0     0   502     0  0.000000000E+00  0.000000000E+00  1.409730103E+03  1.409730103E+03  0.000000000E+00  0.00000E+00  9.000E+00
      21    -1     0     0   501   502  0.000000000E+00  0.000000000E+00 -6.699984257E+02  6.699984257E+02  0.000000000E+00  0.00000E+00  9.000E+00
      25     1     1     2     0     0  2.836648459E+02  4.037430712E+00 -2.086474497E+02  3.736854345E+02  1.250000000E+02  0.00000E+00  9.000E+00
      25     1     1     2     0     0 -2.698003347E+02 -2.502383180E+01 -3.199261332E+02  4.374884495E+02  1.250000000E+02  0.00000E+00  9.000E+00
       2     1     1     2   501     0 -1.386451126E+01  2.098640108E+01  1.268305260E+03  1.268554645E+03  3.051757812E-05  0.00000E+00  9.000E+00
#rwgt            1           1   6.0925910242793688E-002           3      313936           0
</event>
<event>
      5   9999  3.79277E-02  1.87450E+02 -1.00000E+00  1.12682E-01
      21    -1     0     0   502   501  0.000000000E+00  0.000000000E+00  5.105291235E+02  5.105291235E+02  0.000000000E+00  0.00000E+00  9.000E+00
      21    -1     0     0   511   502  0.000000000E+00  0.000000000E+00 -2.224123634E+02  2.224123634E+02  0.000000000E+00  0.00000E+00  9.000E+00
      25     1     1     2     0     0  2.977853325E+01  9.416144315E+01  3.368266133E+02  3.725993906E+02  1.250000000E+02  0.00000E+00  9.000E+00
      25     1     1     2     0     0  7.593573124E+01  6.063514344E+01 -6.716579838E+01  1.719857563E+02  1.250000000E+02  0.00000E+00  9.000E+00
      21     1     1     2   511   501 -1.057142645E+02 -1.547965866E+02  1.845594516E+01  1.883563401E+02  1.936921693E-06  0.00000E+00  9.000E+00
#rwgt            1           1   1.1199217330421453E-002           3      314149           0
</event>
<event>
      5   9999  3.79277E-02  2.18770E+01 -1.00000E+00  1.63218E-01
      21    -1     0     0   512   501  0.000000000E+00  0.000000000E+00  6.632489907E+01  6.632489907E+01  0.000000000E+00  0.00000E+00  9.000E+00
      21    -1     0     0   501   502  0.000000000E+00  0.000000000E+00 -6.509535650E+02  6.509535650E+02  0.000000000E+00  0.00000E+00  9.000E+00
      25     1     1     2     0     0  1.142004277E+02  4.195878125E+01 -4.086044159E+02  4.442801432E+02  1.250000000E+02  0.00000E+00  9.000E+00
      25     1     1     2     0     0 -1.240323951E+02 -6.150192688E+01 -1.531096853E+02  2.413174212E+02  1.250000000E+02  0.00000E+00  9.000E+00
      21     1     1     2   512   502  9.831967396E+00  1.954314562E+01 -2.291456478E+01  3.168089965E+01  5.840038640E-07  0.00000E+00  9.000E+00
#rwgt            1           1   2.3763960231587326E-002           3      314255           0
</event>
<event>
      5   9999  3.79277E-02  1.56726E+01 -1.00000E+00  1.75608E-01
      21    -1     0     0   511   501  0.000000000E+00  0.000000000E+00  6.247711751E+02  6.247711751E+02  0.000000000E+00  0.00000E+00  9.000E+00
      21    -1     0     0   501   502  0.000000000E+00  0.000000000E+00 -8.534216707E+01  8.534216707E+01  0.000000000E+00  0.00000E+00  9.000E+00
      25     1     1     2     0     0  2.945296735E+01  8.874898695E+01  4.810074471E+02  5.057044830E+02  1.250000000E+02  0.00000E+00  9.000E+00
      25     1     1     2     0     0 -3.316185813E+01 -1.039764064E+02  2.542004028E+01  1.678748950E+02  1.250000000E+02  0.00000E+00  9.000E+00
      21     1     1     2   511   502  3.708890786E+00  1.522741943E+01  3.300152057E+01  3.653396411E+01  0.000000000E+00  0.00000E+00  9.000E+00
#rwgt            1           1   4.4018490281309379E-002           3      314592           0
</event>
<event>
      5   9999  3.79277E-02  3.24912E+01 -1.00000E+00  1.50672E-01
      21    -1     0     0   512   501  0.000000000E+00  0.000000000E+00  3.043181774E+01  3.043181774E+01  0.000000000E+00  0.00000E+00  9.000E+00
      21    -1     0     0   501   502  0.000000000E+00  0.000000000E+00 -1.589921788E+03  1.589921788E+03  0.000000000E+00  0.00000E+00  9.000E+00
      25     1     1     2     0     0  6.836732426E+01 -1.052626262E+02 -9.010677766E+02  9.183150056E+02  1.250000000E+02  0.00000E+00  9.000E+00
      25     1     1     2     0     0 -6.397082895E+01  1.374549664E+02 -6.260914897E+02  6.562024750E+02  1.250000000E+02  0.00000E+00  9.000E+00
      21     1     1     2   512   502 -4.396495310E+00 -3.219234017E+01 -3.233070364E+01  4.583612478E+01  4.768371582E-07  0.00000E+00  9.000E+00
#rwgt            1           1   4.6875736094679966E-002           3      314759           0
</event>
<event>
      5   9999  3.79277E-02  7.51634E+01 -1.00000E+00  1.29674E-01
      21    -1     0     0   502   501  0.000000000E+00  0.000000000E+00  5.693323786E+02  5.693323786E+02  0.000000000E+00  0.00000E+00  9.000E+00
      21    -1     0     0   511   502  0.000000000E+00  0.000000000E+00 -9.622474242E+01  9.622474242E+01  0.000000000E+00  0.00000E+00  9.000E+00
      25     1     1     2     0     0 -6.856077033E+01  1.548343395E+01  4.205747101E+02  4.443516656E+02  1.250000000E+02  0.00000E+00  9.000E+00
      25     1     1     2     0     0  9.060670849E+00 -6.141034304E+01  3.806003972E+01  1.446613031E+02  1.250000000E+02  0.00000E+00  9.000E+00
      21     1     1     2   511   501  5.950009948E+01  4.592690909E+01  1.447288637E+01  7.654415233E+01  1.710975181E-06  0.00000E+00  9.000E+00
#rwgt            1           1   4.8725212767294593E-002           3      314993           0
</event>
<event>
      5   9999  3.79277E-02  3.72228E+01 -1.00000E+00  1.46805E-01
      21    -1     0     0   502   501  0.000000000E+00  0.000000000E+00  2.198507766E+02  2.198507766E+02  0.000000000E+00  0.00000E+00  9.000E+00
      21    -1     0     0   512   502  0.000000000E+00  0.000000000E+00 -2.494272087E+02  2.494272087E+02  0.000000000E+00  0.00000E+00  9.000E+00
      25     1     1     2     0     0  1.030416700E+01  1.128942267E+02  1.084291497E+02  2.005820600E+02  1.250000000E+02  0.00000E+00  9.000E+00
      25     1     1     2     0     0  1.154425345E+01 -1.430302520E+02 -1.304255125E+02  2.307092046E+02  1.250000000E+02  0.00000E+00  9.000E+00
      21     1     1     2   512   501 -2.184842045E+01  3.013602530E+01 -7.580069218E+00  3.798672066E+01  4.460403188E-07  0.00000E+00  9.000E+00
#rwgt            1           1   4.3335159523751339E-002           3      315106           0
</event>
<event>
      5   9999  3.79277E-02  1.86023E+02 -1.00000E+00  1.12806E-01
      21    -1     0     0   502   501  0.000000000E+00  0.000000000E+00  1.697708907E+02  1.697708907E+02  0.000000000E+00  0.00000E+00  9.000E+00
      21    -1     0     0   501   511  0.000000000E+00  0.000000000E+00 -6.889797223E+02  6.889797223E+02  0.000000000E+00  0.00000E+00  9.000E+00
      25     1     1     2     0     0 -9.534056950E+01 -1.775921666E+02 -2.264988242E+02  3.279565813E+02  1.250000000E+02  0.00000E+00  9.000E+00
      25     1     1     2     0     0  1.443548334E+02 -1.857215015E+00 -8.542693182E+00  1.911537203E+02  1.250000000E+02  0.00000E+00  9.000E+00
      21     1     1     2   502   511 -4.901426392E+01  1.794493817E+02 -2.841673142E+02  3.396403114E+02  6.607249480E-06  0.00000E+00  9.000E+00
#rwgt            2          11   1.8012051308479117E-003           3      315349           0
</event>
<event>
      5   9999  3.79277E-02  1.04348E+02 -1.00000E+00  1.23002E-01
      21    -1     0     0   502   501  0.000000000E+00  0.000000000E+00  4.025142684E+02  4.025142684E+02  0.000000000E+00  0.00000E+00  9.000E+00
      21    -1     0     0   512   502  0.000000000E+00  0.000000000E+00 -2.570616295E+02  2.570616295E+02  0.000000000E+00  0.00000E+00  9.000E+00
      25     1     1     2     0     0 -2.523176753E+01  1.069394011E+02  3.088505740E+02  3.508366495E+02  1.250000000E+02  0.00000E+00  9.000E+00
      25     1     1     2     0     0 -4.278481102E+00 -6.851637225E+00 -1.334329020E+01  1.259694158E+02  1.250000000E+02  0.00000E+00  9.000E+00
      21     1     1     2   512   501  2.951024863E+01 -1.000877638E+02 -1.500546449E+02  1.827698325E+02  1.907348633E-06  0.00000E+00  9.000E+00
#rwgt            1           1   4.6211596041477142E-002           3      315384           0
</event>
<event>
      5   9999  3.79277E-02  8.45179E+01 -1.00000E+00  1.27205E-01
      21    -1     0     0   502   501  0.000000000E+00  0.000000000E+00  7.523334285E+01  7.523334285E+01  0.000000000E+00  0.00000E+00  9.000E+00
      -1    -1     0     0     0   502  0.000000000E+00  0.000000000E+00 -1.168127907E+03  1.168127907E+03  0.000000000E+00  0.00000E+00  9.000E+00
      25     1     1     2     0     0 -4.499889011E+00 -1.643288269E+02 -4.541659256E+02  4.989147225E+02  1.250000000E+02  0.00000E+00  9.000E+00
      25     1     1     2     0     0  7.568279154E+01  2.098950222E+02 -2.947599155E+02  3.902463492E+02  1.250000000E+02  0.00000E+00  9.000E+00
      -1     1     1     2     0   501 -7.118290253E+01 -4.556619524E+01 -3.439687230E+02  3.542001781E+02  0.000000000E+00  0.00000E+00  9.000E+00
#rwgt            1           1   4.2628787440233976E-002           3      315437           0
</event>
<event>
      5   9999  3.79277E-02  5.89072E+00 -1.00000E+00  2.26719E-01
      21    -1     0     0   502   501  0.000000000E+00  0.000000000E+00  7.725836971E+02  7.725836971E+02  0.000000000E+00  0.00000E+00  9.000E+00
      21    -1     0     0   511   502  0.000000000E+00  0.000000000E+00 -1.449827389E+02  1.449827389E+02  0.000000000E+00  0.00000E+00  9.000E+00
      25     1     1     2     0     0 -1.076883487E+02  7.242997790E+01  6.991838948E+02  7.220290859E+02  1.250000000E+02  0.00000E+00  9.000E+00
      25     1     1     2     0     0  1.027763709E+02 -6.917835925E+01 -6.820850161E+01  1.887485828E+02  1.250000000E+02  0.00000E+00  9.000E+00
      21     1     1     2   511   501  4.911977842E+00 -3.251618653E+00 -3.374434944E+00  6.788767294E+00  1.032382731E-07  0.00000E+00  9.000E+00
#rwgt            1           1   4.7728397359576687E-002           3      315508           0
</event>
<event>
      5   9999  3.79277E-02  7.04049E+01 -1.00000E+00  1.31094E-01
      21    -1     0     0   512   501  0.000000000E+00  0.000000000E+00  3.503536535E+02  3.503536535E+02  0.000000000E+00  0.00000E+00  9.000E+00
      21    -1     0     0   501   502  0.000000000E+00  0.000000000E+00 -1.734928639E+03  1.734928639E+03  0.000000000E+00  0.00000E+00  9.000E+00
      25     1     1     2     0     0  1.107445286E+02 -9.327186263E+01 -1.173214970E+03  1.188706170E+03  1.250000000E+02  0.00000E+00  9.000E+00
      25     1     1     2     0     0 -1.440242527E+02  1.553146179E+02 -5.225415305E+02  5.775294512E+02  1.250000000E+02  0.00000E+00  9.000E+00
      21     1     1     2   512   502  3.327972417E+01 -6.204275526E+01  3.111815151E+02  3.190466720E+02  7.629394531E-06  0.00000E+00  9.000E+00
#rwgt            1           1   3.1843952292046784E-002           3      316131           0
</event>
<event>
      5   9999  3.79277E-02  1.07703E+02 -1.00000E+00  1.22396E-01
      21    -1     0     0   502   511  0.000000000E+00  0.000000000E+00  1.837718615E+03  1.837718615E+03  0.000000000E+00  0.00000E+00  9.000E+00
      21    -1     0     0   501   502  0.000000000E+00  0.000000000E+00 -1.245151356E+02  1.245151356E+02  0.000000000E+00  0.00000E+00  9.000E+00
      25     1     1     2     0     0 -9.762704226E+01 -1.072817342E+02  7.305319141E+01  2.049443306E+02  1.250000000E+02  0.00000E+00  9.000E+00
      25     1     1     2     0     0  1.507131341E+02  1.357012523E+01  1.132665337E+02  2.266117930E+02  1.250000000E+02  0.00000E+00  9.000E+00
      21     1     1     2   501   511 -5.308609183E+01  9.371160898E+01  1.526883754E+03  1.530677627E+03  2.157918644E-05  0.00000E+00  9.000E+00
#rwgt            1           1   4.1626924814537149E-002           3      316199           0
</event>
<event>
      5   9999  3.79277E-02  3.48256E+01 -1.00000E+00  1.48673E-01
      21    -1     0     0   502   501  0.000000000E+00  0.000000000E+00  2.628686224E+02  2.628686224E+02  0.000000000E+00  0.00000E+00  9.000E+00
      21    -1     0     0   501   512  0.000000000E+00  0.000000000E+00 -1.384440329E+02  1.384440329E+02  0.000000000E+00  0.00000E+00  9.000E+00
      25     1     1     2     0     0  9.447685474E+01  3.115887520E+01  7.535858949E+01  1.766371099E+02  1.250000000E+02  0.00000E+00  9.000E+00
      25     1     1     2     0     0 -1.194938924E+02 -5.538635265E+01  5.414579085E+01  1.894814108E+02  1.250000000E+02  0.00000E+00  9.000E+00
      21     1     1     2   502   512  2.501703767E+01  2.422747745E+01 -5.079790813E+00  3.519413462E+01  6.391886052E-07  0.00000E+00  9.000E+00
#rwgt            1           1   4.1276961088380325E-002           3      316288           0
</event>
<event>
      5   9999  3.79277E-02  1.72077E+01 -1.00000E+00  1.71944E-01
      21    -1     0     0   511   501  0.000000000E+00  0.000000000E+00  5.031199070E+01  5.031199070E+01  0.000000000E+00  0.00000E+00  9.000E+00
      21    -1     0     0   501   502  0.000000000E+00  0.000000000E+00 -9.468182097E+02  9.468182097E+02  0.000000000E+00  0.00000E+00  9.000E+00
      25     1     1     2     0     0  1.223638040E+02 -8.685935431E+01 -3.625910406E+02  4.118430656E+02  1.250000000E+02  0.00000E+00  9.000E+00
      25     1     1     2     0     0 -1.367465643E+02  7.741264046E+01 -5.311792601E+02  5.678633164E+02  1.250000000E+02  0.00000E+00  9.000E+00
      21     1     1     2   511   502  1.438276033E+01  9.446713845E+00 -2.735918233E+00  1.742381835E+01  7.300048300E-08  0.00000E+00  9.000E+00
#rwgt            1           1   4.1402015535681833E-002           3      316483           0
</event>
<event>
      5   9999  3.79277E-02  1.88139E+01 -1.00000E+00  1.68590E-01
      21    -1     0     0   512   501  0.000000000E+00  0.000000000E+00  7.126130960E+02  7.126130960E+02  0.000000000E+00  0.00000E+00  9.000E+00
      21    -1     0     0   501   502  0.000000000E+00  0.000000000E+00 -1.134442744E+02  1.134442744E+02  0.000000000E+00  0.00000E+00  9.000E+00
      25     1     1     2     0     0  8.602408590E+01 -5.593615204E+01  1.003014501E+02  1.903007550E+02  1.250000000E+02  0.00000E+00  9.000E+00
      25     1     1     2     0     0 -9.927631569E+01  6.929053375E+01  4.267103138E+01  1.791724919E+02  1.250000000E+02  0.00000E+00  9.000E+00
      21     1     1     2   512   502  1.325222979E+01 -1.335438171E+01  4.561963401E+02  4.565841235E+02  5.394796609E-06  0.00000E+00  9.000E+00
#rwgt            1           1   4.6527102650845580E-002           3      316641           0
</event>
<event>
      5   9999  3.79277E-02  2.17897E+01 -1.00000E+00  1.63355E-01
      21    -1     0     0   511   501  0.000000000E+00  0.000000000E+00  9.659424388E+02  9.659424388E+02  0.000000000E+00  0.00000E+00  9.000E+00
      21    -1     0     0   501   502  0.000000000E+00  0.000000000E+00 -4.944916734E+01  4.944916734E+01  0.000000000E+00  0.00000E+00  9.000E+00
      25     1     1     2     0     0 -1.097443616E+02  7.789966449E+01  2.855252738E+02  3.395023779E+02  1.250000000E+02  0.00000E+00  9.000E+00
      25     1     1     2     0     0  1.105466605E+02 -5.612472666E+01  3.290695890E+02  3.732054977E+02  1.250000000E+02  0.00000E+00  9.000E+00
      21     1     1     2   511   502 -8.022988989E-01 -2.177493783E+01  3.018984087E+02  3.026837306E+02  0.000000000E+00  0.00000E+00  9.000E+00
#rwgt            1           1   4.3859702119148976E-002           3      316817           0
</event>
<event>
      5   9999  3.79277E-02  2.36241E+01 -1.00000E+00  1.60615E-01
      21    -1     0     0   502   501  0.000000000E+00  0.000000000E+00  2.149023556E+02  2.149023556E+02  0.000000000E+00  0.00000E+00  9.000E+00
       1    -1     0     0   501     0  0.000000000E+00  0.000000000E+00 -6.822654705E+02  6.822654705E+02  0.000000000E+00  0.00000E+00  9.000E+00
      25     1     1     2     0     0 -9.700323715E+01  1.631432046E+02  3.250684337E+01  2.295801126E+02  1.250000000E+02  0.00000E+00  9.000E+00
      25     1     1     2     0     0  7.421559445E+01 -1.693738928E+02 -6.555761922E+01  2.326333413E+02  1.250000000E+02  0.00000E+00  9.000E+00
       1     1     1     2   502     0  2.278764270E+01  6.230688174E+00 -4.343123391E+02  4.349543723E+02  5.394796609E-06  0.00000E+00  9.000E+00
#rwgt            1           1   1.8516249797557820E-002           3      316951           0
</event>
<event>
      5   9999  3.79277E-02  2.10278E+01 -1.00000E+00  1.64593E-01
      21    -1     0     0   502   501  0.000000000E+00  0.000000000E+00  1.196974632E+02  1.196974632E+02  0.000000000E+00  0.00000E+00  9.000E+00
      21    -1     0     0   501   511  0.000000000E+00  0.000000000E+00 -5.465834540E+02  5.465834540E+02  0.000000000E+00  0.00000E+00  9.000E+00
      25     1     1     2     0     0  1.770219759E+02  1.751909859E+01 -3.182917100E+02  3.854585729E+02  1.250000000E+02  0.00000E+00  9.000E+00
      25     1     1     2     0     0 -1.700289867E+02  2.311800915E+00 -4.765750928E+01  2.163595132E+02  1.250000000E+02  0.00000E+00  9.000E+00
      21     1     1     2   502   511 -6.992989166E+00 -1.983089951E+01 -6.093677156E+01  6.446283115E+01  6.743495762E-07  0.00000E+00  9.000E+00
#rwgt            1           1   3.1636363896053704E-002           3      317180           0
</event>
<event>
      5   9999  3.79277E-02  8.53371E+01 -1.00000E+00  1.27006E-01
      21    -1     0     0   502   501  0.000000000E+00  0.000000000E+00  1.134012321E+03  1.134012321E+03  0.000000000E+00  0.00000E+00  9.000E+00
      21    -1     0     0   512   502  0.000000000E+00  0.000000000E+00 -2.215178835E+02  2.215178835E+02  0.000000000E+00  0.00000E+00  9.000E+00
      25     1     1     2     0     0  1.880504169E+01  3.549050877E+02  6.301155019E+02  7.341537963E+02  1.250000000E+02  0.00000E+00  9.000E+00
      25     1     1     2     0     0 -7.766748397E+01 -4.166921060E+02  3.001490406E+02  5.342087568E+02  1.250000000E+02  0.00000E+00  9.000E+00
      21     1     1     2   512   501  5.886244227E+01  6.178701836E+01 -1.777010540E+01  8.716765107E+01  6.743495762E-07  0.00000E+00  9.000E+00
#rwgt            1           1   1.5905232103543211E-002           3      317423           0
</event>
<event>
      5   9999  3.79277E-02  1.18181E+02 -1.00000E+00  1.20651E-01
      21    -1     0     0   502   501  0.000000000E+00  0.000000000E+00  8.436484408E+01  8.436484408E+01  0.000000000E+00  0.00000E+00  9.000E+00
       2    -1     0     0   501     0  0.000000000E+00  0.000000000E+00 -2.835064094E+03  2.835064094E+03  0.000000000E+00  0.00000E+00  9.000E+00
      25     1     1     2     0     0 -4.220752885E+01  2.412275783E+02 -5.096436731E+02  5.790802134E+02  1.250000000E+02  0.00000E+00  9.000E+00
      25     1     1     2     0     0  1.186355535E+02 -1.510863690E+02 -2.261447783E+02  3.219750708E+02  1.250000000E+02  0.00000E+00  9.000E+00
       2     1     1     2   502     0 -7.642802469E+01 -9.014120927E+01 -2.014910799E+03  2.018373654E+03  2.157918644E-05  0.00000E+00  9.000E+00
#rwgt            1           1  0.24491310611904524                3      317639           0
</event>
<event>
      5   9999  3.79277E-02  1.29142E+02 -1.00000E+00  1.19030E-01
      21    -1     0     0   502   511  0.000000000E+00  0.000000000E+00  1.883579445E+02  1.883579445E+02  0.000000000E+00  0.00000E+00  9.000E+00
      21    -1     0     0   501   502  0.000000000E+00  0.000000000E+00 -1.099193623E+03  1.099193623E+03  0.000000000E+00  0.00000E+00  9.000E+00
      25     1     1     2     0     0  8.089255950E+01  9.426581591E+01 -7.825681044E+02  8.021642527E+02  1.250000000E+02  0.00000E+00  9.000E+00
      25     1     1     2     0     0 -1.959245979E+02 -3.557030451E+01 -2.239200993E+02  3.246796968E+02  1.250000000E+02  0.00000E+00  9.000E+00
      21     1     1     2   501   511  1.150320384E+02 -5.869551140E+01  9.565252515E+01  1.607076180E+02  2.697398305E-06  0.00000E+00  9.000E+00
#rwgt            1           1   2.7801348381641024E-002           3      317892           0
</event>
<event>
      5   9999  3.79277E-02  1.61518E+01 -1.00000E+00  1.74409E-01
      21    -1     0     0   512   501  0.000000000E+00  0.000000000E+00  1.507204532E+03  1.507204532E+03  0.000000000E+00  0.00000E+00  9.000E+00
      21    -1     0     0   501   502  0.000000000E+00  0.000000000E+00 -3.226333288E+01  3.226333288E+01  0.000000000E+00  0.00000E+00  9.000E+00
      25     1     1     2     0     0 -3.760577520E+01  8.132214945E+01  1.923876554E+02  2.463036668E+02  1.250000000E+02  0.00000E+00  9.000E+00
      25     1     1     2     0     0  2.856099442E+01 -6.794029859E+01  1.218312265E+03  1.226923547E+03  1.250000000E+02  0.00000E+00  9.000E+00
      21     1     1     2   512   502  9.044780786E+00 -1.338185086E+01  6.424127793E+01  6.624065053E+01  9.536743164E-07  0.00000E+00  9.000E+00
#rwgt            1           1   5.1922914426714151E-002           3      318008           0
</event>
<event>
      5   9999  3.79277E-02  1.19073E+02 -1.00000E+00  1.20511E-01
      21    -1     0     0   511   501  0.000000000E+00  0.000000000E+00  2.706115142E+02  2.706115142E+02  0.000000000E+00  0.00000E+00  9.000E+00
      21    -1     0     0   501   502  0.000000000E+00  0.000000000E+00 -1.101830042E+03  1.101830042E+03  0.000000000E+00  0.00000E+00  9.000E+00
      25     1     1     2     0     0  3.472165239E+02  1.714447138E+01 -4.770848174E+02  6.033971912E+02  1.250000000E+02  0.00000E+00  9.000E+00
      25     1     1     2     0     0 -2.930869547E+02 -1.232032514E+02 -4.842787301E+02  5.926465157E+02  1.250000000E+02  0.00000E+00  9.000E+00
      21     1     1     2   511   502 -5.412956921E+01  1.060587800E+02  1.301450197E+02  1.763978493E+02  2.697398305E-06  0.00000E+00  9.000E+00
#rwgt            1           1   3.7756310183524232E-002           3      318183           0
</event>
<event>
      5   9999  3.79277E-02  7.50278E+00 -1.00000E+00  2.11382E-01
      21    -1     0     0   502   512  0.000000000E+00  0.000000000E+00  3.406091058E+02  3.406091058E+02  0.000000000E+00  0.00000E+00  9.000E+00
      21    -1     0     0   501   502  0.000000000E+00  0.000000000E+00 -3.748469177E+02  3.748469177E+02  0.000000000E+00  0.00000E+00  9.000E+00
      25     1     1     2     0     0  2.334439910E+02  2.167635594E+02  7.212050286E+01  3.497269000E+02  1.250000000E+02  0.00000E+00  9.000E+00
      25     1     1     2     0     0 -2.279926310E+02 -2.219185940E+02 -1.070144618E+02  3.581977069E+02  1.250000000E+02  0.00000E+00  9.000E+00
      21     1     1     2   501   512 -5.451359998E+00  5.155034665E+00  6.561470493E-01  7.531416678E+00  7.261927683E-08  0.00000E+00  9.000E+00
#rwgt            1           1   2.5854855654833111E-002           3      318265           0
</event>
<event>
      5   9999  3.79277E-02  4.03890E+01 -1.00000E+00  1.44580E-01
      21    -1     0     0   502   511  0.000000000E+00  0.000000000E+00  1.411853784E+03  1.411853784E+03  0.000000000E+00  0.00000E+00  9.000E+00
      21    -1     0     0   501   502  0.000000000E+00  0.000000000E+00 -5.482965079E+01  5.482965079E+01  0.000000000E+00  0.00000E+00  9.000E+00
      25     1     1     2     0     0  1.594432366E+02  7.425725559E+00  4.881635193E+02  5.285886006E+02  1.250000000E+02  0.00000E+00  9.000E+00
      25     1     1     2     0     0 -1.997335758E+02 -4.603833418E+00  3.771395371E+02  4.447178060E+02  1.250000000E+02  0.00000E+00  9.000E+00
      21     1     1     2   501   511  4.029033920E+01 -2.821892141E+00  4.917210764E+02  4.933770277E+02  0.000000000E+00  0.00000E+00  9.000E+00
#rwgt            1           1   2.2497095556481904E-002           3      318587           0
</event>
<event>
      5   9999  3.79277E-02  1.46285E+01 -1.00000E+00  1.78416E-01
      21    -1     0     0   502   501  0.000000000E+00  0.000000000E+00  6.157232928E+02  6.157232928E+02  0.000000000E+00  0.00000E+00  9.000E+00
      21    -1     0     0   512   502  0.000000000E+00  0.000000000E+00 -1.232211718E+02  1.232211718E+02  0.000000000E+00  0.00000E+00  9.000E+00
      25     1     1     2     0     0  1.338868458E+02 -1.411005861E+02  7.949728567E+01  2.444992461E+02  1.250000000E+02  0.00000E+00  9.000E+00
      25     1     1     2     0     0 -1.261988092E+02  1.535459215E+02  4.176276465E+02  4.791036846E+02  1.250000000E+02  0.00000E+00  9.000E+00
      21     1     1     2   512   501 -7.688036613E+00 -1.244533534E+01 -4.622811191E+00  1.534153389E+01  1.032382731E-07  0.00000E+00  9.000E+00
#rwgt            1           1   2.9534954122636122E-002           3      318736           0
</event>
<event>
      5   9999  3.79277E-02  3.08537E+01 -1.00000E+00  1.52198E-01
      21    -1     0     0   502   511  0.000000000E+00  0.000000000E+00  2.333968338E+03  2.333968338E+03  0.000000000E+00  0.00000E+00  9.000E+00
      21    -1     0     0   501   502  0.000000000E+00  0.000000000E+00 -5.356782710E+01  5.356782710E+01  0.000000000E+00  0.00000E+00  9.000E+00
      25     1     1     2     0     0 -1.382985618E+02  1.927524316E+02  1.118910725E+03  1.150593848E+03  1.250000000E+02  0.00000E+00  9.000E+00
      25     1     1     2     0     0  1.292553624E+02 -2.222510961E+02  5.095090867E+02  5.842319812E+02  1.250000000E+02  0.00000E+00  9.000E+00
      21     1     1     2   501   511  9.043199409E+00  2.949866451E+01  6.519806991E+02  6.527103360E+02  7.629394531E-06  0.00000E+00  9.000E+00
#rwgt            1           1   5.0912727248361357E-002           3      318988           0
</event>
<event>
      5   9999  3.79277E-02  6.08640E+01 -1.00000E+00  1.34372E-01
      21    -1     0     0   502   501  0.000000000E+00  0.000000000E+00  1.528905739E+02  1.528905739E+02  0.000000000E+00  0.00000E+00  9.000E+00
      21    -1     0     0   512   502  0.000000000E+00  0.000000000E+00 -2.315402188E+02  2.315402188E+02  0.000000000E+00  0.00000E+00  9.000E+00
      25     1     1     2     0     0  1.595735485E+01 -8.968238889E+00 -1.162651947E+02  1.716905995E+02  1.250000000E+02  0.00000E+00  9.000E+00
      25     1     1     2     0     0  4.310814489E+01 -5.718451288E+00  6.326563564E+01  1.466920362E+02  1.250000000E+02  0.00000E+00  9.000E+00
      21     1     1     2   512   501 -5.906549973E+01  1.468669018E+01 -2.565008594E+01  6.604815694E+01  5.840038640E-07  0.00000E+00  9.000E+00
#rwgt            1           1   4.0933486110366388E-002           3      319245           0
</event>
<event>
      5   9999  3.79277E-02  8.82510E+01 -1.00000E+00  1.26320E-01
      21    -1     0     0   502   511  0.000000000E+00  0.000000000E+00  8.293657231E+01  8.293657231E+01  0.000000000E+00  0.00000E+00  9.000E+00
      21    -1     0     0   501   502  0.000000000E+00  0.000000000E+00 -1.515182252E+03  1.515182252E+03  0.000000000E+00  0.00000E+00  9.000E+00
      25     1     1     2     0     0  1.628858594E+02 -8.528961541E+01 -6.274575024E+02  6.656831371E+02  1.250000000E+02  0.00000E+00  9.000E+00
      25     1     1     2     0     0 -1.934661401E+02  2.506250897E+00 -8.118561076E+02  8.439021081E+02  1.250000000E+02  0.00000E+00  9.000E+00
      21     1     1     2   501   511  3.058028078E+01  8.278336452E+01  7.067930182E+00  8.853357923E+01  3.226368094E-06  0.00000E+00  9.000E+00
#rwgt            1           1   4.2159869100252344E-002           3      319353           0
</event>
<event>
      5   9999 -3.79277E-02  5.47699E+01 -1.00000E+00  1.36855E-01
      21    -1     0     0   502   501  0.000000000E+00  0.000000000E+00  4.941041110E+02  4.941041110E+02  0.000000000E+00  0.00000E+00  9.000E+00
      21    -1     0     0   512   502  0.000000000E+00  0.000000000E+00 -5.593040537E+02  5.593040537E+02  0.000000000E+00  0.00000E+00  9.000E+00
      25     1     1     2     0     0  2.597029877E+02 -2.437209879E+02  2.281676221E+02  4.410567146E+02  1.250000000E+02  0.00000E+00  9.000E+00
      25     1     1     2     0     0 -3.073110907E+02  2.707988217E+02 -1.416768498E+02  4.510758674E+02  1.250000000E+02  0.00000E+00  9.000E+00
      21     1     1     2   512   501  4.760810301E+01 -2.707783387E+01 -1.516907150E+02  1.612755827E+02  2.697398305E-06  0.00000E+00  9.000E+00
#rwgt            1           1  -7.6893123606083094E-002           3      319420           0
</event>
<event>
      5   9999  3.79277E-02  4.96571E+01 -1.00000E+00  1.39246E-01
      21    -1     0     0   502   501  0.000000000E+00  0.000000000E+00  6.959336667E+02  6.959336667E+02  0.000000000E+00  0.00000E+00  9.000E+00
      21    -1     0     0   511   502  0.000000000E+00  0.000000000E+00 -1.001380586E+02  1.001380586E+02  0.000000000E+00  0.00000E+00  9.000E+00
      25     1     1     2     0     0  9.314877613E+01 -5.009981653E+01  5.000056195E+02  5.261343038E+02  1.250000000E+02  0.00000E+00  9.000E+00
      25     1     1     2     0     0 -1.038953324E+02  9.858010077E+01  1.082260448E+02  2.187467786E+02  1.250000000E+02  0.00000E+00  9.000E+00
      21     1     1     2   511   501  1.074655629E+01 -4.848028424E+01 -1.243605624E+01  5.119064296E+01  0.000000000E+00  0.00000E+00  9.000E+00
#rwgt            1           1   4.1659550170432824E-002           3      319585           0
</event>
<event>
      5   9999  3.79277E-02  3.09073E+01 -1.00000E+00  1.52146E-01
      21    -1     0     0   502   501  0.000000000E+00  0.000000000E+00  2.054679133E+02  2.054679133E+02  0.000000000E+00  0.00000E+00  9.000E+00
       2    -1     0     0   501     0  0.000000000E+00  0.000000000E+00 -2.361577392E+02  2.361577392E+02  0.000000000E+00  0.00000E+00  9.000E+00
      25     1     1     2     0     0 -9.513413194E+01 -1.180822078E+02  6.195443928E+01  2.060516037E+02  1.250000000E+02  0.00000E+00  9.000E+00
      25     1     1     2     0     0  7.157275265E+01  9.807915363E+01 -4.706824836E+01  1.805065076E+02  1.250000000E+02  0.00000E+00  9.000E+00
       2     1     1     2   502     0  2.356137929E+01  2.000305415E+01 -4.557601689E+01  5.506754112E+01  6.743495762E-07  0.00000E+00  9.000E+00
#rwgt            1           1   3.9419568730974915E-002           3      319779           0
</event>
<event>
      5   9999  3.79277E-02  7.70341E+00 -1.00000E+00  2.09839E-01
      21    -1     0     0   502   501  0.000000000E+00  0.000000000E+00  3.057990955E+01  3.057990955E+01  0.000000000E+00  0.00000E+00  9.000E+00
      21    -1     0     0   501   511  0.000000000E+00  0.000000000E+00 -1.547765531E+03  1.547765531E+03  0.000000000E+00  0.00000E+00  9.000E+00
      25     1     1     2     0     0  1.819741437E+01  8.165354319E+00 -1.216185183E+02  1.755388358E+02  1.250000000E+02  0.00000E+00  9.000E+00
      25     1     1     2     0     0 -1.487222252E+01 -1.216574002E+00 -1.106709435E+03  1.113846236E+03  1.250000000E+02  0.00000E+00  9.000E+00
      21     1     1     2   502   511 -3.325191844E+00 -6.948780317E+00 -2.888576679E+02  2.889603688E+02  5.394796609E-06  0.00000E+00  9.000E+00
#rwgt            1           1   2.6075619826808748E-002           3      319906           0
</event>
<event>
      5   9999  3.79277E-02  4.30064E+01 -1.00000E+00  1.42915E-01
      21    -1     0     0   502   501  0.000000000E+00  0.000000000E+00  3.119397822E+02  3.119397822E+02  0.000000000E+00  0.00000E+00  9.000E+00
      21    -1     0     0   501   512  0.000000000E+00  0.000000000E+00 -3.556095638E+02  3.556095638E+02  0.000000000E+00  0.00000E+00  9.000E+00
      25     1     1     2     0     0 -4.439317508E+01  7.306172841E+01 -2.224326204E+02  2.690911384E+02  1.250000000E+02  0.00000E+00  9.000E+00
      25     1     1     2     0     0  7.713281008E+00 -9.551464855E+01  2.614663193E+02  3.052411815E+02  1.250000000E+02  0.00000E+00  9.000E+00
      21     1     1     2   502   512  3.667989408E+01  2.245292014E+01 -8.270348052E+01  9.321702603E+01  1.348699152E-06  0.00000E+00  9.000E+00
#rwgt            1           1   3.1173188696432968E-002           3      320176           0
</event>
<event>
      5   9999  3.79277E-02  1.42373E+02 -1.00000E+00  1.17299E-01
      21    -1     0     0   511   501  0.000000000E+00  0.000000000E+00  6.133307428E+02  6.133307428E+02  0.000000000E+00  0.00000E+00  9.000E+00
      21    -1     0     0   501   502  0.000000000E+00  0.000000000E+00 -2.634811709E+02  2.634811709E+02  0.000000000E+00  0.00000E+00  9.000E+00
      25     1     1     2     0     0  4.611426264E+00  1.574502257E+02 -8.756884275E+01  2.193288422E+02  1.250000000E+02  0.00000E+00  9.000E+00
      25     1     1     2     0     0  3.963372298E+01 -2.927732027E+02  1.923095622E+02  3.740253306E+02  1.250000000E+02  0.00000E+00  9.000E+00
      21     1     1     2   511   502 -4.424514925E+01  1.353229770E+02  2.451088524E+02  2.834577409E+02  2.697398305E-06  0.00000E+00  9.000E+00
#rwgt            1           1   1.7841650621830178E-002           3      320395           0
</event>
<event>
      5   9999  3.79277E-02  8.26668E+01 -1.00000E+00  1.27664E-01
       4    -1     0     0   502     0  0.000000000E+00  0.000000000E+00  1.241029604E+02  1.241029604E+02  0.000000000E+00  0.00000E+00  9.000E+00
      21    -1     0     0   501   502  0.000000000E+00  0.000000000E+00 -1.187112059E+03  1.187112059E+03  0.000000000E+00  0.00000E+00  9.000E+00
      25     1     1     2     0     0  9.962269993E+01  5.766705676E+00 -1.078898819E+03  1.090690423E+03  1.250000000E+02  0.00000E+00  9.000E+00
      25     1     1     2     0     0 -1.716067345E+01 -1.158147296E+01 -2.364549288E+01  1.288903742E+02  1.250000000E+02  0.00000E+00  9.000E+00
       4     1     1     2   501     0 -8.246202648E+01  5.814767286E+00  3.953521418E+01  9.163422118E+01  1.261592536E-06  0.00000E+00  9.000E+00
#rwgt            1           1   4.5731325143656562E-002           3      320469           0
</event>
<event>
      5   9999  3.79277E-02  1.12409E+01 -1.00000E+00  1.90062E-01
      21    -1     0     0   502   501  0.000000000E+00  0.000000000E+00  6.208046700E+02  6.208046700E+02  0.000000000E+00  0.00000E+00  9.000E+00
      21    -1     0     0   511   502  0.000000000E+00  0.000000000E+00 -1.783899605E+03  1.783899605E+03  0.000000000E+00  0.00000E+00  9.000E+00
      25     1     1     2     0     0  3.314796767E+01 -1.008773640E+02  2.245441732E+02  2.780649493E+02  1.250000000E+02  0.00000E+00  9.000E+00
      25     1     1     2     0     0 -2.483180638E+01  1.084404418E+02  3.505358475E+02  3.884280222E+02  1.250000000E+02  0.00000E+00  9.000E+00
      21     1     1     2   511   501 -8.316161295E+00 -7.563077806E+00 -1.738174956E+03  1.738211304E+03  3.051757812E-05  0.00000E+00  9.000E+00
#rwgt            1           1   3.3823935800071848E-002           3      320533           0
</event>
<event>
      5   9999  3.79277E-02  6.55094E+01 -1.00000E+00  1.32696E-01
      21    -1     0     0   502   501  0.000000000E+00  0.000000000E+00  4.857923564E+01  4.857923564E+01  0.000000000E+00  0.00000E+00  9.000E+00
      -1    -1     0     0     0   502  0.000000000E+00  0.000000000E+00 -1.524736143E+03  1.524736143E+03  0.000000000E+00  0.00000E+00  9.000E+00
      25     1     1     2     0     0  4.502604344E+01 -3.127938823E+01 -7.579162371E+01  1.561253181E+02  1.250000000E+02  0.00000E+00  9.000E+00
      25     1     1     2     0     0 -3.275113382E+00  8.176042314E+01 -8.616418891E+02  8.744982780E+02  1.250000000E+02  0.00000E+00  9.000E+00
      -1     1     1     2     0   501 -4.175093006E+01 -5.048103490E+01 -5.387233949E+02  5.426917830E+02  0.000000000E+00  0.00000E+00  9.000E+00
#rwgt            2          10   1.6398197458550908E-005           3      320754           0
</event>
<event>
      5   9999  3.79277E-02  1.26902E+02 -1.00000E+00  1.19346E-01
      21    -1     0     0   502   511  0.000000000E+00  0.000000000E+00  1.673585770E+02  1.673585770E+02  0.000000000E+00  0.00000E+00  9.000E+00
      21    -1     0     0   501   502  0.000000000E+00  0.000000000E+00 -9.122352041E+02  9.122352041E+02  0.000000000E+00  0.00000E+00  9.000E+00
      25     1     1     2     0     0  2.442291721E+02  2.415687418E+01 -1.117625984E+02  2.972327732E+02  1.250000000E+02  0.00000E+00  9.000E+00
      25     1     1     2     0     0 -2.401500773E+02  1.026792743E+02 -5.728645619E+02  6.418830885E+02  1.250000000E+02  0.00000E+00  9.000E+00
      21     1     1     2   501   511 -4.079094811E+00 -1.268361485E+02 -6.024946682E+01  1.404779193E+02  1.348699152E-06  0.00000E+00  9.000E+00
#rwgt            1           1   3.1463315740302603E-002           3      320803           0
</event>
<event>
      5   9999  3.79277E-02  1.81760E+01 -1.00000E+00  1.69870E-01
      21    -1     0     0   502   512  0.000000000E+00  0.000000000E+00  5.565615207E+02  5.565615207E+02  0.000000000E+00  0.00000E+00  9.000E+00
      21    -1     0     0   501   502  0.000000000E+00  0.000000000E+00 -1.013407359E+02  1.013407359E+02  0.000000000E+00  0.00000E+00  9.000E+00
      25     1     1     2     0     0  3.424772967E+01  1.705284211E+02  2.350169089E+02  3.179792396E+02  1.250000000E+02  0.00000E+00  9.000E+00
      25     1     1     2     0     0 -4.741099058E+01 -1.579946704E+02  1.224144481E+02  2.404587594E+02  1.250000000E+02  0.00000E+00  9.000E+00
      21     1     1     2   501   512  1.316326091E+01 -1.253375069E+01  9.778942777E+01  9.946425753E+01  0.000000000E+00  0.00000E+00  9.000E+00
#rwgt            1           1   5.0748224052195194E-002           3      320954           0
</event>
<event>
      5   9999  3.79277E-02  1.70475E+02 -1.00000E+00  1.14233E-01
       1    -1     0     0   502     0  0.000000000E+00  0.000000000E+00  2.075040134E+02  2.075040134E+02  0.000000000E+00  0.00000E+00  9.000E+00
      21    -1     0     0   501   502  0.000000000E+00  0.000000000E+00 -5.947588324E+02  5.947588324E+02  0.000000000E+00  0.00000E+00  9.000E+00
      25     1     1     2     0     0  2.264840628E+02 -4.005631259E+01 -2.860257803E+02  3.877309452E+02  1.250000000E+02  0.00000E+00  9.000E+00
      25     1     1     2     0     0 -8.836156676E+01 -5.986322942E+01 -1.646424272E+02  2.326445820E+02  1.250000000E+02  0.00000E+00  9.000E+00
       1     1     1     2   501     0 -1.381224961E+02  9.991954201E+01  6.341338854E+01  1.818873185E+02  1.784161275E-06  0.00000E+00  9.000E+00
#rwgt            1           1   4.3070748952418830E-002           3      321110           0
</event>
<event>
      5   9999  3.79277E-02  2.85337E+01 -1.00000E+00  1.54567E-01
      21    -1     0     0   502   501  0.000000000E+00  0.000000000E+00  1.280217763E+02  1.280217763E+02  0.000000000E+00  0.00000E+00  9.000E+00
      21    -1     0     0   501   511  0.000000000E+00  0.000000000E+00 -6.456084290E+02  6.456084290E+02  0.000000000E+00  0.00000E+00  9.000E+00
      25     1     1     2     0     0 -7.455133350E+01 -1.341028434E+01  5.988405225E+01  1.579520078E+02  1.250000000E+02  0.00000E+00  9.000E+00
      25     1     1     2     0     0  1.028872905E+02  1.676344202E+01 -3.450424207E+02  3.815050191E+02  1.250000000E+02  0.00000E+00  9.000E+00
      21     1     1     2   502   511 -2.833595704E+01 -3.353157679E+00 -2.324282842E+02  2.341731783E+02  4.672030912E-06  0.00000E+00  9.000E+00
#rwgt            1           1   4.3391789902655277E-002           3      321206           0
</event>
<event>
      5   9999  3.79277E-02  2.86807E+01 -1.00000E+00  1.54409E-01
      21    -1     0     0   502   501  0.000000000E+00  0.000000000E+00  6.173635047E+01  6.173635047E+01  0.000000000E+00  0.00000E+00  9.000E+00
       1    -1     0     0   501     0  0.000000000E+00  0.000000000E+00 -1.538716382E+03  1.538716382E+03  0.000000000E+00  0.00000E+00  9.000E+00
      25     1     1     2     0     0 -1.448379993E+01  2.114047172E+01 -1.349784764E+01  1.283116982E+02  1.250000000E+02  0.00000E+00  9.000E+00
      25     1     1     2     0     0  3.509668322E+01 -1.198223718E+00 -1.132531738E+03  1.139950152E+03  1.250000000E+02  0.00000E+00  9.000E+00
       1     1     1     2   502     0 -2.061288329E+01 -1.994224801E+01 -3.309504465E+02  3.321908822E+02  5.394796609E-06  0.00000E+00  9.000E+00
#rwgt            1           1   4.1957928194635070E-002           3      321398           0
</event>
<event>
      5   9999  3.79277E-02  2.78123E+01 -1.00000E+00  1.55359E-01
      21    -1     0     0   511   501  0.000000000E+00  0.000000000E+00  1.325736396E+02  1.325736396E+02  0.000000000E+00  0.00000E+00  9.000E+00
      21    -1     0     0   501   502  0.000000000E+00  0.000000000E+00 -9.307611312E+02  9.307611312E+02  0.000000000E+00  0.00000E+00  9.000E+00
      25     1     1     2     0     0  2.243135132E+02  1.828121786E+02 -4.365954973E+02  5.384955646E+02  1.250000000E+02  0.00000E+00  9.000E+00
      25     1     1     2     0     0 -2.471250131E+02 -1.987231694E+02 -3.617301920E+02  4.970265606E+02  1.250000000E+02  0.00000E+00  9.000E+00
      21     1     1     2   511   502  2.281149995E+01  1.591099077E+01  1.381977461E-01  2.781264561E+01  6.761581483E-07  0.00000E+00  9.000E+00
#rwgt            1           1   2.8883563373520622E-002           3      321606           0
</event>
<event>
      5   9999  3.79277E-02  1.45293E+01 -1.00000E+00  1.78698E-01
      21    -1     0     0   502   512  0.000000000E+00  0.000000000E+00  6.016913764E+02  6.016913764E+02  0.000000000E+00  0.00000E+00  9.000E+00
      21    -1     0     0   501   502  0.000000000E+00  0.000000000E+00 -1.044343487E+02  1.044343487E+02  0.000000000E+00  0.00000E+00  9.000E+00
      25     1     1     2     0     0 -1.663095215E+02  7.409474857E+01  1.709158675E+02  2.792599550E+02  1.250000000E+02  0.00000E+00  9.000E+00
      25     1     1     2     0     0  1.527073444E+02 -6.898782456E+01  1.689074883E+02  2.687630789E+02  1.250000000E+02  0.00000E+00  9.000E+00
      21     1     1     2   501   512  1.360217711E+01 -5.106924004E+00  1.574336719E+02  1.581026912E+02  0.000000000E+00  0.00000E+00  9.000E+00
#rwgt            1           1   3.5922519956032246E-002           3      321745           0
</event>
<event>
      5   9999 -3.79277E-02  1.95750E+02 -1.00000E+00  1.11989E-01
      21    -1     0     0   502   501  0.000000000E+00  0.000000000E+00  3.785855111E+02  3.785855111E+02  0.000000000E+00  0.00000E+00  9.000E+00
      21    -1     0     0   501   511  0.000000000E+00  0.000000000E+00 -4.829613806E+02  4.829613806E+02  0.000000000E+00  0.00000E+00  9.000E+00
      25     1     1     2     0     0 -1.384546974E+02 -4.788818570E+01  1.020496936E+02  2.179498142E+02  1.250000000E+02  0.00000E+00  9.000E+00
      25     1     1     2     0     0  3.309414881E+02  1.229484215E+01  6.936638407E+00  3.540431452E+02  1.250000000E+02  0.00000E+00  9.000E+00
      21     1     1     2   502   511 -1.924867907E+02  3.559334354E+01 -2.133622014E+02  2.895539323E+02  4.672030912E-06  0.00000E+00  9.000E+00
#rwgt            1           1 -0.12877975371960276                3      321919           0
</event>
<event>
      5   9999  3.79277E-02  4.85753E+01 -1.00000E+00  1.39796E-01
      21    -1     0     0   502   512  0.000000000E+00  0.000000000E+00  8.470818936E+02  8.470818936E+02  0.000000000E+00  0.00000E+00  9.000E+00
      21    -1     0     0   501   502  0.000000000E+00  0.000000000E+00 -3.030815726E+02  3.030815726E+02  0.000000000E+00  0.00000E+00  9.000E+00
      25     1     1     2     0     0  1.077630577E+02 -1.822718913E+02 -2.060771635E+02  3.208250556E+02  1.250000000E+02  0.00000E+00  9.000E+00
      25     1     1     2     0     0 -1.312216239E+02  2.248072264E+02  7.096184818E+02  7.661206128E+02  1.250000000E+02  0.00000E+00  9.000E+00
      21     1     1     2   501   512  2.345856625E+01 -4.253533516E+01  4.045900276E+01  6.321779791E+01  1.348699152E-06  0.00000E+00  9.000E+00
#rwgt            1           1  0.12188392429544892                3      321986           0
</event>
<event>
      5   9999  3.79277E-02  3.25963E+01 -1.00000E+00  1.50578E-01
       2    -1     0     0   502     0  0.000000000E+00  0.000000000E+00  1.727602976E+03  1.727602976E+03  0.000000000E+00  0.00000E+00  9.000E+00
      21    -1     0     0   501   502  0.000000000E+00  0.000000000E+00 -1.432125073E+02  1.432125073E+02  0.000000000E+00  0.00000E+00  9.000E+00
      25     1     1     2     0     0 -4.470377244E+01 -7.076290301E+01 -4.232869355E+01  1.562771065E+02  1.250000000E+02  0.00000E+00  9.000E+00
      25     1     1     2     0     0  1.212992866E+01  6.955441536E+01  7.406344975E+01  1.615405412E+02  1.250000000E+02  0.00000E+00  9.000E+00
       2     1     1     2   501     0  3.257384378E+01  1.208487648E+00  1.552655713E+03  1.552997836E+03  2.157918644E-05  0.00000E+00  9.000E+00
#rwgt            1           1   5.0873180313386834E-002           3      322136           0
</event>
<event>
      5   9999  3.79277E-02  3.33116E+01 -1.00000E+00  1.49947E-01
      21    -1     0     0   502   501  0.000000000E+00  0.000000000E+00  8.626071490E+02  8.626071490E+02  0.000000000E+00  0.00000E+00  9.000E+00
      21    -1     0     0   511   502  0.000000000E+00  0.000000000E+00 -1.310172679E+02  1.310172679E+02  0.000000000E+00  0.00000E+00  9.000E+00
      25     1     1     2     0     0  5.427836473E+01 -7.658467526E+01  4.066123583E+01  1.615230307E+02  1.250000000E+02  0.00000E+00  9.000E+00
      25     1     1     2     0     0 -2.702231695E+01  9.573588604E+01  7.486243911E+02  7.654796172E+02  1.250000000E+02  0.00000E+00  9.000E+00
      21     1     1     2   511   501 -2.725604778E+01 -1.915121078E+01 -5.769574574E+01  6.662176891E+01  1.507891493E-06  0.00000E+00  9.000E+00
#rwgt            1           1   4.3648637544403859E-002           3      322374           0
</event>
<event>
      5   9999  3.79277E-02  2.50780E+01 -1.00000E+00  1.58650E-01
      21    -1     0     0   502   501  0.000000000E+00  0.000000000E+00  4.234361421E+01  4.234361421E+01  0.000000000E+00  0.00000E+00  9.000E+00
      -2    -1     0     0     0   502  0.000000000E+00  0.000000000E+00 -1.022371437E+03  1.022371437E+03  0.000000000E+00  0.00000E+00  9.000E+00
      25     1     1     2     0     0  2.315135387E+01  1.206655637E+02 -3.005821348E+02  3.479522715E+02  1.250000000E+02  0.00000E+00  9.000E+00
      25     1     1     2     0     0 -1.346733447E+01 -1.437983143E+02 -4.942159593E+02  5.298431265E+02  1.250000000E+02  0.00000E+00  9.000E+00
      -2     1     1     2     0   501 -9.684019400E+00  2.313275055E+01 -1.852297282E+02  1.869196528E+02  2.697398305E-06  0.00000E+00  9.000E+00
#rwgt            1           1   3.9050667373910296E-002           3      322523           0
</event>
<event>
      5   9999  3.79277E-02  1.99746E+01 -1.00000E+00  1.66415E-01
      21    -1     0     0   511   501  0.000000000E+00  0.000000000E+00  7.976756554E+02  7.976756554E+02  0.000000000E+00  0.00000E+00  9.000E+00
      21    -1     0     0   501   502  0.000000000E+00  0.000000000E+00 -2.342476765E+02  2.342476765E+02  0.000000000E+00  0.00000E+00  9.000E+00
      25     1     1     2     0     0  3.416582881E+02  1.306264533E+02  4.644439157E+02  6.042572358E+02  1.250000000E+02  0.00000E+00  9.000E+00
      25     1     1     2     0     0 -3.426070651E+02 -1.505785001E+02  8.594730061E+01  4.038136009E+02  1.250000000E+02  0.00000E+00  9.000E+00
      21     1     1     2   511   502  9.487770145E-01  1.995204685E+01  1.303676255E+01  2.385249524E+01  2.920019320E-07  0.00000E+00  9.000E+00
#rwgt            1           1   3.1938068396777632E-002           3      322713           0
</event>
<event>
      5   9999  3.79277E-02  1.64346E+02 -1.00000E+00  1.14843E-01
      21    -1     0     0   502   501  0.000000000E+00  0.000000000E+00  5.825816735E+02  5.825816735E+02  0.000000000E+00  0.00000E+00  9.000E+00
      21    -1     0     0   512   502  0.000000000E+00  0.000000000E+00 -2.719773370E+02  2.719773370E+02  0.000000000E+00  0.00000E+00  9.000E+00
      25     1     1     2     0     0  4.367953544E+00 -2.683960916E+00  3.375667799E+01  1.295793038E+02  1.250000000E+02  0.00000E+00  9.000E+00
      25     1     1     2     0     0 -6.957544842E+01 -1.481719791E+02  4.446918086E+02  4.900729365E+02  1.250000000E+02  0.00000E+00  9.000E+00
      21     1     1     2   512   501  6.520749487E+01  1.508559400E+02 -1.678441500E+02  2.349067703E+02  3.814697266E-06  0.00000E+00  9.000E+00
#rwgt            2          11   2.6366715821385988E-003           3      322930           0
</event>
<event>
      5   9999 -4.26031E-02  1.40189E+02 -1.00000E+00  1.17570E-01
      -2    -1     0     0     0   501  0.000000000E+00  0.000000000E+00  2.776696005E+03  2.776696005E+03  0.000000000E+00  0.00000E+00  9.000E+00
      21    -1     0     0   501   502  0.000000000E+00  0.000000000E+00 -4.619460816E+01  4.619460816E+01  0.000000000E+00  0.00000E+00  9.000E+00
      25     1     1     2     0     0  2.090857005E+02 -4.935122589E+01  1.019709457E+03  1.049564076E+03  1.250000000E+02  0.00000E+00  9.000E+00
      25     1     1     2     0     0 -1.650558515E+02 -8.374372724E+01  4.268069667E+02  4.817111508E+02  1.250000000E+02  0.00000E+00  9.000E+00
      -2     1     1     2     0   502 -4.402984906E+01  1.330949531E+02  1.283984973E+03  1.291615386E+03  0.000000000E+00  0.00000E+00  9.000E+00
#rwgt            1           1 -0.30363751701396596                3      323100           0
</event>
<event>
      5   9999  3.79277E-02  1.24563E+02 -1.00000E+00  1.19684E-01
      21    -1     0     0   502   501  0.000000000E+00  0.000000000E+00  3.408106971E+02  3.408106971E+02  0.000000000E+00  0.00000E+00  9.000E+00
      21    -1     0     0   501   511  0.000000000E+00  0.000000000E+00 -1.881604587E+02  1.881604587E+02  0.000000000E+00  0.00000E+00  9.000E+00
      25     1     1     2     0     0  3.927078248E+01 -1.256333058E+02  1.222531162E+02  2.188532529E+02  1.250000000E+02  0.00000E+00  9.000E+00
      25     1     1     2     0     0 -1.220689199E+02  3.257165035E+01  4.855083920E+01  1.842387516E+02  1.250000000E+02  0.00000E+00  9.000E+00
      21     1     1     2   502   511  8.279813739E+01  9.306165549E+01 -1.815371704E+01  1.258791513E+02  1.168007728E-06  0.00000E+00  9.000E+00
#rwgt            1           1   3.1633727318662729E-002           3      323259           0
</event>
<event>
      5   9999  3.79277E-02  8.30713E+01 -1.00000E+00  1.27563E-01
      21    -1     0     0   502   501  0.000000000E+00  0.000000000E+00  2.891799226E+02  2.891799226E+02  0.000000000E+00  0.00000E+00  9.000E+00
      21    -1     0     0   512   502  0.000000000E+00  0.000000000E+00 -5.305147713E+02  5.305147713E+02  0.000000000E+00  0.00000E+00  9.000E+00
      25     1     1     2     0     0  1.954189962E+02 -8.633048602E+01 -5.805969805E+01  2.542389927E+02  1.250000000E+02  0.00000E+00  9.000E+00
      25     1     1     2     0     0 -1.373019545E+02  1.456874924E+02  1.101840132E+02  2.604653315E+02  1.250000000E+02  0.00000E+00  9.000E+00
      21     1     1     2   512   501 -5.811704172E+01 -5.935700640E+01 -2.934591639E+02  3.049903697E+02  3.814697266E-06  0.00000E+00  9.000E+00
#rwgt            1           1   2.0767212297850151E-002           3      323451           0
</event>
<event>
      5   9999  3.79277E-02  2.40399E+01 -1.00000E+00  1.60035E-01
      21    -1     0     0   511   501  0.000000000E+00  0.000000000E+00  1.637747591E+02  1.637747591E+02  0.000000000E+00  0.00000E+00  9.000E+00
      21    -1     0     0   501   502  0.000000000E+00  0.000000000E+00 -3.657775298E+02  3.657775298E+02  0.000000000E+00  0.00000E+00  9.000E+00
      25     1     1     2     0     0  7.126845483E+01 -1.437724760E+02 -2.035038984E+02  2.877300022E+02  1.250000000E+02  0.00000E+00  9.000E+00
      25     1     1     2     0     0 -5.080641025E+01  1.563908168E+02 -2.259401946E+01  2.077856314E+02  1.250000000E+02  0.00000E+00  9.000E+00
      21     1     1     2   511   502 -2.046204458E+01 -1.261834077E+01  2.409514708E+01  3.403665531E+01  0.000000000E+00  0.00000E+00  9.000E+00
#rwgt            1           1   4.0451762304590771E-002           3      323540           0
</event>
<event>
      5   9999  3.79277E-02  1.86806E+01 -1.00000E+00  1.68852E-01
      21    -1     0     0   502   512  0.000000000E+00  0.000000000E+00  9.066843390E+01  9.066843390E+01  0.000000000E+00  0.00000E+00  9.000E+00
      21    -1     0     0   501   502  0.000000000E+00  0.000000000E+00 -6.754033098E+02  6.754033098E+02  0.000000000E+00  0.00000E+00  9.000E+00
      25     1     1     2     0     0 -1.461839761E+02 -1.066699799E+02 -4.173786230E+02  4.717818929E+02  1.250000000E+02  0.00000E+00  9.000E+00
      25     1     1     2     0     0  1.494522620E+02  8.827750174E+01 -1.726370853E+02  2.748771711E+02  1.250000000E+02  0.00000E+00  9.000E+00
      21     1     1     2   501   512 -3.268285903E+00  1.839247818E+01  5.280832386E+00  1.941267980E+01  2.598106231E-07  0.00000E+00  9.000E+00
#rwgt            1           1   2.6847271468957375E-002           3      323724           0
</event>
<event>
      5   9999  3.79277E-02  6.48185E+01 -1.00000E+00  1.32935E-01
      21    -1     0     0   511   501  0.000000000E+00  0.000000000E+00  2.295209769E+02  2.295209769E+02  0.000000000E+00  0.00000E+00  9.000E+00
      21    -1     0     0   501   502  0.000000000E+00  0.000000000E+00 -8.086173836E+02  8.086173836E+02  0.000000000E+00  0.00000E+00  9.000E+00
      25     1     1     2     0     0  1.393167456E+02 -5.694862605E+01 -5.731441008E+02  6.056165965E+02  1.250000000E+02  0.00000E+00  9.000E+00
      25     1     1     2     0     0 -8.269463798E+01  8.849827890E+01 -1.778257806E+02  2.488319850E+02  1.250000000E+02  0.00000E+00  9.000E+00
      21     1     1     2   511   502 -5.662210762E+01 -3.154965285E+01  1.718734746E+02  1.836897791E+02  3.303624740E-06  0.00000E+00  9.000E+00
#rwgt            1           1   2.5075897868098902E-002           3      323893           0
</event>
<event>
      5   9999  3.79277E-02  4.82904E+01 -1.00000E+00  1.39943E-01
      21    -1     0     0   502   501  0.000000000E+00  0.000000000E+00  5.727340949E+02  5.727340949E+02  0.000000000E+00  0.00000E+00  9.000E+00
      21    -1     0     0   512   502  0.000000000E+00  0.000000000E+00 -9.380911996E+01  9.380911996E+01  0.000000000E+00  0.00000E+00  9.000E+00
      25     1     1     2     0     0 -1.401937647E+02  4.278439050E+01  1.912576460E+02  2.714577000E+02  1.250000000E+02  0.00000E+00  9.000E+00
      25     1     1     2     0     0  1.799250961E+02 -1.533649111E+01  2.561932058E+02  3.374436351E+02  1.250000000E+02  0.00000E+00  9.000E+00
      21     1     1     2   512   501 -3.973133141E+01 -2.744789939E+01  3.147412315E+01  5.764187978E+01  1.011524364E-06  0.00000E+00  9.000E+00
#rwgt            1           1   3.7753108077584502E-002           3      323963           0
</event>
<event>
      5   9999  3.79277E-02  1.89416E+01 -1.00000E+00  1.68341E-01
      21    -1     0     0   511   501  0.000000000E+00  0.000000000E+00  1.798521728E+02  1.798521728E+02  0.000000000E+00  0.00000E+00  9.000E+00
      21    -1     0     0   501   502  0.000000000E+00  0.000000000E+00 -9.234177808E+02  9.234177808E+02  0.000000000E+00  0.00000E+00  9.000E+00
      25     1     1     2     0     0 -5.662203934E+00 -1.757259410E+01 -1.036945047E+02  1.634576610E+02  1.250000000E+02  0.00000E+00  9.000E+00
      25     1     1     2     0     0 -1.318331852E+01  1.947771081E+01 -7.840977264E+02  7.943471695E+02  1.250000000E+02  0.00000E+00  9.000E+00
      21     1     1     2   511   502  1.884552245E+01 -1.905116711E+00  1.442266232E+02  1.454651230E+02  3.814697266E-06  0.00000E+00  9.000E+00
#rwgt            1           1   4.4734022092870931E-002           3      324127           0
</event>
<event>
      5   9999  3.79277E-02  1.80651E+02 -1.00000E+00  1.13281E-01
      21    -1     0     0   502   501  0.000000000E+00  0.000000000E+00  3.807241459E+02  3.807241459E+02  0.000000000E+00  0.00000E+00  9.000E+00
      21    -1     0     0   512   502  0.000000000E+00  0.000000000E+00 -3.445172539E+02  3.445172539E+02  0.000000000E+00  0.00000E+00  9.000E+00
      25     1     1     2     0     0  1.723592134E+02  1.237047489E+02 -8.784179355E+01  2.614416647E+02  1.250000000E+02  0.00000E+00  9.000E+00
      25     1     1     2     0     0 -3.725804131E+00 -1.884941726E+02  1.632281079E+02  2.789486510E+02  1.250000000E+02  0.00000E+00  9.000E+00
      21     1     1     2   512   501 -1.686334092E+02  6.478942370E+01 -3.917942234E+01  1.848510840E+02  1.348699152E-06  0.00000E+00  9.000E+00
#rwgt            1           1   9.8140045478757442E-003           3      324327           0
</event>
<event>
      5   9999  3.79277E-02  7.90907E+01 -1.00000E+00  1.28590E-01
      21    -1     0     0   502   501  0.000000000E+00  0.000000000E+00  5.740806560E+02  5.740806560E+02  0.000000000E+00  0.00000E+00  9.000E+00
      21    -1     0     0   511   502  0.000000000E+00  0.000000000E+00 -1.547765511E+02  1.547765511E+02  0.000000000E+00  0.00000E+00  9.000E+00
      25     1     1     2     0     0 -6.598996523E+01 -1.686690525E+02  2.660712173E+02  3.452865730E+02  1.250000000E+02  0.00000E+00  9.000E+00
      25     1     1     2     0     0 -5.395670022E+00  2.027195202E+02  1.816005226E+02  2.995464353E+02  1.250000000E+02  0.00000E+00  9.000E+00
      21     1     1     2   511   501  7.138563525E+01 -3.405046768E+01 -2.836763502E+01  8.402419881E+01  1.507891493E-06  0.00000E+00  9.000E+00
#rwgt            1           1   2.8646541003312102E-002           3      324410           0
</event>
<event>
      5   9999  3.79277E-02  2.53755E+02 -1.00000E+00  1.08010E-01
      21    -1     0     0   502   501  0.000000000E+00  0.000000000E+00  5.460476715E+02  5.460476715E+02  0.000000000E+00  0.00000E+00  9.000E+00
      21    -1     0     0   501   512  0.000000000E+00  0.000000000E+00 -6.423368718E+02  6.423368718E+02  0.000000000E+00  0.00000E+00  9.000E+00
      25     1     1     2     0     0 -1.182398157E+02 -5.773450175E+01  3.438321034E+02  3.887922865E+02  1.250000000E+02  0.00000E+00  9.000E+00
      25     1     1     2     0     0  2.473559575E+02  2.761844806E+02 -3.646722278E+02  5.348585521E+02  1.250000000E+02  0.00000E+00  9.000E+00
      21     1     1     2   502   512 -1.291161417E+02 -2.184499788E+02 -7.544907587E+01  2.647337046E+02  3.015782986E-06  0.00000E+00  9.000E+00
#rwgt            2          11   2.8005167077595427E-003           3      324491           0
</event>
<event>
      5   9999 -3.79277E-02  5.83784E+01 -1.00000E+00  1.35342E-01
      21    -1     0     0   502   501  0.000000000E+00  0.000000000E+00  1.113328415E+03  1.113328415E+03  0.000000000E+00  0.00000E+00  9.000E+00
      21    -1     0     0   511   502  0.000000000E+00  0.000000000E+00 -5.877241841E+01  5.877241841E+01  0.000000000E+00  0.00000E+00  9.000E+00
      25     1     1     2     0     0  1.639953864E+02  3.464203486E+00  4.766954243E+02  5.193938920E+02  1.250000000E+02  0.00000E+00  9.000E+00
      25     1     1     2     0     0 -1.140486299E+02  2.675764934E+01  5.682890509E+02  5.935490773E+02  1.250000000E+02  0.00000E+00  9.000E+00
      21     1     1     2   511   501 -4.994675649E+01 -3.022185282E+01  9.571521452E+00  5.915786418E+01  1.576990671E-06  0.00000E+00  9.000E+00
#rwgt            1           1  -1.7965573077176184E-002           3      324541           0
</event>
<event>
      5   9999  3.79277E-02  7.62335E+01 -1.00000E+00  1.29371E-01
      21    -1     0     0   502   512  0.000000000E+00  0.000000000E+00  1.229958373E+02  1.229958373E+02  0.000000000E+00  0.00000E+00  9.000E+00
      21    -1     0     0   501   502  0.000000000E+00  0.000000000E+00 -5.269685691E+02  5.269685691E+02  0.000000000E+00  0.00000E+00  9.000E+00
      25     1     1     2     0     0 -1.485754188E+02 -3.899171372E+01 -4.750532966E+01  2.036584522E+02  1.250000000E+02  0.00000E+00  9.000E+00
      25     1     1     2     0     0  7.322218206E+01  5.054322831E+01 -3.328287470E+02  3.664915834E+02  1.250000000E+02  0.00000E+00  9.000E+00
      21     1     1     2   501   512  7.535323669E+01 -1.155151459E+01 -2.363865516E+01  7.981437080E+01  1.469710828E-06  0.00000E+00  9.000E+00
#rwgt            1           1   3.5195642852655008E-002           3      324711           0
</event>
<event>
      5   9999 -3.79277E-02  2.74339E+01 -1.00000E+00  1.55787E-01
      21    -1     0     0   502   511  0.000000000E+00  0.000000000E+00  3.598015261E+02  3.598015261E+02  0.000000000E+00  0.00000E+00  9.000E+00
      21    -1     0     0   501   502  0.000000000E+00  0.000000000E+00 -3.860751129E+02  3.860751129E+02  0.000000000E+00  0.00000E+00  9.000E+00
      25     1     1     2     0     0  1.265857153E+02  6.656263481E+01  1.232615925E+02  2.264353061E+02  1.250000000E+02  0.00000E+00  9.000E+00
      25     1     1     2     0     0 -1.532302227E+02 -7.309648639E+01 -2.999028838E+02  3.665915127E+02  1.250000000E+02  0.00000E+00  9.000E+00
      21     1     1     2   501   511  2.664450744E+01  6.533851583E+00  1.503677045E+02  1.528498202E+02  1.907348633E-06  0.00000E+00  9.000E+00
#rwgt            1           1 -0.13581131800041976                3      324824           0
</event>
<event>
      5   9999  3.79277E-02  2.86717E+01 -1.00000E+00  1.54419E-01
       2    -1     0     0   502     0  0.000000000E+00  0.000000000E+00  7.994920035E+02  7.994920035E+02  0.000000000E+00  0.00000E+00  9.000E+00
      21    -1     0     0   501   502  0.000000000E+00  0.000000000E+00 -8.903598361E+02  8.903598361E+02  0.000000000E+00  0.00000E+00  9.000E+00
      25     1     1     2     0     0  2.195371033E+00  2.474373702E+02 -6.149020792E+02  6.745069598E+02  1.250000000E+02  0.00000E+00  9.000E+00
      25     1     1     2     0     0  2.421183664E+01 -2.586055015E+02 -1.606943892E+02  3.300162196E+02  1.250000000E+02  0.00000E+00  9.000E+00
       2     1     1     2   501     0 -2.640720767E+01  1.116813138E+01  6.847286359E+02  6.853286603E+02  7.629394531E-06  0.00000E+00  9.000E+00
#rwgt            1           1   2.5361000720359642E-002           3      325113           0
</event>
<event>
      5   9999  3.79277E-02  2.91200E+01 -1.00000E+00  1.53943E-01
      21    -1     0     0   502   501  0.000000000E+00  0.000000000E+00  2.413452815E+01  2.413452815E+01  0.000000000E+00  0.00000E+00  9.000E+00
       2    -1     0     0   501     0  0.000000000E+00  0.000000000E+00 -1.795556534E+03  1.795556534E+03  0.000000000E+00  0.00000E+00  9.000E+00
      25     1     1     2     0     0  1.736974444E+01 -3.378809069E+01 -2.012317986E+02  2.399220287E+02  1.250000000E+02  0.00000E+00  9.000E+00
      25     1     1     2     0     0  7.143888484E+00  4.950608742E+01 -1.025405625E+03  1.034206742E+03  1.250000000E+02  0.00000E+00  9.000E+00
       2     1     1     2   502     0 -2.451363293E+01 -1.571799673E+01 -5.447845814E+02  5.455622913E+02  7.629394531E-06  0.00000E+00  9.000E+00
#rwgt            1           1   4.5221556629138966E-002           3      325280           0
</event>
<event>
      5   9999  3.79277E-02  1.56221E+01 -1.00000E+00  1.75737E-01
      21    -1     0     0   502   511  0.000000000E+00  0.000000000E+00  1.510050333E+02  1.510050333E+02  0.000000000E+00  0.00000E+00  9.000E+00
      21    -1     0     0   501   502  0.000000000E+00  0.000000000E+00 -5.509843487E+02  5.509843487E+02  0.000000000E+00  0.00000E+00  9.000E+00
      25     1     1     2     0     0  1.524545768E+02  1.871891438E+02 -2.839991377E+02  3.931446092E+02  1.250000000E+02  0.00000E+00  9.000E+00
      25     1     1     2     0     0 -1.632512857E+02 -1.758983986E+02 -1.107121145E+02  2.923583438E+02  1.250000000E+02  0.00000E+00  9.000E+00
      21     1     1     2   501   511  1.079670884E+01 -1.129074522E+01 -5.268063084E+00  1.648642891E+01  1.032382731E-07  0.00000E+00  9.000E+00
#rwgt            1           1   3.8793874938753595E-002           3      325409           0
</event>
<event>
      5   9999  3.79277E-02  6.13330E+00 -1.00000E+00  2.24000E-01
      21    -1     0     0   502   501  0.000000000E+00  0.000000000E+00  1.678561036E+02  1.678561036E+02  0.000000000E+00  0.00000E+00  9.000E+00
      21    -1     0     0   512   502  0.000000000E+00  0.000000000E+00 -3.524738079E+02  3.524738079E+02  0.000000000E+00  0.00000E+00  9.000E+00
      25     1     1     2     0     0 -1.841722935E+02 -5.955265020E+01 -1.249094025E+02  2.620940875E+02  1.250000000E+02  0.00000E+00  9.000E+00
      25     1     1     2     0     0  1.793498571E+02  5.576299841E+01 -2.964298556E+01  2.275512905E+02  1.250000000E+02  0.00000E+00  9.000E+00
      21     1     1     2   512   501  4.822436392E+00  3.789651794E+00 -3.006531628E+01  3.068453350E+01  3.371747881E-07  0.00000E+00  9.000E+00
#rwgt            1           1   4.3231081889183100E-002           3      325789           0
</event>
<event>
      5   9999  3.79277E-02  1.32370E+02 -1.00000E+00  1.18587E-01
      21    -1     0     0   502   511  0.000000000E+00  0.000000000E+00  7.982084025E+02  7.982084025E+02  0.000000000E+00  0.00000E+00  9.000E+00
      21    -1     0     0   501   502  0.000000000E+00  0.000000000E+00 -1.168714760E+02  1.168714760E+02  0.000000000E+00  0.00000E+00  9.000E+00
      25     1     1     2     0     0  1.530453894E+02 -2.413339986E+00  2.343737409E+02  3.065693492E+02  1.250000000E+02  0.00000E+00  9.000E+00
      25     1     1     2     0     0 -2.262332687E+02 -1.078837422E+02  2.896952059E+02  4.029500044E+02  1.250000000E+02  0.00000E+00  9.000E+00
      21     1     1     2   501   511  7.318787927E+01  1.102970822E+02  1.572679797E+02  2.055605250E+02  1.907348633E-06  0.00000E+00  9.000E+00
#rwgt            1           1   3.6398085961270539E-002           3      326126           0
</event>
<event>
      5   9999  3.79277E-02  4.55383E+01 -1.00000E+00  1.41432E-01
      21    -1     0     0   502   501  0.000000000E+00  0.000000000E+00  1.131958039E+03  1.131958039E+03  0.000000000E+00  0.00000E+00  9.000E+00
      21    -1     0     0   501   512  0.000000000E+00  0.000000000E+00 -2.583616462E+02  2.583616462E+02  0.000000000E+00  0.00000E+00  9.000E+00
      25     1     1     2     0     0  1.201234405E+02 -5.674139233E+01  1.699621014E+02  2.493217649E+02  1.250000000E+02  0.00000E+00  9.000E+00
      25     1     1     2     0     0 -1.307415891E+02  1.245832587E+01  9.109098513E+02  9.287789458E+02  1.250000000E+02  0.00000E+00  9.000E+00
      21     1     1     2   502   512  1.061814865E+01  4.428306646E+01 -2.072755603E+02  2.122189741E+02  2.697398305E-06  0.00000E+00  9.000E+00
#rwgt            1           1   3.2963696513447036E-002           3      326224           0
</event>
<event>
      5   9999  3.79277E-02  4.41537E+01 -1.00000E+00  1.42228E-01
      21    -1     0     0   502   501  0.000000000E+00  0.000000000E+00  5.202875654E+02  5.202875654E+02  0.000000000E+00  0.00000E+00  9.000E+00
      21    -1     0     0   511   502  0.000000000E+00  0.000000000E+00 -3.124461695E+02  3.124461695E+02  0.000000000E+00  0.00000E+00  9.000E+00
      25     1     1     2     0     0 -1.239524009E+02 -9.769505520E+01  8.948782075E+01  2.203215640E+02  1.250000000E+02  0.00000E+00  9.000E+00
      25     1     1     2     0     0  1.241999517E+02  5.354200837E+01  3.398579961E+02  3.865499091E+02  1.250000000E+02  0.00000E+00  9.000E+00
      21     1     1     2   511   501 -2.475508204E-01  4.415304683E+01 -2.215044210E+02  2.258622618E+02  3.814697266E-06  0.00000E+00  9.000E+00
#rwgt            1           1   3.8555566266990214E-002           3      326524           0
</event>
<event>
      5   9999  3.79277E-02  7.08247E+01 -1.00000E+00  1.30964E-01
      21    -1     0     0   512   501  0.000000000E+00  0.000000000E+00  1.116835254E+02  1.116835254E+02  0.000000000E+00  0.00000E+00  9.000E+00
      21    -1     0     0   501   502  0.000000000E+00  0.000000000E+00 -1.472518479E+03  1.472518479E+03  0.000000000E+00  0.00000E+00  9.000E+00
      25     1     1     2     0     0  8.586372130E+01  1.443689512E+02 -9.411076460E+02  9.641180291E+02  1.250000000E+02  0.00000E+00  9.000E+00
      25     1     1     2     0     0 -8.067703541E+01 -7.373443140E+01 -4.917773808E+02  5.190525433E+02  1.250000000E+02  0.00000E+00  9.000E+00
      21     1     1     2   512   502 -5.186685886E+00 -7.063451985E+01  7.205007353E+01  1.010314317E+02  2.336015456E-06  0.00000E+00  9.000E+00
#rwgt            1           1   3.9810370333448968E-002           3      326646           0
</event>
<event>
      5   9999  3.79277E-02  7.89666E+01 -1.00000E+00  1.28623E-01
       2    -1     0     0   502     0  0.000000000E+00  0.000000000E+00  2.528757309E+03  2.528757309E+03  0.000000000E+00  0.00000E+00  9.000E+00
      21    -1     0     0   501   502  0.000000000E+00  0.000000000E+00 -2.465760650E+02  2.465760650E+02  0.000000000E+00  0.00000E+00  9.000E+00
      25     1     1     2     0     0  1.070642192E+02  2.275122591E+02 -1.397604624E+02  3.136599464E+02  1.250000000E+02  0.00000E+00  9.000E+00
      25     1     1     2     0     0 -2.983858003E+01 -2.110221257E+02  7.880451134E+02  8.258697108E+02  1.250000000E+02  0.00000E+00  9.000E+00
       2     1     1     2   501     0 -7.722563921E+01 -1.649013344E+01  1.633896593E+03  1.635803717E+03  2.157918644E-05  0.00000E+00  9.000E+00
#rwgt            1           1  0.17854145134704780                3      327033           0
</event>
<event>
      5   9999  3.79277E-02  1.03988E+02 -1.00000E+00  1.23069E-01
      21    -1     0     0   511   501  0.000000000E+00  0.000000000E+00  9.735809778E+02  9.735809778E+02  0.000000000E+00  0.00000E+00  9.000E+00
      21    -1     0     0   501   502  0.000000000E+00  0.000000000E+00 -2.400216215E+02  2.400216215E+02  0.000000000E+00  0.00000E+00  9.000E+00
      25     1     1     2     0     0 -2.758707345E+02  2.070001225E+02  6.877942231E+01  3.732416399E+02  1.250000000E+02  0.00000E+00  9.000E+00
      25     1     1     2     0     0  2.799106826E+02 -1.030901456E+02  2.392184121E+02  4.022785317E+02  1.250000000E+02  0.00000E+00  9.000E+00
      21     1     1     2   511   502 -4.039948146E+00 -1.039099770E+02  4.255615219E+02  4.380824277E+02  5.394796609E-06  0.00000E+00  9.000E+00
#rwgt            1           1  0.25692158720052144                3      327168           0
</event>
<event>
      5   9999  3.79277E-02  3.17898E+01 -1.00000E+00  1.51312E-01
      21    -1     0     0   512   501  0.000000000E+00  0.000000000E+00  1.338354069E+01  1.338354069E+01  0.000000000E+00  0.00000E+00  9.000E+00
      21    -1     0     0   501   502  0.000000000E+00  0.000000000E+00 -2.906072883E+03  2.906072883E+03  0.000000000E+00  0.00000E+00  9.000E+00
      25     1     1     2     0     0 -1.182983319E+01 -1.096865261E+02 -9.345115925E+02  9.492670833E+02  1.250000000E+02  0.00000E+00  9.000E+00
      25     1     1     2     0     0  3.921069786E+01  1.258382471E+02 -1.775275394E+03  1.784544891E+03  1.250000000E+02  0.00000E+00  9.000E+00
      21     1     1     2   512   502 -2.738086467E+01 -1.615172093E+01 -1.829023555E+02  1.856444491E+02  2.697398305E-06  0.00000E+00  9.000E+00
#rwgt            1           1   4.7733011747504744E-002           3      327275           0
</event>
<event>
      5   9999  3.79277E-02  3.32412E+01 -1.00000E+00  1.50008E-01
      21    -1     0     0   502   511  0.000000000E+00  0.000000000E+00  2.569709674E+02  2.569709674E+02  0.000000000E+00  0.00000E+00  9.000E+00
      21    -1     0     0   501   502  0.000000000E+00  0.000000000E+00 -4.239343719E+02  4.239343719E+02  0.000000000E+00  0.00000E+00  9.000E+00
      25     1     1     2     0     0 -5.532950998E+00  1.069936257E+02  1.435045013E+02  2.183959510E+02  1.250000000E+02  0.00000E+00  9.000E+00
      25     1     1     2     0     0  3.813066505E+01 -1.004845484E+02 -3.639467588E+02  3.995414063E+02  1.250000000E+02  0.00000E+00  9.000E+00
      21     1     1     2   501   511 -3.259771406E+01 -6.509077372E+00  5.347885292E+01  6.296798202E+01  6.743495762E-07  0.00000E+00  9.000E+00
#rwgt            1           1   5.0876988695788279E-002           3      327526           0
</event>
<event>
      5   9999  3.79277E-02  2.27142E+01 -1.00000E+00  1.61934E-01
      21    -1     0     0   502   512  0.000000000E+00  0.000000000E+00  3.601055407E+02  3.601055407E+02  0.000000000E+00  0.00000E+00  9.000E+00
      21    -1     0     0   501   502  0.000000000E+00  0.000000000E+00 -3.386216005E+02  3.386216005E+02  0.000000000E+00  0.00000E+00  9.000E+00
      25     1     1     2     0     0  1.070001011E+02 -2.546397838E+01 -7.821628265E+01  1.839571219E+02  1.250000000E+02  0.00000E+00  9.000E+00
      25     1     1     2     0     0 -1.093216203E+02  2.868690758E+00 -1.737597887E+02  2.403682804E+02  1.250000000E+02  0.00000E+00  9.000E+00
      21     1     1     2   501   512  2.321519131E+00  2.259528762E+01  2.734600115E+02  2.744017390E+02  5.394796609E-06  0.00000E+00  9.000E+00
#rwgt            1           1   4.1199781082167625E-002           3      327780           0
</event>
<event>
      5   9999  3.79277E-02  2.16125E+01 -1.00000E+00  1.63638E-01
      21    -1     0     0   502   501  0.000000000E+00  0.000000000E+00  1.464781356E+02  1.464781356E+02  0.000000000E+00  0.00000E+00  9.000E+00
      21    -1     0     0   511   502  0.000000000E+00  0.000000000E+00 -3.419362546E+02  3.419362546E+02  0.000000000E+00  0.00000E+00  9.000E+00
      25     1     1     2     0     0  1.462922340E+02  5.502945390E+01 -1.349767470E+02  2.413988002E+02  1.250000000E+02  0.00000E+00  9.000E+00
      25     1     1     2     0     0 -1.659985052E+02 -4.615471395E+01 -3.874018262E+01  2.163598001E+02  1.250000000E+02  0.00000E+00  9.000E+00
      21     1     1     2   511   501  1.970627128E+01 -8.874739957E+00 -2.174118931E+01  3.065578982E+01  2.384185791E-07  0.00000E+00  9.000E+00
#rwgt            1           1   4.1450081285269044E-002           3      327958           0
</event>
<event>
      5   9999  3.79277E-02  8.24303E+01 -1.00000E+00  1.27724E-01
      21    -1     0     0   512   501  0.000000000E+00  0.000000000E+00  5.935632623E+02  5.935632623E+02  0.000000000E+00  0.00000E+00  9.000E+00
      21    -1     0     0   501   502  0.000000000E+00  0.000000000E+00 -1.335117070E+02  1.335117070E+02  0.000000000E+00  0.00000E+00  9.000E+00
      25     1     1     2     0     0 -1.941109295E+02 -9.504562614E+01  1.670065675E+02  3.003812870E+02  1.250000000E+02  0.00000E+00  9.000E+00
      25     1     1     2     0     0  1.123583959E+02  1.055948265E+02  1.123472097E+02  2.280823800E+02  1.250000000E+02  0.00000E+00  9.000E+00
      21     1     1     2   512   502  8.175253362E+01 -1.054920039E+01  1.806977782E+02  1.986113023E+02  0.000000000E+00  0.00000E+00  9.000E+00
#rwgt            1           1   3.0454577270536798E-002           3      328070           0
</event>
<event>
      5   9999 -3.79277E-02  2.08303E+01 -1.00000E+00  1.64925E-01
      21    -1     0     0   502   501  0.000000000E+00  0.000000000E+00  3.169941646E+02  3.169941646E+02  0.000000000E+00  0.00000E+00  9.000E+00
      21    -1     0     0   501   511  0.000000000E+00  0.000000000E+00 -3.207060231E+02  3.207060231E+02  0.000000000E+00  0.00000E+00  9.000E+00
      25     1     1     2     0     0 -1.135999940E+01  2.316133317E+02 -4.356161865E+01  2.670138566E+02  1.250000000E+02  0.00000E+00  9.000E+00
      25     1     1     2     0     0 -9.425058311E+00 -2.329860473E+02  1.180855900E+02  2.897249326E+02  1.250000000E+02  0.00000E+00  9.000E+00
      21     1     1     2   502   511  2.078505771E+01  1.372715638E+00 -7.823582990E+01  8.096139853E+01  1.651812370E-06  0.00000E+00  9.000E+00
#rwgt            1           1  -7.3692601459177026E-002           3      328136           0
</event>
<event>
      5   9999  3.79277E-02  2.34777E+01 -1.00000E+00  1.60822E-01
      21    -1     0     0   502   501  0.000000000E+00  0.000000000E+00  2.572980584E+02  2.572980584E+02  0.000000000E+00  0.00000E+00  9.000E+00
      21    -1     0     0   512   502  0.000000000E+00  0.000000000E+00 -9.852660161E+02  9.852660161E+02  0.000000000E+00  0.00000E+00  9.000E+00
      25     1     1     2     0     0 -7.175304047E+01  2.035912923E+02  6.340676774E+01  2.573777988E+02  1.250000000E+02  0.00000E+00  9.000E+00
      25     1     1     2     0     0  9.494715620E+01 -1.999530057E+02 -7.032596819E+01  2.637553957E+02  1.250000000E+02  0.00000E+00  9.000E+00
      21     1     1     2   512   501 -2.319411572E+01 -3.638286607E+00 -7.210487572E+02  7.214308799E+02  7.629394531E-06  0.00000E+00  9.000E+00
#rwgt            1           1   3.9868373283430528E-002           3      328318           0
</event>
<event>
      5   9999  3.79277E-02  2.23616E+01 -1.00000E+00  1.62466E-01
      21    -1     0     0   511   501  0.000000000E+00  0.000000000E+00  1.080435305E+02  1.080435305E+02  0.000000000E+00  0.00000E+00  9.000E+00
      21    -1     0     0   501   502  0.000000000E+00  0.000000000E+00 -3.050221291E+02  3.050221291E+02  0.000000000E+00  0.00000E+00  9.000E+00
      25     1     1     2     0     0  3.614982785E+01 -1.058071915E+02 -6.534889627E+01  1.799929167E+02  1.250000000E+02  0.00000E+00  9.000E+00
      25     1     1     2     0     0 -4.764850081E+01  8.662850379E+01 -1.368996662E+02  2.100985386E+02  1.250000000E+02  0.00000E+00  9.000E+00
      21     1     1     2   511   502  1.149867296E+01  1.917868770E+01  5.269963877E+00  2.297420425E+01  2.457562462E-07  0.00000E+00  9.000E+00
#rwgt            1           1   5.6632295055411695E-002           3      328509           0
</event>
<event>
      5   9999  3.79277E-02  2.78885E+02 -1.00000E+00  1.06632E-01
      21    -1     0     0   502   501  0.000000000E+00  0.000000000E+00  1.393173157E+03  1.393173157E+03  0.000000000E+00  0.00000E+00  9.000E+00
      21    -1     0     0   501   512  0.000000000E+00  0.000000000E+00 -4.437946773E+02  4.437946773E+02  0.000000000E+00  0.00000E+00  9.000E+00
      25     1     1     2     0     0  1.453514198E+02 -1.996999855E+02  8.773185540E+02  9.199565015E+02  1.250000000E+02  0.00000E+00  9.000E+00
      25     1     1     2     0     0 -3.190809500E+02 -1.846228713E+01  3.729021926E+02  5.067884707E+02  1.250000000E+02  0.00000E+00  9.000E+00
      21     1     1     2   502   512  1.737295302E+02  2.181622727E+02 -3.008422671E+02  4.102228621E+02  0.000000000E+00  0.00000E+00  9.000E+00
#rwgt            2          11   3.9756761398845424E-003           3      328685           0
</event>
<event>
      5   9999  3.79277E-02  5.61668E+01 -1.00000E+00  1.36254E-01
      21    -1     0     0   502   511  0.000000000E+00  0.000000000E+00  4.495438651E+02  4.495438651E+02  0.000000000E+00  0.00000E+00  9.000E+00
      21    -1     0     0   501   502  0.000000000E+00  0.000000000E+00 -1.097475570E+02  1.097475570E+02  0.000000000E+00  0.00000E+00  9.000E+00
      25     1     1     2     0     0  6.471976805E+01  9.064484882E+01  1.714892193E+02  2.396637005E+02  1.250000000E+02  0.00000E+00  9.000E+00
      25     1     1     2     0     0 -1.176990817E+02 -7.199272743E+01  5.658880668E+01  1.945849934E+02  1.250000000E+02  0.00000E+00  9.000E+00
      21     1     1     2   501   511  5.297931361E+01 -1.865212139E+01  1.117182821E+02  1.250427282E+02  1.348699152E-06  0.00000E+00  9.000E+00
#rwgt            1           1   3.7456521476412895E-002           3      328705           0
</event>
<event>
      5   9999  3.79277E-02  1.30856E+02 -1.00000E+00  1.18793E-01
      21    -1     0     0   512   501  0.000000000E+00  0.000000000E+00  1.630115471E+03  1.630115471E+03  0.000000000E+00  0.00000E+00  9.000E+00
      21    -1     0     0   501   502  0.000000000E+00  0.000000000E+00 -2.416688910E+02  2.416688910E+02  0.000000000E+00  0.00000E+00  9.000E+00
      25     1     1     2     0     0  5.944704427E+01 -3.565754006E+02  4.930553398E+02  6.240260696E+02  1.250000000E+02  0.00000E+00  9.000E+00
      25     1     1     2     0     0 -1.767606879E+02  2.986037978E+02  2.727417185E+01  3.698343538E+02  1.250000000E+02  0.00000E+00  9.000E+00
      21     1     1     2   512   502  1.173136436E+02  5.797160283E+01  8.681170687E+02  8.779239390E+02  0.000000000E+00  0.00000E+00  9.000E+00
#rwgt            1           1   5.5598625944195498E-002           3      328868           0
</event>
<event>
      5   9999  3.79277E-02  1.55476E+02 -1.00000E+00  1.15780E-01
      21    -1     0     0   511   501  0.000000000E+00  0.000000000E+00  1.183194892E+03  1.183194892E+03  0.000000000E+00  0.00000E+00  9.000E+00
      21    -1     0     0   501   502  0.000000000E+00  0.000000000E+00 -1.904541795E+02  1.904541795E+02  0.000000000E+00  0.00000E+00  9.000E+00
      25     1     1     2     0     0  2.257742259E+02 -1.072813198E+02  4.301439280E+01  2.827693772E+02  1.250000000E+02  0.00000E+00  9.000E+00
      25     1     1     2     0     0 -9.377886534E+01  2.512228586E+01  3.378897685E+01  1.618403528E+02  1.250000000E+02  0.00000E+00  9.000E+00
      21     1     1     2   511   502 -1.319953606E+02  8.215903399E+01  9.159373433E+02  9.290393420E+02  1.525878906E-05  0.00000E+00  9.000E+00
#rwgt            1           1   4.3952031873596947E-002           3      328961           0
</event>
<event>
      5   9999  3.79277E-02  4.84422E+01 -1.00000E+00  1.39864E-01
      21    -1     0     0   502   501  0.000000000E+00  0.000000000E+00  3.481342249E+02  3.481342249E+02  0.000000000E+00  0.00000E+00  9.000E+00
      21    -1     0     0   501   512  0.000000000E+00  0.000000000E+00 -1.350390299E+02  1.350390299E+02  0.000000000E+00  0.00000E+00  9.000E+00
      25     1     1     2     0     0 -4.081353268E+01  5.522008675E+01  3.500385382E+01  1.468511907E+02  1.250000000E+02  0.00000E+00  9.000E+00
      25     1     1     2     0     0  8.877862308E+01 -6.200243742E+01  2.179475969E+02  2.735911204E+02  1.250000000E+02  0.00000E+00  9.000E+00
      21     1     1     2   502   512 -4.796509040E+01  6.782350666E+00 -3.985625566E+01  6.273094366E+01  1.168007728E-06  0.00000E+00  9.000E+00
#rwgt            1           1   5.2107055010262200E-002           3      329088           0
</event>
<event>
      5   9999  3.79277E-02  1.61331E+01 -1.00000E+00  1.74455E-01
      21    -1     0     0   502   511  0.000000000E+00  0.000000000E+00  4.896538297E+02  4.896538297E+02  0.000000000E+00  0.00000E+00  9.000E+00
      21    -1     0     0   501   502  0.000000000E+00  0.000000000E+00 -3.072889211E+02  3.072889211E+02  0.000000000E+00  0.00000E+00  9.000E+00
      25     1     1     2     0     0 -3.221235419E+02  1.340487227E+02  1.387950395E+02  3.957545948E+02  1.250000000E+02  0.00000E+00  9.000E+00
      25     1     1     2     0     0  3.120989810E+02 -1.214081695E+02  2.929065186E+00  3.574623015E+02  1.250000000E+02  0.00000E+00  9.000E+00
      21     1     1     2   501   511  1.002456089E+01 -1.264055327E+01  4.064080390E+01  4.372585448E+01  4.768371582E-07  0.00000E+00  9.000E+00
#rwgt            1           1   3.3201341590820728E-002           3      329138           0
</event>
<event>
      5   9999  3.79277E-02  1.56323E+02 -1.00000E+00  1.15687E-01
      21    -1     0     0   502   501  0.000000000E+00  0.000000000E+00  6.685861169E+02  6.685861169E+02  0.000000000E+00  0.00000E+00  9.000E+00
      21    -1     0     0   512   502  0.000000000E+00  0.000000000E+00 -1.777076856E+02  1.777076856E+02  0.000000000E+00  0.00000E+00  9.000E+00
      25     1     1     2     0     0 -1.223269888E+02  1.917445005E+02  4.178098224E+02  4.918535284E+02  1.250000000E+02  0.00000E+00  9.000E+00
      25     1     1     2     0     0  4.862859684E+01 -5.388431309E+01  1.235668971E+02  1.901631870E+02  1.250000000E+02  0.00000E+00  9.000E+00
      21     1     1     2   512   501  7.369839200E+01 -1.378601874E+02 -5.049828816E+01  1.642770872E+02  2.611744678E-06  0.00000E+00  9.000E+00
#rwgt            2          11   2.1955609961884603E-003           3      329366           0
</event>
<event>
      5   9999  3.79277E-02  4.75809E+01 -1.00000E+00  1.40316E-01
      21    -1     0     0   502   501  0.000000000E+00  0.000000000E+00  1.809218502E+02  1.809218502E+02  0.000000000E+00  0.00000E+00  9.000E+00
       2    -1     0     0   501     0  0.000000000E+00  0.000000000E+00 -2.300107522E+02  2.300107522E+02  0.000000000E+00  0.00000E+00  9.000E+00
      25     1     1     2     0     0  9.297025863E+01 -8.042632255E+01 -5.903755317E+01  1.849926891E+02  1.250000000E+02  0.00000E+00  9.000E+00
      25     1     1     2     0     0 -5.812168382E+01  1.128226084E+02  8.458032793E+00  1.783356650E+02  1.250000000E+02  0.00000E+00  9.000E+00
       2     1     1     2   502     0 -3.484857481E+01 -3.239628585E+01  1.490618394E+00  4.760424820E+01  1.788139343E-07  0.00000E+00  9.000E+00
#rwgt            1           1   3.3409097655589394E-002           3      329416           0
</event>
<event>
      5   9999  3.79277E-02  9.15008E+01 -1.00000E+00  1.25588E-01
      21    -1     0     0   502   501  0.000000000E+00  0.000000000E+00  5.560056834E+01  5.560056834E+01  0.000000000E+00  0.00000E+00  9.000E+00
       2    -1     0     0   501     0  0.000000000E+00  0.000000000E+00 -2.323301811E+03  2.323301811E+03  0.000000000E+00  0.00000E+00  9.000E+00
      25     1     1     2     0     0 -1.526296785E+01 -5.992399355E+01 -4.760196285E+02  4.960277511E+02  1.250000000E+02  0.00000E+00  9.000E+00
      25     1     1     2     0     0  1.051999560E+02  4.307951711E+01 -1.165834866E+02  2.052792851E+02  1.250000000E+02  0.00000E+00  9.000E+00
       2     1     1     2   502     0 -8.993698815E+01  1.684447644E+01 -1.675098128E+03  1.677595343E+03  2.157918644E-05  0.00000E+00  9.000E+00
#rwgt            1           1   5.7000291390314685E-002           3      329562           0
</event>
<event>
      5   9999  3.79277E-02  1.17154E+02 -1.00000E+00  1.20812E-01
      21    -1     0     0   502   501  0.000000000E+00  0.000000000E+00  3.530935055E+02  3.530935055E+02  0.000000000E+00  0.00000E+00  9.000E+00
      21    -1     0     0   501   511  0.000000000E+00  0.000000000E+00 -2.047078238E+02  2.047078238E+02  0.000000000E+00  0.00000E+00  9.000E+00
      25     1     1     2     0     0  5.231221520E+00  1.061878040E+02  2.361895697E+02  2.875999448E+02  1.250000000E+02  0.00000E+00  9.000E+00
      25     1     1     2     0     0  2.643452038E+01  6.605265172E+00 -8.388135544E+01  1.529820094E+02  1.250000000E+02  0.00000E+00  9.000E+00
      21     1     1     2   502   511 -3.166574190E+01 -1.127930692E+02 -3.922532541E+00  1.172193752E+02  1.685873940E-07  0.00000E+00  9.000E+00
#rwgt            1           1   4.5623933173957187E-002           3      329639           0
</event>
<event>
      5   9999  3.79277E-02  1.10134E+02 -1.00000E+00  1.21971E-01
      21    -1     0     0   502   512  0.000000000E+00  0.000000000E+00  1.604480290E+03  1.604480290E+03  0.000000000E+00  0.00000E+00  9.000E+00
      21    -1     0     0   501   502  0.000000000E+00  0.000000000E+00 -4.217693393E+02  4.217693393E+02  0.000000000E+00  0.00000E+00  9.000E+00
      25     1     1     2     0     0  1.562803252E+02 -5.785557539E+02  9.835799778E+01  6.200399956E+02  1.250000000E+02  0.00000E+00  9.000E+00
      25     1     1     2     0     0 -2.395553016E+02  6.506304434E+02  6.515330471E+02  9.595973259E+02  1.250000000E+02  0.00000E+00  9.000E+00
      21     1     1     2   501   512  8.327497645E+01 -7.207468948E+01  4.328199063E+02  4.466123082E+02  5.394796609E-06  0.00000E+00  9.000E+00
#rwgt            1           1  0.10540251599316010                3      329730           0
</event>
<event>
      5   9999  3.79277E-02  1.73898E+02 -1.00000E+00  1.13905E-01
      21    -1     0     0   511   501  0.000000000E+00  0.000000000E+00  1.436924445E+02  1.436924445E+02  0.000000000E+00  0.00000E+00  9.000E+00
      21    -1     0     0   501   502  0.000000000E+00  0.000000000E+00 -1.967886147E+03  1.967886147E+03  0.000000000E+00  0.00000E+00  9.000E+00
      25     1     1     2     0     0 -3.241354673E+02  3.078484460E+01 -1.544940525E+03  1.583817456E+03  1.250000000E+02  0.00000E+00  9.000E+00
      25     1     1     2     0     0  2.132000187E+02  1.031322451E+02 -2.110542134E+02  3.409683107E+02  1.250000000E+02  0.00000E+00  9.000E+00
      21     1     1     2   511   502  1.109354486E+02 -1.339170897E+02 -6.819896389E+01  1.867928247E+02  5.309833873E-06  0.00000E+00  9.000E+00
#rwgt            1           1   8.9104618587022552E-002           3      329815           0
</event>
<event>
      5   9999  3.79277E-02  5.88298E+01  7.55638E-03  1.35162E-01
       2    -1     0     0   501     0  0.000000000E+00  0.000000000E+00  2.503302058E+02  2.503302058E+02  0.000000000E+00  0.00000E+00  9.000E+00
      -2    -1     0     0     0   502  0.000000000E+00  0.000000000E+00 -1.371906429E+02  1.371906429E+02  0.000000000E+00  0.00000E+00  9.000E+00
      25     1     1     2     0     0  3.405629915E+01 -5.832555959E+01  8.131069943E+01  1.637013508E+02  1.250000000E+02  0.00000E+00  9.000E+00
      25     1     1     2     0     0 -4.374467314E+01  2.989683273E-01  7.374751428E+01  1.515829201E+02  1.250000000E+02  0.00000E+00  9.000E+00
      21     1     1     2   501   502  9.688373993E+00  5.802659127E+01 -4.191865076E+01  7.223657776E+01  1.430511475E-06  0.00000E+00  9.000E+00
#rwgt            3           7   3.4830888702705080E-004           3      329977           0
</event>
<event>
      5   9999  3.79277E-02  6.92704E+01 -1.00000E+00  1.31452E-01
       1    -1     0     0   502     0  0.000000000E+00  0.000000000E+00  7.302759364E+02  7.302759364E+02  0.000000000E+00  0.00000E+00  9.000E+00
      21    -1     0     0   501   502  0.000000000E+00  0.000000000E+00 -1.781728482E+03  1.781728482E+03  0.000000000E+00  0.00000E+00  9.000E+00
      25     1     1     2     0     0  1.862000930E+02 -5.766318193E+01 -3.345527549E+02  4.068735221E+02  1.250000000E+02  0.00000E+00  9.000E+00
      25     1     1     2     0     0 -1.943524130E+02 -1.112579859E+01 -1.399768523E+03  1.418757753E+03  1.250000000E+02  0.00000E+00  9.000E+00
       1     1     1     2   501     0  8.152320031E+00  6.878898052E+01  6.828687331E+02  6.863731425E+02  7.629394531E-06  0.00000E+00  9.000E+00
#rwgt            1           1   4.1557096638052314E-002           3      330011           0
</event>
<event>
      5   9999  3.79277E-02  3.64302E+01 -1.00000E+00  1.47404E-01
      21    -1     0     0   511   501  0.000000000E+00  0.000000000E+00  5.817296355E+02  5.817296355E+02  0.000000000E+00  0.00000E+00  9.000E+00
      21    -1     0     0   501   502  0.000000000E+00  0.000000000E+00 -2.335669136E+02  2.335669136E+02  0.000000000E+00  0.00000E+00  9.000E+00
      25     1     1     2     0     0  2.586275394E+02  5.836078555E+00  2.376910818E+02  3.728864630E+02  1.250000000E+02  0.00000E+00  9.000E+00
      25     1     1     2     0     0 -2.236563738E+02  4.370768608E+00 -6.404106494E+01  2.641354485E+02  1.250000000E+02  0.00000E+00  9.000E+00
      21     1     1     2   511   502 -3.497116562E+01 -1.020684716E+01  1.745127051E+02  1.782746376E+02  0.000000000E+00  0.00000E+00  9.000E+00
#rwgt            1           1   1.1047708697640704E-002           3      330108           0
</event>
<event>
      5   9999  3.79277E-02  2.02436E+01 -1.00000E+00  1.65936E-01
      21    -1     0     0   502   512  0.000000000E+00  0.000000000E+00  1.513096783E+03  1.513096783E+03  0.000000000E+00  0.00000E+00  9.000E+00
      21    -1     0     0   501   502  0.000000000E+00  0.000000000E+00 -3.318791959E+02  3.318791959E+02  0.000000000E+00  0.00000E+00  9.000E+00
      25     1     1     2     0     0  8.498573038E+01  2.201899598E+02  3.143643483E+01  2.689227439E+02  1.250000000E+02  0.00000E+00  9.000E+00
      25     1     1     2     0     0 -7.054930920E+01 -2.343812514E+02 -1.244206091E+02  3.016906760E+02  1.250000000E+02  0.00000E+00  9.000E+00
      21     1     1     2   501   512 -1.443642118E+01  1.419129152E+01  1.274201761E+03  1.274362559E+03  1.525878906E-05  0.00000E+00  9.000E+00
#rwgt            1           1   3.1478397498634826E-002           3      330234           0
</event>
<event>
      5   9999  3.79277E-02  7.09996E+01 -1.00000E+00  1.30910E-01
      -3    -1     0     0     0   501  0.000000000E+00  0.000000000E+00  1.148752759E+03  1.148752759E+03  0.000000000E+00  0.00000E+00  9.000E+00
      21    -1     0     0   501   502  0.000000000E+00  0.000000000E+00 -1.006538775E+02  1.006538775E+02  0.000000000E+00  0.00000E+00  9.000E+00
      25     1     1     2     0     0  1.775426869E+02 -6.356447292E+01  9.258409062E+01  2.444558482E+02  1.250000000E+02  0.00000E+00  9.000E+00
      25     1     1     2     0     0 -1.106947438E+02  3.964175474E+01  3.001023940E+02  3.457039802E+02  1.250000000E+02  0.00000E+00  9.000E+00
      -3     1     1     2     0   502 -6.684794313E+01  2.392271818E+01  6.554123970E+02  6.592468081E+02  0.000000000E+00  0.00000E+00  9.000E+00
#rwgt            1           1   1.7482091157959970E-002           3      330535           0
</event>
<event>
      5   9999  3.79277E-02  4.77601E+01 -1.00000E+00  1.40221E-01
      21    -1     0     0   511   501  0.000000000E+00  0.000000000E+00  9.541898471E+01  9.541898471E+01  0.000000000E+00  0.00000E+00  9.000E+00
      21    -1     0     0   501   502  0.000000000E+00  0.000000000E+00 -7.233053090E+02  7.233053090E+02  0.000000000E+00  0.00000E+00  9.000E+00
      25     1     1     2     0     0 -1.011147397E+02 -3.081108349E+01 -5.291159087E+02  5.538611363E+02  1.250000000E+02  0.00000E+00  9.000E+00
      25     1     1     2     0     0  1.467062423E+02  1.658284172E+01 -5.769624561E+01  2.018701784E+02  1.250000000E+02  0.00000E+00  9.000E+00
      21     1     1     2   511   502 -4.559150257E+01  1.422824177E+01 -4.107416997E+01  6.299297904E+01  1.430511475E-06  0.00000E+00  9.000E+00
#rwgt            1           1   3.9575910989472524E-002           3      330665           0
</event>
<event>
      5   9999  3.79277E-02  2.58358E+01 -1.00000E+00  1.57689E-01
      21    -1     0     0   512   501  0.000000000E+00  0.000000000E+00  5.803192129E+02  5.803192129E+02  0.000000000E+00  0.00000E+00  9.000E+00
      21    -1     0     0   501   502  0.000000000E+00  0.000000000E+00 -1.193049762E+03  1.193049762E+03  0.000000000E+00  0.00000E+00  9.000E+00
      25     1     1     2     0     0  2.235204817E+02 -1.225948467E+02 -7.265704394E+02  7.800772433E+02  1.250000000E+02  0.00000E+00  9.000E+00
      25     1     1     2     0     0 -2.001364346E+02  1.335800550E+02 -3.975682107E+02  4.812314471E+02  1.250000000E+02  0.00000E+00  9.000E+00
      21     1     1     2   512   502 -2.338404710E+01 -1.098520828E+01  5.114081013E+02  5.120602841E+02  5.394796609E-06  0.00000E+00  9.000E+00
#rwgt            1           1   3.4080455681358243E-002           3      330965           0
</event>
<event>
      5   9999 -3.79277E-02  3.15153E+01 -1.00000E+00  1.51568E-01
      21    -1     0     0   502   501  0.000000000E+00  0.000000000E+00  1.982998568E+03  1.982998568E+03  0.000000000E+00  0.00000E+00  9.000E+00
      21    -1     0     0   501   511  0.000000000E+00  0.000000000E+00 -1.307984315E+02  1.307984315E+02  0.000000000E+00  0.00000E+00  9.000E+00
      25     1     1     2     0     0  3.429755454E+02 -3.538241480E+02  8.939969171E+02  1.028435336E+03  1.250000000E+02  0.00000E+00  9.000E+00
      25     1     1     2     0     0 -3.226382301E+02  3.297490771E+02  9.071003966E+02  1.025322394E+03  1.250000000E+02  0.00000E+00  9.000E+00
      21     1     1     2   502   511 -2.033731535E+01  2.407507092E+01  5.110282321E+01  6.003927028E+01  6.743495762E-07  0.00000E+00  9.000E+00
#rwgt            1           1 -0.79759393935398648                3      331185           0
</event>
<event>
      5   9999  3.79277E-02  7.95550E+01 -1.00000E+00  1.28467E-01
      21    -1     0     0   512   501  0.000000000E+00  0.000000000E+00  9.809252432E+02  9.809252432E+02  0.000000000E+00  0.00000E+00  9.000E+00
      21    -1     0     0   501   502  0.000000000E+00  0.000000000E+00 -1.284032182E+02  1.284032182E+02  0.000000000E+00  0.00000E+00  9.000E+00
      25     1     1     2     0     0 -2.301073937E+02  1.188508661E+02  3.414947371E+02  4.464511133E+02  1.250000000E+02  0.00000E+00  9.000E+00
      25     1     1     2     0     0  2.161534266E+02 -4.052915447E+01  1.519462581E+02  2.950891078E+02  1.250000000E+02  0.00000E+00  9.000E+00
      21     1     1     2   512   502  1.395396710E+01 -7.832171168E+01  3.590810298E+02  3.677882403E+02  3.814697266E-06  0.00000E+00  9.000E+00
#rwgt            1           1   3.5441779080995814E-002           3      331349           0
</event>
<event>
      5   9999  5.10426E-02  9.26261E+01 -1.00000E+00  1.25343E-01
      21    -1     0     0   502   501  0.000000000E+00  0.000000000E+00  1.219622839E+03  1.219622839E+03  0.000000000E+00  0.00000E+00  9.000E+00
      21    -1     0     0   511   502  0.000000000E+00  0.000000000E+00 -1.408537435E+02  1.408537435E+02  0.000000000E+00  0.00000E+00  9.000E+00
      25     1     1     2     0     0  1.066906018E+02  2.297401444E+02  7.254067046E+02  7.784621413E+02  1.250000000E+02  0.00000E+00  9.000E+00
      25     1     1     2     0     0 -1.360648610E+02 -3.175851308E+02  2.572065581E+02  4.485021463E+02  1.250000000E+02  0.00000E+00  9.000E+00
      21     1     1     2   511   501  2.937425921E+01  8.784498638E+01  9.615583299E+01  1.335122951E+02  1.907348633E-06  0.00000E+00  9.000E+00
#rwgt            1           1  0.48837207654901715                3      331455           0
</event>
<event>
      5   9999 -3.79277E-02  2.29391E+01 -1.00000E+00  1.61601E-01
      21    -1     0     0   502   501  0.000000000E+00  0.000000000E+00  2.198129000E+02  2.198129000E+02  0.000000000E+00  0.00000E+00  9.000E+00
      21    -1     0     0   501   512  0.000000000E+00  0.000000000E+00 -4.726067532E+02  4.726067532E+02  0.000000000E+00  0.00000E+00  9.000E+00
      25     1     1     2     0     0  2.057354115E+02 -1.711211394E+02 -2.431824005E+02  3.825861782E+02  1.250000000E+02  0.00000E+00  9.000E+00
      25     1     1     2     0     0 -1.834752461E+02  1.766608273E+02  2.836598272E+00  2.837344888E+02  1.250000000E+02  0.00000E+00  9.000E+00
      21     1     1     2   502   512 -2.226016534E+01 -5.539687930E+00 -1.244805107E+01  2.609898616E+01  3.769728732E-07  0.00000E+00  9.000E+00
#rwgt            1           1  -1.1011144813808327E-002           3      331711           0
</event>
<event>
      5   9999  3.79277E-02  3.29602E+01 -1.00000E+00  1.50254E-01
      21    -1     0     0   502   511  0.000000000E+00  0.000000000E+00  3.955471051E+02  3.955471051E+02  0.000000000E+00  0.00000E+00  9.000E+00
      21    -1     0     0   501   502  0.000000000E+00  0.000000000E+00 -5.484354373E+02  5.484354373E+02  0.000000000E+00  0.00000E+00  9.000E+00
      25     1     1     2     0     0 -4.373219042E+01  6.319883768E+01 -4.010052039E+02  4.270090995E+02  1.250000000E+02  0.00000E+00  9.000E+00
      25     1     1     2     0     0  6.570919976E+01 -3.863487035E+01 -9.353467779E+01  1.737356846E+02  1.250000000E+02  0.00000E+00  9.000E+00
      21     1     1     2   501   511 -2.197700934E+01 -2.456396733E+01  3.416515495E+02  3.432377583E+02  5.394796609E-06  0.00000E+00  9.000E+00
#rwgt            1           1   3.8863730706690490E-002           3      332106           0
</event>
<event>
      5   9999  3.79277E-02  1.08423E+02 -1.00000E+00  1.22269E-01
      21    -1     0     0   512   501  0.000000000E+00  0.000000000E+00  1.115791832E+03  1.115791832E+03  0.000000000E+00  0.00000E+00  9.000E+00
      21    -1     0     0   501   502  0.000000000E+00  0.000000000E+00 -1.087625004E+02  1.087625004E+02  0.000000000E+00  0.00000E+00  9.000E+00
      25     1     1     2     0     0  1.265914888E+02  1.093115247E+02  4.421717522E+02  4.889941441E+02  1.250000000E+02  0.00000E+00  9.000E+00
      25     1     1     2     0     0 -1.913137581E+02 -1.962976000E+02  2.172198538E+02  3.714070095E+02  1.250000000E+02  0.00000E+00  9.000E+00
      21     1     1     2   512   502  6.472226932E+01  8.698607529E+01  3.476377260E+02  3.641531793E+02  3.814697266E-06  0.00000E+00  9.000E+00
#rwgt            1           1   4.4581748328897358E-002           3      332201           0
</event>
<event>
      5   9999  3.79277E-02  1.19188E+01 -1.00000E+00  1.87338E-01
      21    -1     0     0   502   511  0.000000000E+00  0.000000000E+00  3.978893376E+02  3.978893376E+02  0.000000000E+00  0.00000E+00  9.000E+00
      21    -1     0     0   501   502  0.000000000E+00  0.000000000E+00 -1.560786412E+02  1.560786412E+02  0.000000000E+00  0.00000E+00  9.000E+00
      25     1     1     2     0     0  1.821530866E+02  1.711062878E+01  1.145704227E+02  2.494471935E+02  1.250000000E+02  0.00000E+00  9.000E+00
      25     1     1     2     0     0 -1.717410733E+02 -1.130988922E+01  3.996735292E+01  2.164377489E+02  1.250000000E+02  0.00000E+00  9.000E+00
      21     1     1     2   501   511 -1.041201326E+01 -5.800739552E+00  8.727292075E+01  8.808303637E+01  1.651812370E-06  0.00000E+00  9.000E+00
#rwgt            1           1   4.1823189990369949E-002           3      332328           0
</event>
<event>
      5   9999  3.79277E-02  3.28956E+02 -1.00000E+00  1.04308E-01
      21    -1     0     0   502   501  0.000000000E+00  0.000000000E+00  6.319899183E+02  6.319899183E+02  0.000000000E+00  0.00000E+00  9.000E+00
      21    -1     0     0   512   502  0.000000000E+00  0.000000000E+00 -5.064311162E+02  5.064311162E+02  0.000000000E+00  0.00000E+00  9.000E+00
      25     1     1     2     0     0  1.283032078E+01 -3.111928509E+02  3.911487145E+02  5.153910403E+02  1.250000000E+02  0.00000E+00  9.000E+00
      25     1     1     2     0     0 -1.133948786E+02 -2.014552575E+00  4.063149199E+01  1.736040756E+02  1.250000000E+02  0.00000E+00  9.000E+00
      21     1     1     2   512   501  1.005645578E+02  3.132074035E+02 -3.062214043E+02  4.494259186E+02  9.344061824E-06  0.00000E+00  9.000E+00
#rwgt            1           1   4.0969720013227490E-002           3      332539           0
</event>
<event>
      5   9999 -3.79277E-02  1.49739E+01 -1.00000E+00  1.77455E-01
      21    -1     0     0   502   511  0.000000000E+00  0.000000000E+00  1.478957668E+03  1.478957668E+03  0.000000000E+00  0.00000E+00  9.000E+00
      21    -1     0     0   501   502  0.000000000E+00  0.000000000E+00 -5.392622939E+01  5.392622939E+01  0.000000000E+00  0.00000E+00  9.000E+00
      25     1     1     2     0     0 -2.146728974E+01  2.012764578E+02  8.069129009E+02  8.412529267E+02  1.250000000E+02  0.00000E+00  9.000E+00
      25     1     1     2     0     0  1.938091105E+01 -2.161042898E+02  3.928660807E+02  4.658813595E+02  1.250000000E+02  0.00000E+00  9.000E+00
      21     1     1     2   501   511  2.086378687E+00  1.482783195E+01  2.252524569E+02  2.257496111E+02  2.697398305E-06  0.00000E+00  9.000E+00
#rwgt            1           1 -0.17350381238875301                3      332574           0
</event>
<event>
      5   9999  3.79277E-02  7.23224E+01 -1.00000E+00  1.30507E-01
      21    -1     0     0   512   501  0.000000000E+00  0.000000000E+00  9.486299055E+01  9.486299055E+01  0.000000000E+00  0.00000E+00  9.000E+00
      21    -1     0     0   501   502  0.000000000E+00  0.000000000E+00 -5.200912205E+02  5.200912205E+02  0.000000000E+00  0.00000E+00  9.000E+00
      25     1     1     2     0     0  4.491221173E+01 -1.447484156E+02 -1.164146077E+02  2.283562381E+02  1.250000000E+02  0.00000E+00  9.000E+00
      25     1     1     2     0     0  3.090150974E-01  8.830753364E+01 -2.511202186E+02  2.940827777E+02  1.250000000E+02  0.00000E+00  9.000E+00
      21     1     1     2   512   502 -4.522122683E+01  5.644088199E+01 -5.769340371E+01  9.251519522E+01  9.536743164E-07  0.00000E+00  9.000E+00
#rwgt            1           1   4.5409202574247291E-002           3      332770           0
</event>
<event>
      5   9999  3.79277E-02  8.88872E+01 -1.00000E+00  1.26174E-01
      -2    -1     0     0     0   501  0.000000000E+00  0.000000000E+00  1.171023552E+03  1.171023552E+03  0.000000000E+00  0.00000E+00  9.000E+00
      21    -1     0     0   501   502  0.000000000E+00  0.000000000E+00 -7.758324116E+01  7.758324116E+01  0.000000000E+00  0.00000E+00  9.000E+00
      25     1     1     2     0     0  1.065224279E+02 -1.584182864E+02  2.524102337E+02  3.402635849E+02  1.250000000E+02  0.00000E+00  9.000E+00
      25     1     1     2     0     0 -1.775480686E+01  1.630274449E+02  3.262813152E+02  3.859762656E+02  1.250000000E+02  0.00000E+00  9.000E+00
      -2     1     1     2     0   502 -8.876762108E+01 -4.609158502E+00  5.147487621E+02  5.223669429E+02  7.629394531E-06  0.00000E+00  9.000E+00
#rwgt            1           1   3.4234641894297105E-002           3      332867           0
</event>
<event>
      5   9999  3.79277E-02  2.99600E+01 -1.00000E+00  1.53080E-01
      21    -1     0     0   502   501  0.000000000E+00  0.000000000E+00  2.680518998E+02  2.680518998E+02  0.000000000E+00  0.00000E+00  9.000E+00
      21    -1     0     0   501   511  0.000000000E+00  0.000000000E+00 -1.838069384E+02  1.838069384E+02  0.000000000E+00  0.00000E+00  9.000E+00
      25     1     1     2     0     0  1.347244998E+02  8.449500337E+01  2.179151817E+01  2.034452425E+02  1.250000000E+02  0.00000E+00  9.000E+00
      25     1     1     2     0     0 -1.204853870E+02 -1.108550434E+02  6.993242473E+01  2.175341655E+02  1.250000000E+02  0.00000E+00  9.000E+00
      21     1     1     2   502   511 -1.423911281E+01  2.636003999E+01 -7.478981473E+00  3.087943014E+01  6.078504936E-07  0.00000E+00  9.000E+00
#rwgt            1           1   7.8123161167913735E-002           3      332933           0
</event>
<event>
      5   9999  3.79277E-02  1.05688E+02 -1.00000E+00  1.22757E-01
      21    -1     0     0   512   501  0.000000000E+00  0.000000000E+00  1.549946631E+02  1.549946631E+02  0.000000000E+00  0.00000E+00  9.000E+00
      21    -1     0     0   501   502  0.000000000E+00  0.000000000E+00 -4.772355847E+02  4.772355847E+02  0.000000000E+00  0.00000E+00  9.000E+00
      25     1     1     2     0     0  2.001044974E+01  1.564581940E+02 -3.808233987E+01  2.048288289E+02  1.250000000E+02  0.00000E+00  9.000E+00
      25     1     1     2     0     0  8.035413658E+01 -1.233385613E+02 -2.508776094E+02  3.165971618E+02  1.250000000E+02  0.00000E+00  9.000E+00
      21     1     1     2   512   502 -1.003645863E+02 -3.311963262E+01 -3.328097242E+01  1.108042570E+02  1.719260824E-06  0.00000E+00  9.000E+00
#rwgt            1           1   3.1765693796878471E-002           3      333097           0
</event>
<event>
      5   9999  3.79277E-02  4.77572E+01 -1.00000E+00  1.40222E-01
      21    -1     0     0   502   501  0.000000000E+00  0.000000000E+00  1.302187961E+03  1.302187961E+03  0.000000000E+00  0.00000E+00  9.000E+00
       1    -1     0     0   501     0  0.000000000E+00  0.000000000E+00 -2.880876270E+02  2.880876270E+02  0.000000000E+00  0.00000E+00  9.000E+00
      25     1     1     2     0     0 -2.064381599E+01  1.057869124E+02  3.021388827E+02  3.442817776E+02  1.250000000E+02  0.00000E+00  9.000E+00
      25     1     1     2     0     0 -2.626816739E+01 -1.147321486E+02  9.692353226E+02  9.843249428E+02  1.250000000E+02  0.00000E+00  9.000E+00
       1     1     1     2   502     0  4.691198339E+01  8.945236215E+00 -2.572738712E+02  2.616688676E+02  0.000000000E+00  0.00000E+00  9.000E+00
#rwgt            2          12   2.4771071462114571E-003           3      333182           0
</event>
<event>
      5   9999  3.79277E-02  6.44872E+01 -1.00000E+00  1.33051E-01
      21    -1     0     0   511   501  0.000000000E+00  0.000000000E+00  1.055327794E+03  1.055327794E+03  0.000000000E+00  0.00000E+00  9.000E+00
      21    -1     0     0   501   502  0.000000000E+00  0.000000000E+00 -4.676644746E+02  4.676644746E+02  0.000000000E+00  0.00000E+00  9.000E+00
      25     1     1     2     0     0 -1.665307185E+02  2.524718929E+02  2.612308490E+02  4.187374994E+02  1.250000000E+02  0.00000E+00  9.000E+00
      25     1     1     2     0     0  1.073956723E+02 -2.781944568E+02 -3.198204307E+02  4.547923637E+02  1.250000000E+02  0.00000E+00  9.000E+00
      21     1     1     2   511   502  5.913504616E+01  2.572256381E+01  6.462529013E+02  6.494624057E+02  7.629394531E-06  0.00000E+00  9.000E+00
#rwgt            1           1   4.8660940396451781E-002           3      333276           0
</event>
<event>
      5   9999  3.79277E-02  1.64192E+02 -1.00000E+00  1.14859E-01
      21    -1     0     0   502   501  0.000000000E+00  0.000000000E+00  5.237276655E+02  5.237276655E+02  0.000000000E+00  0.00000E+00  9.000E+00
      21    -1     0     0   512   502  0.000000000E+00  0.000000000E+00 -8.275198305E+02  8.275198305E+02  0.000000000E+00  0.00000E+00  9.000E+00
      25     1     1     2     0     0 -2.100266859E+02  3.030514429E+01  1.116653721E+01  2.465345861E+02  1.250000000E+02  0.00000E+00  9.000E+00
      25     1     1     2     0     0  4.634221979E+01 -4.320516001E+01  3.724628154E+02  3.979545653E+02  1.250000000E+02  0.00000E+00  9.000E+00
      21     1     1     2   512   501  1.636844661E+02  1.290001572E+01 -6.874215176E+02  7.067583446E+02  1.525878906E-05  0.00000E+00  9.000E+00
#rwgt            1           1   3.0619811707619710E-002           3      333424           0
</event>
<event>
      5   9999  3.79277E-02  1.86620E+01 -1.00000E+00  1.68889E-01
      21    -1     0     0   502   501  0.000000000E+00  0.000000000E+00  1.595291804E+02  1.595291804E+02  0.000000000E+00  0.00000E+00  9.000E+00
      21    -1     0     0   511   502  0.000000000E+00  0.000000000E+00 -3.479786112E+02  3.479786112E+02  0.000000000E+00  0.00000E+00  9.000E+00
      25     1     1     2     0     0 -1.501813504E+02 -6.884951145E+01  1.360756519E+01  2.076170972E+02  1.250000000E+02  0.00000E+00  9.000E+00
      25     1     1     2     0     0  1.498122793E+02  5.019119741E+01 -1.935782461E+02  2.793929360E+02  1.250000000E+02  0.00000E+00  9.000E+00
      21     1     1     2   511   501  3.690710705E-01  1.865831403E+01 -8.478749891E+00  2.049775831E+01  2.384185791E-07  0.00000E+00  9.000E+00
#rwgt            1           1   3.1784238622268722E-002           3      333485           0
</event>
<event>
      5   9999 -3.79277E-02  1.52515E+02 -1.00000E+00  1.16108E-01
      21    -1     0     0   512   501  0.000000000E+00  0.000000000E+00  8.920355685E+01  8.920355685E+01  0.000000000E+00  0.00000E+00  9.000E+00
      21    -1     0     0   501   502  0.000000000E+00  0.000000000E+00 -1.246472203E+03  1.246472203E+03  0.000000000E+00  0.00000E+00  9.000E+00
      25     1     1     2     0     0 -1.473562539E+02  6.395843572E+01 -2.157645157E+02  2.966207567E+02  1.250000000E+02  0.00000E+00  9.000E+00
      25     1     1     2     0     0  2.458947886E+02  5.245039054E+01 -6.896791613E+02  7.446459803E+02  1.250000000E+02  0.00000E+00  9.000E+00
      21     1     1     2   512   502 -9.853853464E+01 -1.164088263E+02 -2.518249692E+02  2.944090229E+02  0.000000000E+00  0.00000E+00  9.000E+00
#rwgt            1           1 -0.13075771256299037                3      333942           0
</event>
<event>
      5   9999  3.79277E-02  2.67372E+01 -1.00000E+00  1.56596E-01
      21    -1     0     0   502   501  0.000000000E+00  0.000000000E+00  5.100375991E+02  5.100375991E+02  0.000000000E+00  0.00000E+00  9.000E+00
       2    -1     0     0   501     0  0.000000000E+00  0.000000000E+00 -1.416804740E+03  1.416804740E+03  0.000000000E+00  0.00000E+00  9.000E+00
      25     1     1     2     0     0  5.418890879E+01 -6.223730061E+01  2.697752093E+02  3.085669830E+02  1.250000000E+02  0.00000E+00  9.000E+00
      25     1     1     2     0     0 -4.254899211E+01  3.816677103E+01  1.993399455E+02  2.421332960E+02  1.250000000E+02  0.00000E+00  9.000E+00
       2     1     1     2   502     0 -1.163991668E+01  2.407052958E+01 -1.375882296E+03  1.376142061E+03  1.525878906E-05  0.00000E+00  9.000E+00
#rwgt            1           1   4.1807499492909524E-002           3      334016           0
</event>
<event>
      5   9999  3.79277E-02  3.76785E+01 -1.00000E+00  1.46469E-01
       2    -1     0     0   502     0  0.000000000E+00  0.000000000E+00  7.700021217E+02  7.700021217E+02  0.000000000E+00  0.00000E+00  9.000E+00
      21    -1     0     0   501   502  0.000000000E+00  0.000000000E+00 -3.258047120E+02  3.258047120E+02  0.000000000E+00  0.00000E+00  9.000E+00
      25     1     1     2     0     0  7.078448370E+01  6.533733816E+01 -1.759547099E+02  2.363566602E+02  1.250000000E+02  0.00000E+00  9.000E+00
      25     1     1     2     0     0 -6.387539415E+01 -1.023769448E+02 -5.577436451E+01  1.824743394E+02  1.250000000E+02  0.00000E+00  9.000E+00
       2     1     1     2   501     0 -6.909089550E+00  3.703960668E+01  6.759264841E+02  6.769758341E+02  0.000000000E+00  0.00000E+00  9.000E+00
#rwgt            1           1   4.0334510266153617E-002           3      334128           0
</event>
<event>
      5   9999  3.79277E-02  4.43888E+01 -1.00000E+00  1.42091E-01
      21    -1     0     0   502   511  0.000000000E+00  0.000000000E+00  3.640073427E+02  3.640073427E+02  0.000000000E+00  0.00000E+00  9.000E+00
      21    -1     0     0   501   502  0.000000000E+00  0.000000000E+00 -4.656773682E+02  4.656773682E+02  0.000000000E+00  0.00000E+00  9.000E+00
      25     1     1     2     0     0 -8.010431077E+01  1.812466788E+02 -3.602314584E+02  4.297194001E+02  1.250000000E+02  0.00000E+00  9.000E+00
      25     1     1     2     0     0  1.022332952E+02 -1.427671622E+02  1.043157650E+02  2.394595750E+02  1.250000000E+02  0.00000E+00  9.000E+00
      21     1     1     2   501   511 -2.212898441E+01 -3.847951663E+01  1.542456679E+02  1.605057357E+02  0.000000000E+00  0.00000E+00  9.000E+00
#rwgt            1           1   2.1780894888796556E-002           3      334219           0
</event>
<event>
      5   9999  3.79277E-02  4.09532E+01 -1.00000E+00  1.44209E-01
      21    -1     0     0   512   501  0.000000000E+00  0.000000000E+00  5.389576828E+02  5.389576828E+02  0.000000000E+00  0.00000E+00  9.000E+00
      21    -1     0     0   501   502  0.000000000E+00  0.000000000E+00 -2.901262653E+02  2.901262653E+02  0.000000000E+00  0.00000E+00  9.000E+00
      25     1     1     2     0     0  1.246223790E+01 -7.816725768E+01 -2.193268328E+02  2.645650905E+02  1.250000000E+02  0.00000E+00  9.000E+00
      25     1     1     2     0     0 -4.581727225E+01  5.440574898E+01  6.252485112E+01  1.568233559E+02  1.250000000E+02  0.00000E+00  9.000E+00
      21     1     1     2   512   502  3.335503435E+01  2.376150870E+01  4.056333991E+02  4.076955016E+02  7.629394531E-06  0.00000E+00  9.000E+00
#rwgt            1           1   4.5671089012848262E-002           3      334358           0
</event>
<event>
      5   9999  3.79277E-02  4.84921E+01 -1.00000E+00  1.39839E-01
      21    -1     0     0   502   501  0.000000000E+00  0.000000000E+00  9.610098317E+02  9.610098317E+02  0.000000000E+00  0.00000E+00  9.000E+00
      21    -1     0     0   501   511  0.000000000E+00  0.000000000E+00 -5.369227232E+02  5.369227232E+02  0.000000000E+00  0.00000E+00  9.000E+00
      25     1     1     2     0     0 -2.278134035E+02 -1.634543912E+02  7.100203958E+02  7.735439530E+02  1.250000000E+02  0.00000E+00  9.000E+00
      25     1     1     2     0     0  2.674354017E+02  1.914112005E+02  7.539699598E+01  3.598189110E+02  1.250000000E+02  0.00000E+00  9.000E+00
      21     1     1     2   502   511 -3.962199812E+01 -2.795680922E+01 -3.613302832E+02  3.645696908E+02  9.344061824E-06  0.00000E+00  9.000E+00
#rwgt            1           1   4.0238573017954249E-002           3      334500           0
</event>
<event>
      5   9999  3.79277E-02  1.54482E+02 -1.00000E+00  1.15889E-01
       2    -1     0     0   502     0  0.000000000E+00  0.000000000E+00  3.325406008E+03  3.325406008E+03  0.000000000E+00  0.00000E+00  9.000E+00
      21    -1     0     0   501   502  0.000000000E+00  0.000000000E+00 -1.279899860E+02  1.279899860E+02  0.000000000E+00  0.00000E+00  9.000E+00
      25     1     1     2     0     0  1.585332782E+02 -5.618510151E+01  1.262968654E+00  2.095618310E+02  1.250000000E+02  0.00000E+00  9.000E+00
      25     1     1     2     0     0 -1.206815067E+01  1.053040880E+02  2.863495685E+02  3.299328213E+02  1.250000000E+02  0.00000E+00  9.000E+00
       2     1     1     2   501     0 -1.464651276E+02 -4.911898651E+01  2.909803484E+03  2.913901341E+03  4.315837288E-05  0.00000E+00  9.000E+00
#rwgt            2          18   1.9796101377381539E-003           3      334689           0
</event>
<event>
      5   9999  3.79277E-02  4.46200E+01 -1.00000E+00  1.41956E-01
      21    -1     0     0   502   501  0.000000000E+00  0.000000000E+00  8.332283042E+02  8.332283042E+02  0.000000000E+00  0.00000E+00  9.000E+00
      21    -1     0     0   511   502  0.000000000E+00  0.000000000E+00 -1.552451016E+02  1.552451016E+02  0.000000000E+00  0.00000E+00  9.000E+00
      25     1     1     2     0     0  9.940127436E+00  3.505734391E+01  2.109904366E+01  1.319014524E+02  1.250000000E+02  0.00000E+00  9.000E+00
      25     1     1     2     0     0 -5.454541454E+01 -3.620242400E+01  7.447639721E+02  7.580133191E+02  1.250000000E+02  0.00000E+00  9.000E+00
      21     1     1     2   511   501  4.460528711E+01  1.145080090E+00 -8.787981311E+01  9.855863431E+01  2.697398305E-06  0.00000E+00  9.000E+00
#rwgt            1           1   4.2456772398096844E-002           3      334753           0
</event>
<event>
      5   9999  3.79277E-02  3.81147E+01 -1.00000E+00  1.46153E-01
      21    -1     0     0   502   501  0.000000000E+00  0.000000000E+00  1.141382554E+02  1.141382554E+02  0.000000000E+00  0.00000E+00  9.000E+00
       1    -1     0     0   501     0  0.000000000E+00  0.000000000E+00 -9.999350252E+02  9.999350252E+02  0.000000000E+00  0.00000E+00  9.000E+00
      25     1     1     2     0     0  1.080261785E+02 -1.164325832E+02 -1.599278702E+02  2.577365425E+02  1.250000000E+02  0.00000E+00  9.000E+00
      25     1     1     2     0     0 -1.024723461E+02  1.541404342E+02 -1.283462926E+02  2.575997399E+02  1.250000000E+02  0.00000E+00  9.000E+00
       1     1     1     2   502     0 -5.553832389E+00 -3.770785101E+01 -5.975226070E+02  5.987369982E+02  0.000000000E+00  0.00000E+00  9.000E+00
#rwgt            1           1   4.3820646211220712E-002           3      334902           0
</event>
<event>
      5   9999  3.79277E-02  8.73969E+01 -1.00000E+00  1.26518E-01
       3    -1     0     0   502     0  0.000000000E+00  0.000000000E+00  5.971425640E+02  5.971425640E+02  0.000000000E+00  0.00000E+00  9.000E+00
      21    -1     0     0   501   502  0.000000000E+00  0.000000000E+00 -1.633012729E+02  1.633012729E+02  0.000000000E+00  0.00000E+00  9.000E+00
      25     1     1     2     0     0  1.852744992E+00  1.652905298E+02  4.127730873E+02  4.618777040E+02  1.250000000E+02  0.00000E+00  9.000E+00
      25     1     1     2     0     0  1.629808597E+01 -7.979923050E+01 -7.642981915E+01  1.676307312E+02  1.250000000E+02  0.00000E+00  9.000E+00
       3     1     1     2   501     0 -1.815083096E+01 -8.549129928E+01  9.749802299E+01  1.309354016E+02  0.000000000E+00  0.00000E+00  9.000E+00
#rwgt            2          19   1.1095970299373563E-005           3      335001           0
</event>
<event>
      5   9999  3.79277E-02  7.20062E+01 -1.00000E+00  1.30602E-01
      21    -1     0     0   502   501  0.000000000E+00  0.000000000E+00  3.742178034E+02  3.742178034E+02  0.000000000E+00  0.00000E+00  9.000E+00
      21    -1     0     0   501   511  0.000000000E+00  0.000000000E+00 -1.783958241E+02  1.783958241E+02  0.000000000E+00  0.00000E+00  9.000E+00
      25     1     1     2     0     0  7.858372687E+00  4.913874513E+01  2.557121329E+02  2.889464746E+02  1.250000000E+02  0.00000E+00  9.000E+00
      25     1     1     2     0     0  4.908344789E+01 -9.321279758E+01  9.394560364E+00  1.637408570E+02  1.250000000E+02  0.00000E+00  9.000E+00
      21     1     1     2   502   511 -5.694182057E+01  4.407405245E+01 -6.928471395E+01  9.992629592E+01  1.348699152E-06  0.00000E+00  9.000E+00
#rwgt            1           1   3.9899251409344326E-002           3      335050           0
</event>
<event>
      5   9999  3.79277E-02  1.98708E+01 -1.00000E+00  1.66602E-01
      21    -1     0     0   512   501  0.000000000E+00  0.000000000E+00  2.479809982E+02  2.479809982E+02  0.000000000E+00  0.00000E+00  9.000E+00
      21    -1     0     0   501   502  0.000000000E+00  0.000000000E+00 -2.066367095E+02  2.066367095E+02  0.000000000E+00  0.00000E+00  9.000E+00
      25     1     1     2     0     0 -2.950736169E+01  9.535597132E+01  1.405090182E+02  2.129113192E+02  1.250000000E+02  0.00000E+00  9.000E+00
      25     1     1     2     0     0  4.783515015E+01 -8.767874467E+01 -1.292269319E+02  2.056705224E+02  1.250000000E+02  0.00000E+00  9.000E+00
      21     1     1     2   512   502 -1.832778846E+01 -7.677226651E+00  3.006220233E+01  3.603586614E+01  3.371747881E-07  0.00000E+00  9.000E+00
#rwgt            1           1   3.7392662988987836E-002           3      335162           0
</event>
<event>
      5   9999  3.79277E-02  1.62647E+01 -1.00000E+00  1.74134E-01
      21    -1     0     0   502   501  0.000000000E+00  0.000000000E+00  1.419968801E+02  1.419968801E+02  0.000000000E+00  0.00000E+00  9.000E+00
      21    -1     0     0   511   502  0.000000000E+00  0.000000000E+00 -3.579681094E+02  3.579681094E+02  0.000000000E+00  0.00000E+00  9.000E+00
      25     1     1     2     0     0 -3.645519671E+01  1.578942652E+02 -3.521557064E+01  2.076649147E+02  1.250000000E+02  0.00000E+00  9.000E+00
      25     1     1     2     0     0  2.651357877E+01 -1.707669577E+02 -1.706691470E+02  2.731616398E+02  1.250000000E+02  0.00000E+00  9.000E+00
      21     1     1     2   511   501  9.941617946E+00  1.287269250E+01 -1.008651166E+01  1.913843508E+01  2.064765462E-07  0.00000E+00  9.000E+00
#rwgt            1           1   3.5492546875484449E-002           3      335337           0
</event>
<event>
      5   9999  3.79277E-02  2.33229E+01 -1.00000E+00  1.61043E-01
      21    -1     0     0   512   501  0.000000000E+00  0.000000000E+00  1.163776166E+02  1.163776166E+02  0.000000000E+00  0.00000E+00  9.000E+00
      21    -1     0     0   501   502  0.000000000E+00  0.000000000E+00 -4.032363108E+02  4.032363108E+02  0.000000000E+00  0.00000E+00  9.000E+00
      25     1     1     2     0     0  1.099508437E+02  8.681329412E+01 -1.956839317E+02  2.711880107E+02  1.250000000E+02  0.00000E+00  9.000E+00
      25     1     1     2     0     0 -1.166221088E+02 -1.091617108E+02 -9.631886223E+01  2.245424650E+02  1.250000000E+02  0.00000E+00  9.000E+00
      21     1     1     2   512   502  6.671265147E+00  2.234841663E+01  5.144099702E+00  2.388345173E+01  2.980232239E-07  0.00000E+00  9.000E+00
#rwgt            1           1   3.9325812494532507E-002           3      335518           0
</event>
<event>
      5   9999  3.79277E-02  4.02321E+01 -1.00000E+00  1.44684E-01
      21    -1     0     0   502   501  0.000000000E+00  0.000000000E+00  3.693363942E+02  3.693363942E+02  0.000000000E+00  0.00000E+00  9.000E+00
      21    -1     0     0   511   502  0.000000000E+00  0.000000000E+00 -1.590264839E+02  1.590264839E+02  0.000000000E+00  0.00000E+00  9.000E+00
      25     1     1     2     0     0  1.223861605E+02  1.602545526E+01  2.691218055E+02  3.213825349E+02  1.250000000E+02  0.00000E+00  9.000E+00
      25     1     1     2     0     0 -9.476662050E+01  1.322832860E+01 -5.418343014E+01  1.664828674E+02  1.250000000E+02  0.00000E+00  9.000E+00
      21     1     1     2   511   501 -2.761954005E+01 -2.925378386E+01 -4.628465101E+00  4.049747587E+01  4.086288572E-07  0.00000E+00  9.000E+00
#rwgt            1           1   3.6383704986418137E-002           3      335752           0
</event>
<event>
      5   9999  3.79277E-02  7.40868E+01 -1.00000E+00  1.29985E-01
      21    -1     0     0   502   512  0.000000000E+00  0.000000000E+00  1.464804019E+03  1.464804019E+03  0.000000000E+00  0.00000E+00  9.000E+00
      21    -1     0     0   501   502  0.000000000E+00  0.000000000E+00 -6.273497777E+01  6.273497777E+01  0.000000000E+00  0.00000E+00  9.000E+00
      25     1     1     2     0     0  1.929361093E+01 -1.029271285E+02  6.996607996E+02  7.184124663E+02  1.250000000E+02  0.00000E+00  9.000E+00
      25     1     1     2     0     0 -4.240719880E+01  3.253810916E+01  3.877471626E+01  1.413703564E+02  1.250000000E+02  0.00000E+00  9.000E+00
      21     1     1     2   501   512  2.311358786E+01  7.038901935E+01  6.636335250E+02  6.677561737E+02  1.321449896E-05  0.00000E+00  9.000E+00
#rwgt            1           1   4.0422722913079426E-002           3      335926           0
</event>
<event>
      5   9999  3.79277E-02  3.11482E+01 -1.00000E+00  1.51915E-01
      21    -1     0     0   502   501  0.000000000E+00  0.000000000E+00  2.537966218E+02  2.537966218E+02  0.000000000E+00  0.00000E+00  9.000E+00
      21    -1     0     0   511   502  0.000000000E+00  0.000000000E+00 -3.498243803E+02  3.498243803E+02  0.000000000E+00  0.00000E+00  9.000E+00
      25     1     1     2     0     0 -4.286485691E+01 -2.208778268E+01 -1.433383021E+02  1.962043194E+02  1.250000000E+02  0.00000E+00  9.000E+00
      25     1     1     2     0     0  7.398697968E+01  2.081251642E+01  2.019721301E+02  2.496497053E+02  1.250000000E+02  0.00000E+00  9.000E+00
      21     1     1     2   511   501 -3.112212277E+01  1.275266256E+00 -1.546615866E+02  1.577669775E+02  0.000000000E+00  0.00000E+00  9.000E+00
#rwgt            1           1   4.2812011974677718E-002           3      335999           0
</event>
<event>
      5   9999  3.79277E-02  7.01349E+01 -1.00000E+00  1.31178E-01
      21    -1     0     0   502   501  0.000000000E+00  0.000000000E+00  8.573520062E+01  8.573520062E+01  0.000000000E+00  0.00000E+00  9.000E+00
       1    -1     0     0   501     0  0.000000000E+00  0.000000000E+00 -2.024181976E+03  2.024181976E+03  0.000000000E+00  0.00000E+00  9.000E+00
      25     1     1     2     0     0  1.066402175E+02 -1.590520027E+02 -1.523776414E+02  2.747974184E+02  1.250000000E+02  0.00000E+00  9.000E+00
      25     1     1     2     0     0 -1.764823810E+02  1.654535378E+02 -7.717515198E+02  8.183802981E+02  1.250000000E+02  0.00000E+00  9.000E+00
       1     1     1     2   502     0  6.984216347E+01 -6.401535124E+00 -1.014317614E+03  1.016739460E+03  1.078959322E-05  0.00000E+00  9.000E+00
#rwgt            1           1   3.5719302324711523E-002           3      336182           0
</event>
<event>
      5   9999  3.79277E-02  3.12676E+01 -1.00000E+00  1.51802E-01
      21    -1     0     0   502   511  0.000000000E+00  0.000000000E+00  3.838714971E+01  3.838714971E+01  0.000000000E+00  0.00000E+00  9.000E+00
      21    -1     0     0   501   502  0.000000000E+00  0.000000000E+00 -1.015258960E+03  1.015258960E+03  0.000000000E+00  0.00000E+00  9.000E+00
      25     1     1     2     0     0  3.790207916E+01 -9.943932051E+01 -2.893958529E+02  3.327156530E+02  1.250000000E+02  0.00000E+00  9.000E+00
      25     1     1     2     0     0 -6.223501895E+01  1.190752219E+02 -6.194733215E+02  6.460838198E+02  1.250000000E+02  0.00000E+00  9.000E+00
      21     1     1     2   501   511  2.433293978E+01 -1.963590138E+01 -6.800263570E+01  7.484663683E+01  1.651812370E-06  0.00000E+00  9.000E+00
#rwgt            2          11   2.4482780082551977E-003           3      336276           0
</event>
<event>
      5   9999  3.79277E-02  3.34288E+01 -1.00000E+00  1.49846E-01
      21    -1     0     0   502   512  0.000000000E+00  0.000000000E+00  8.501293573E+01  8.501293573E+01  0.000000000E+00  0.00000E+00  9.000E+00
      21    -1     0     0   501   502  0.000000000E+00  0.000000000E+00 -4.777458184E+02  4.777458184E+02  0.000000000E+00  0.00000E+00  9.000E+00
      25     1     1     2     0     0  7.226835923E+01  6.721070786E+01 -2.695684782E+02  3.131008774E+02  1.250000000E+02  0.00000E+00  9.000E+00
      25     1     1     2     0     0 -1.036267681E+02 -7.879225744E+01 -1.185062398E+02  2.159061272E+02  1.250000000E+02  0.00000E+00  9.000E+00
      21     1     1     2   501   512  3.135840883E+01  1.158154957E+01 -4.658164615E+00  3.375174947E+01  4.214684851E-07  0.00000E+00  9.000E+00
#rwgt            1           1   3.4536172712325584E-002           3      336341           0
</event>
<event>
      5   9999  3.79277E-02  1.05237E+01 -1.00000E+00  1.93229E-01
      21    -1     0     0   502   501  0.000000000E+00  0.000000000E+00  9.627017689E+02  9.627017689E+02  0.000000000E+00  0.00000E+00  9.000E+00
      21    -1     0     0   511   502  0.000000000E+00  0.000000000E+00 -1.325316052E+02  1.325316052E+02  0.000000000E+00  0.00000E+00  9.000E+00
      25     1     1     2     0     0  1.418876933E+01  2.612716494E+02  1.074934888E+02  3.092637161E+02  1.250000000E+02  0.00000E+00  9.000E+00
      25     1     1     2     0     0 -6.204488141E+00 -2.681272298E+02  7.117108592E+02  7.707710776E+02  1.250000000E+02  0.00000E+00  9.000E+00
      21     1     1     2   511   501 -7.984281192E+00  6.855580359E+00  1.096581576E+01  1.519858031E+01  2.384185791E-07  0.00000E+00  9.000E+00
#rwgt            1           1   3.1640696596908935E-002           3      336467           0
</event>
<event>
      5   9999 -3.79277E-02  1.87465E+01 -1.00000E+00  1.68722E-01
      21    -1     0     0   502   501  0.000000000E+00  0.000000000E+00  3.816915345E+02  3.816915345E+02  0.000000000E+00  0.00000E+00  9.000E+00
      21    -1     0     0   512   502  0.000000000E+00  0.000000000E+00 -2.030385242E+02  2.030385242E+02  0.000000000E+00  0.00000E+00  9.000E+00
      25     1     1     2     0     0  1.624562538E+01  1.699105204E+02  1.982656971E+02  2.899444635E+02  1.250000000E+02  0.00000E+00  9.000E+00
      25     1     1     2     0     0 -1.791556354E+01 -1.512384998E+02  6.550390567E+01  2.076290271E+02  1.250000000E+02  0.00000E+00  9.000E+00
      21     1     1     2   512   501  1.669938156E+00 -1.867202057E+01 -8.511659242E+01  8.715656803E+01  9.536743164E-07  0.00000E+00  9.000E+00
#rwgt            1           1 -0.22445012423279900                3      336844           0
</event>
<event>
      5   9999  3.79277E-02  4.02948E+01 -1.00000E+00  1.44643E-01
      21    -1     0     0   502   501  0.000000000E+00  0.000000000E+00  1.296195989E+03  1.296195989E+03  0.000000000E+00  0.00000E+00  9.000E+00
      -2    -1     0     0     0   502  0.000000000E+00  0.000000000E+00 -1.496558065E+02  1.496558065E+02  0.000000000E+00  0.00000E+00  9.000E+00
      25     1     1     2     0     0 -1.622100126E+02 -2.922444210E+02  7.198664385E+02  8.034622450E+02  1.250000000E+02  0.00000E+00  9.000E+00
      25     1     1     2     0     0  1.229602574E+02  3.013619212E+02  4.687045102E+02  5.841636332E+02  1.250000000E+02  0.00000E+00  9.000E+00
      -2     1     1     2     0   501  3.924975520E+01 -9.117500231E+00 -4.203076648E+01  5.822591712E+01  6.743495762E-07  0.00000E+00  9.000E+00
#rwgt            1           1   3.5431878557069467E-002           3      337057           0
</event>
<event>
      5   9999  3.79277E-02  3.78751E+01 -1.00000E+00  1.46326E-01
      21    -1     0     0   502   501  0.000000000E+00  0.000000000E+00  1.606981384E+03  1.606981384E+03  0.000000000E+00  0.00000E+00  9.000E+00
      21    -1     0     0   501   511  0.000000000E+00  0.000000000E+00 -6.421643600E+01  6.421643600E+01  0.000000000E+00  0.00000E+00  9.000E+00
      25     1     1     2     0     0 -4.428466090E+01  5.161758813E+01  1.316240405E+03  1.323910613E+03  1.250000000E+02  0.00000E+00  9.000E+00
      25     1     1     2     0     0  7.704465955E+00 -6.143665339E+01  2.610850469E+02  2.960138897E+02  1.250000000E+02  0.00000E+00  9.000E+00
      21     1     1     2   502   511  3.658019495E+01  9.819065263E+00 -3.456050370E+01  5.127331783E+01  3.631483605E-06  0.00000E+00  9.000E+00
#rwgt            1           1   3.0841453503704652E-002           3      337298           0
</event>
<event>
      5   9999  3.79277E-02  4.37426E+01 -1.00000E+00  1.42472E-01
      21    -1     0     0   502   501  0.000000000E+00  0.000000000E+00  9.284378727E+02  9.284378727E+02  0.000000000E+00  0.00000E+00  9.000E+00
      21    -1     0     0   501   512  0.000000000E+00  0.000000000E+00 -5.840830914E+01  5.840830914E+01  0.000000000E+00  0.00000E+00  9.000E+00
      25     1     1     2     0     0  1.339391193E+02 -9.507781586E+01  2.864398567E+02  3.530612840E+02  1.250000000E+02  0.00000E+00  9.000E+00
      25     1     1     2     0     0 -1.400123513E+02  5.175884508E+01  5.298708278E+02  5.645091059E+02  1.250000000E+02  0.00000E+00  9.000E+00
      21     1     1     2   502   512  6.073231970E+00  4.331897078E+01  5.371887909E+01  6.927579192E+01  1.168007728E-06  0.00000E+00  9.000E+00
#rwgt            1           1   4.4631272642588732E-002           3      337403           0
</event>
<event>
      5   9999 -3.79277E-02  7.82576E+01 -1.00000E+00  1.28814E-01
      21    -1     0     0   502   511  0.000000000E+00  0.000000000E+00  1.352369737E+03  1.352369737E+03  0.000000000E+00  0.00000E+00  9.000E+00
      21    -1     0     0   501   502  0.000000000E+00  0.000000000E+00 -1.421087891E+02  1.421087891E+02  0.000000000E+00  0.00000E+00  9.000E+00
      25     1     1     2     0     0  1.452054844E+02 -3.667903477E+02  6.512476312E+02  7.716011075E+02  1.250000000E+02  0.00000E+00  9.000E+00
      25     1     1     2     0     0 -1.408845002E+02  2.886520906E+02  3.160923388E+02  4.676620986E+02  1.250000000E+02  0.00000E+00  9.000E+00
      21     1     1     2   501   511 -4.320984186E+00  7.813825702E+01  2.429209776E+02  2.552153198E+02  0.000000000E+00  0.00000E+00  9.000E+00
#rwgt            1           1  -1.1814981797661807E-002           3      337576           0
</event>
<event>
      5   9999  3.79277E-02  5.85055E+01 -1.00000E+00  1.35291E-01
      21    -1     0     0   512   501  0.000000000E+00  0.000000000E+00  3.026954843E+02  3.026954843E+02  0.000000000E+00  0.00000E+00  9.000E+00
      21    -1     0     0   501   502  0.000000000E+00  0.000000000E+00 -3.576884130E+02  3.576884130E+02  0.000000000E+00  0.00000E+00  9.000E+00
      25     1     1     2     0     0  1.790440477E+02 -1.166220359E+02 -1.656344699E+02  2.978544072E+02  1.250000000E+02  0.00000E+00  9.000E+00
      25     1     1     2     0     0 -2.320323537E+02  9.182015090E+01  6.073215440E+01  2.856279885E+02  1.250000000E+02  0.00000E+00  9.000E+00
      21     1     1     2   512   502  5.298830600E+01  2.480188496E+01  4.990938680E+01  7.690150169E+01  0.000000000E+00  0.00000E+00  9.000E+00
#rwgt            1           1   2.8596950862460977E-002           3      337772           0
</event>
<event>
      5   9999  3.79277E-02  1.73383E+01 -1.00000E+00  1.71655E-01
      21    -1     0     0   502   501  0.000000000E+00  0.000000000E+00  1.045993906E+02  1.045993906E+02  0.000000000E+00  0.00000E+00  9.000E+00
       2    -1     0     0   501     0  0.000000000E+00  0.000000000E+00 -1.959798087E+03  1.959798087E+03  0.000000000E+00  0.00000E+00  9.000E+00
      25     1     1     2     0     0  3.526182775E+01  1.341021372E+02 -2.755112926E+02  3.328036238E+02  1.250000000E+02  0.00000E+00  9.000E+00
      25     1     1     2     0     0 -3.462731767E+01 -1.167754869E+02 -2.441985634E+01  1.762296651E+02  1.250000000E+02  0.00000E+00  9.000E+00
       2     1     1     2   502     0 -6.345100777E-01 -1.732665032E+01 -1.555267547E+03  1.555364188E+03  0.000000000E+00  0.00000E+00  9.000E+00
#rwgt            1           1   4.6270158426676797E-002           3      337826           0
</event>
<event>
      5   9999  3.79277E-02  1.79913E+02 -1.00000E+00  1.13347E-01
      21    -1     0     0   502   501  0.000000000E+00  0.000000000E+00  1.662719132E+03  1.662719132E+03  0.000000000E+00  0.00000E+00  9.000E+00
      21    -1     0     0   511   502  0.000000000E+00  0.000000000E+00 -1.080202295E+02  1.080202295E+02  0.000000000E+00  0.00000E+00  9.000E+00
      25     1     1     2     0     0 -7.325977932E+01 -7.164508355E+01  2.445469508E+02  2.931351641E+02  1.250000000E+02  0.00000E+00  9.000E+00
      25     1     1     2     0     0  2.527940555E+02  8.330921412E+01  1.255641843E+03  1.289614942E+03  1.250000000E+02  0.00000E+00  9.000E+00
      21     1     1     2   511   501 -1.795342762E+02 -1.166413058E+01  5.451010827E+01  1.879892555E+02  3.631483605E-06  0.00000E+00  9.000E+00
#rwgt            1           1   8.2582149003529809E-002           3      338191           0
</event>
<event>
      5   9999  3.79277E-02  3.69418E+01 -1.00000E+00  1.47015E-01
      21    -1     0     0   502   501  0.000000000E+00  0.000000000E+00  1.258796527E+02  1.258796527E+02  0.000000000E+00  0.00000E+00  9.000E+00
      21    -1     0     0   512   502  0.000000000E+00  0.000000000E+00 -5.829102324E+02  5.829102324E+02  0.000000000E+00  0.00000E+00  9.000E+00
      25     1     1     2     0     0  1.470307924E+02 -4.538327845E+01 -9.742849356E+01  2.208959194E+02  1.250000000E+02  0.00000E+00  9.000E+00
      25     1     1     2     0     0 -1.483029651E+02  8.463417533E+00 -8.690104102E+01  2.127021152E+02  1.250000000E+02  0.00000E+00  9.000E+00
      21     1     1     2   512   501  1.272172712E+00  3.691986092E+01 -2.727010451E+02  2.751918504E+02  5.394796609E-06  0.00000E+00  9.000E+00
#rwgt            1           1   3.3174864953699465E-002           3      338231           0
</event>
<event>
      5   9999  3.79277E-02  1.50846E+01 -1.00000E+00  1.77154E-01
      21    -1     0     0   502   501  0.000000000E+00  0.000000000E+00  6.751355687E+01  6.751355687E+01  0.000000000E+00  0.00000E+00  9.000E+00
      21    -1     0     0   511   502  0.000000000E+00  0.000000000E+00 -2.037990812E+03  2.037990812E+03  0.000000000E+00  0.00000E+00  9.000E+00
      25     1     1     2     0     0 -2.087794467E+02  6.557968530E+01 -2.149942324E+02  3.312658637E+02  1.250000000E+02  0.00000E+00  9.000E+00
      25     1     1     2     0     0  1.944527660E+02 -7.030112688E+01 -1.620174102E+03  1.638091343E+03  1.250000000E+02  0.00000E+00  9.000E+00
      21     1     1     2   511   501  1.432668068E+01  4.721441587E+00 -1.353089211E+02  1.361471628E+02  2.697398305E-06  0.00000E+00  9.000E+00
#rwgt            1           1   3.7094856468129128E-002           3      338327           0
</event>
<event>
      5   9999  3.79277E-02  8.29289E+01 -1.00000E+00  1.27598E-01
       2    -1     0     0   502     0  0.000000000E+00  0.000000000E+00  1.585578882E+03  1.585578882E+03  0.000000000E+00  0.00000E+00  9.000E+00
      21    -1     0     0   501   502  0.000000000E+00  0.000000000E+00 -6.535659611E+01  6.535659611E+01  0.000000000E+00  0.00000E+00  9.000E+00
      25     1     1     2     0     0 -1.208026095E+02  1.074195395E+02  2.648689802E+02  3.345337122E+02  1.250000000E+02  0.00000E+00  9.000E+00
      25     1     1     2     0     0  1.883574640E+02 -5.932023389E+01  4.526457631E+02  5.094218401E+02  1.250000000E+02  0.00000E+00  9.000E+00
       2     1     1     2   501     0 -6.755485450E+01 -4.809930566E+01  8.027075429E+02  8.069799260E+02  1.078959322E-05  0.00000E+00  9.000E+00
#rwgt            2          18   4.6832569994283125E-004           3      338589           0
</event>
<event>
      5   9999  3.79277E-02  2.79777E+01 -1.00000E+00  1.55175E-01
      21    -1     0     0   502   511  0.000000000E+00  0.000000000E+00  5.212700862E+02  5.212700862E+02  0.000000000E+00  0.00000E+00  9.000E+00
      21    -1     0     0   501   502  0.000000000E+00  0.000000000E+00 -1.004706120E+02  1.004706120E+02  0.000000000E+00  0.00000E+00  9.000E+00
      25     1     1     2     0     0  1.659299710E+02  4.240256135E+01  2.829983364E+02  3.536153148E+02  1.250000000E+02  0.00000E+00  9.000E+00
      25     1     1     2     0     0 -1.400056383E+02 -3.188211747E+01  8.525258234E+01  2.085930271E+02  1.250000000E+02  0.00000E+00  9.000E+00
      21     1     1     2   501   511 -2.592433270E+01 -1.052044388E+01  5.254855547E+01  5.953235630E+01  6.743495762E-07  0.00000E+00  9.000E+00
#rwgt            1           1   3.0880679298853336E-002           3      338653           0
</event>
<event>
      5   9999  3.79277E-02  3.61200E+02 -1.00000E+00  1.03037E-01
      21    -1     0     0   502   501  0.000000000E+00  0.000000000E+00  7.120550579E+02  7.120550579E+02  0.000000000E+00  0.00000E+00  9.000E+00
       2    -1     0     0   501     0  0.000000000E+00  0.000000000E+00 -2.036880033E+03  2.036880033E+03  0.000000000E+00  0.00000E+00  9.000E+00
      25     1     1     2     0     0  4.209402659E+02 -3.997909709E+02  2.348193336E+02  6.385833128E+02  1.250000000E+02  0.00000E+00  9.000E+00
      25     1     1     2     0     0 -7.869584041E+01  2.843179156E+02  1.565221985E+02  3.565864707E+02  1.250000000E+02  0.00000E+00  9.000E+00
       2     1     1     2   502     0 -3.422444255E+02  1.154730553E+02 -1.716166507E+03  1.753765307E+03  2.157918644E-05  0.00000E+00  9.000E+00
#rwgt            1           1   4.6236397548472134E-002           3      338816           0
</event>
<event>
      5   9999  3.79277E-02  1.59468E+02 -1.00000E+00  1.15350E-01
      21    -1     0     0   502   501  0.000000000E+00  0.000000000E+00  4.551705348E+02  4.551705348E+02  0.000000000E+00  0.00000E+00  9.000E+00
      21    -1     0     0   501   511  0.000000000E+00  0.000000000E+00 -1.669003908E+02  1.669003908E+02  0.000000000E+00  0.00000E+00  9.000E+00
      25     1     1     2     0     0  1.750205588E+02 -2.421242897E+01  1.832225371E+02  2.835735104E+02  1.250000000E+02  0.00000E+00  9.000E+00
      25     1     1     2     0     0 -3.307258999E+01  9.688130302E+01  4.133850622E+01  1.667742641E+02  1.250000000E+02  0.00000E+00  9.000E+00
      21     1     1     2   502   511 -1.419479688E+02 -7.266887405E+01  6.370910056E+01  1.717231510E+02  2.336015456E-06  0.00000E+00  9.000E+00
#rwgt            1           1   4.9052919239538043E-002           3      338869           0
</event>
<event>
      5   9999  3.79277E-02  9.15680E+01 -1.00000E+00  1.25573E-01
      21    -1     0     0   502   501  0.000000000E+00  0.000000000E+00  2.773676794E+02  2.773676794E+02  0.000000000E+00  0.00000E+00  9.000E+00
       1    -1     0     0   501     0  0.000000000E+00  0.000000000E+00 -1.280093391E+03  1.280093391E+03  0.000000000E+00  0.00000E+00  9.000E+00
      25     1     1     2     0     0 -1.482870165E+02  1.806554478E+02  1.652968061E+01  2.655629124E+02  1.250000000E+02  0.00000E+00  9.000E+00
      25     1     1     2     0     0  1.742783663E+02 -9.285364267E+01  3.268214708E+01  2.359827762E+02  1.250000000E+02  0.00000E+00  9.000E+00
       1     1     1     2   502     0 -2.599134975E+01 -8.780180513E+01 -1.051937539E+03  1.055915382E+03  0.000000000E+00  0.00000E+00  9.000E+00
#rwgt            1           1   4.3739769425964511E-002           3      338916           0
</event>
<event>
      5   9999  3.79277E-02  1.15416E+01 -1.00000E+00  1.88824E-01
      21    -1     0     0   511   501  0.000000000E+00  0.000000000E+00  1.254981787E+03  1.254981787E+03  0.000000000E+00  0.00000E+00  9.000E+00
      21    -1     0     0   501   502  0.000000000E+00  0.000000000E+00 -1.760404889E+02  1.760404889E+02  0.000000000E+00  0.00000E+00  9.000E+00
      25     1     1     2     0     0 -1.604099939E+02 -3.183186948E+02  1.294932906E+02  3.993139992E+02  1.250000000E+02  0.00000E+00  9.000E+00
      25     1     1     2     0     0  1.682271615E+02  3.268099551E+02  8.876373254E+02  9.688292657E+02  1.250000000E+02  0.00000E+00  9.000E+00
      21     1     1     2   511   502 -7.817167583E+00 -8.491260271E+00  6.181068216E+01  6.287901112E+01  6.743495762E-07  0.00000E+00  9.000E+00
#rwgt            1           1  0.15531117696227609                3      338981           0
</event>
<event>
      5   9999  3.79277E-02  1.98464E+01 -1.00000E+00  1.66646E-01
      21    -1     0     0   502   512  0.000000000E+00  0.000000000E+00  2.494100665E+02  2.494100665E+02  0.000000000E+00  0.00000E+00  9.000E+00
      21    -1     0     0   501   502  0.000000000E+00  0.000000000E+00 -1.220176123E+02  1.220176123E+02  0.000000000E+00  0.00000E+00  9.000E+00
      25     1     1     2     0     0  6.227822715E+01  7.637580502E+01  7.847697466E+01  1.774696501E+02  1.250000000E+02  0.00000E+00  9.000E+00
      25     1     1     2     0     0 -7.984628244E+01 -6.714302749E+01  2.814373086E+01  1.652291879E+02  1.250000000E+02  0.00000E+00  9.000E+00
      21     1     1     2   501   512  1.756805530E+01 -9.232777537E+00  2.077174867E+01  2.872884075E+01  2.384185791E-07  0.00000E+00  9.000E+00
#rwgt            1           1   1.5786443810803765E-002           3      339184           0
</event>
<event>
      5   9999  3.79277E-02  4.45032E+01 -1.00000E+00  1.42024E-01
      21    -1     0     0   502   511  0.000000000E+00  0.000000000E+00  1.886613816E+02  1.886613816E+02  0.000000000E+00  0.00000E+00  9.000E+00
      21    -1     0     0   501   502  0.000000000E+00  0.000000000E+00 -3.077590972E+02  3.077590972E+02  0.000000000E+00  0.00000E+00  9.000E+00
      25     1     1     2     0     0  1.632752865E+01  8.370150664E+00  9.717102488E+01  1.593858704E+02  1.250000000E+02  0.00000E+00  9.000E+00
      25     1     1     2     0     0  7.404097387E+00 -4.601784123E+01 -2.485272660E+02  2.820696090E+02  1.250000000E+02  0.00000E+00  9.000E+00
      21     1     1     2   501   511 -2.373162604E+01  3.764769057E+01  3.225852552E+01  5.496499930E+01  4.768371582E-07  0.00000E+00  9.000E+00
#rwgt            1           1   4.9022417613711317E-002           3      339339           0
</event>
<event>
      5   9999  3.79277E-02  3.02881E+01 -1.00000E+00  1.52752E-01
      21    -1     0     0   502   512  0.000000000E+00  0.000000000E+00  8.134156506E+02  8.134156506E+02  0.000000000E+00  0.00000E+00  9.000E+00
      21    -1     0     0   501   502  0.000000000E+00  0.000000000E+00 -4.599916144E+01  4.599916144E+01  0.000000000E+00  0.00000E+00  9.000E+00
      25     1     1     2     0     0  1.055099085E+02 -4.005340099E+01  3.790691392E+02  4.147951639E+02  1.250000000E+02  0.00000E+00  9.000E+00
      25     1     1     2     0     0 -1.166458550E+02  6.822001813E+01  3.088284657E+02  3.595278120E+02  1.250000000E+02  0.00000E+00  9.000E+00
      21     1     1     2   501   512  1.113594649E+01 -2.816661714E+01  7.951888427E+01  8.509183616E+01  1.651812370E-06  0.00000E+00  9.000E+00
#rwgt            1           1   4.4520241095981176E-002           3      339431           0
</event>
<event>
      5   9999  3.79277E-02  3.37713E+01 -1.00000E+00  1.49552E-01
      21    -1     0     0   502   511  0.000000000E+00  0.000000000E+00  8.503856880E+02  8.503856880E+02  0.000000000E+00  0.00000E+00  9.000E+00
      21    -1     0     0   501   502  0.000000000E+00  0.000000000E+00 -4.572288969E+01  4.572288969E+01  0.000000000E+00  0.00000E+00  9.000E+00
      25     1     1     2     0     0  9.925291573E+01  2.376404650E+01  2.190646607E+02  2.720849073E+02  1.250000000E+02  0.00000E+00  9.000E+00
      25     1     1     2     0     0 -1.267438647E+02 -4.148996820E+00  4.422410783E+02  4.767424805E+02  1.250000000E+02  0.00000E+00  9.000E+00
      21     1     1     2   501   511  2.749094893E+01 -1.961504968E+01  1.433570592E+02  1.472811898E+02  1.907348633E-06  0.00000E+00  9.000E+00
#rwgt            1           1   4.4940141714523082E-002           3      339572           0
</event>
<event>
      5   9999  3.79277E-02  2.11758E+01 -1.00000E+00  1.64348E-01
      21    -1     0     0   502   512  0.000000000E+00  0.000000000E+00  1.176038582E+03  1.176038582E+03  0.000000000E+00  0.00000E+00  9.000E+00
      21    -1     0     0   501   502  0.000000000E+00  0.000000000E+00 -3.692135484E+01  3.692135484E+01  0.000000000E+00  0.00000E+00  9.000E+00
      25     1     1     2     0     0 -3.049561560E+01  2.679350219E+01  1.073911334E+02  1.697225084E+02  1.250000000E+02  0.00000E+00  9.000E+00
      25     1     1     2     0     0  9.895147512E+00 -3.169624884E+01  9.520699569E+02  9.608146382E+02  1.250000000E+02  0.00000E+00  9.000E+00
      21     1     1     2   501   512  2.060046808E+01  4.902746650E+00  7.965613681E+01  8.242279018E+01  9.536743164E-07  0.00000E+00  9.000E+00
#rwgt            1           1   3.8342072193456915E-002           3      339660           0
</event>
<event>
      5   9999  3.79277E-02  1.29341E+01 -1.00000E+00  1.83669E-01
      21    -1     0     0   511   501  0.000000000E+00  0.000000000E+00  3.717041941E+01  3.717041941E+01  0.000000000E+00  0.00000E+00  9.000E+00
      21    -1     0     0   501   502  0.000000000E+00  0.000000000E+00 -1.277604909E+03  1.277604909E+03  0.000000000E+00  0.00000E+00  9.000E+00
      25     1     1     2     0     0 -1.482747226E+02 -5.399227966E+00 -7.427942264E+02  7.677127118E+02  1.250000000E+02  0.00000E+00  9.000E+00
      25     1     1     2     0     0  1.586726882E+02  1.309171277E+01 -4.936310595E+02  5.335213565E+02  1.250000000E+02  0.00000E+00  9.000E+00
      21     1     1     2   511   502 -1.039796564E+01 -7.692484807E+00 -4.009203636E+00  1.354126012E+01  3.998401125E-07  0.00000E+00  9.000E+00
#rwgt            1           1   4.4881158244293479E-002           3      339898           0
</event>
<event>
      5   9999  3.79277E-02  2.11037E+01 -1.00000E+00  1.64467E-01
      21    -1     0     0   502   512  0.000000000E+00  0.000000000E+00  8.460467850E+01  8.460467850E+01  0.000000000E+00  0.00000E+00  9.000E+00
      21    -1     0     0   501   502  0.000000000E+00  0.000000000E+00 -2.525278944E+03  2.525278944E+03  0.000000000E+00  0.00000E+00  9.000E+00
      25     1     1     2     0     0  1.350141468E+02  1.241320508E+01 -9.649754102E+02  9.824385221E+02  1.250000000E+02  0.00000E+00  9.000E+00
      25     1     1     2     0     0 -1.379416904E+02 -3.331285863E+01 -1.544215534E+03  1.555751996E+03  1.250000000E+02  0.00000E+00  9.000E+00
      21     1     1     2   501   512  2.927543626E+00  2.089965355E+01  6.851667861E+01  7.169310481E+01  4.473129043E-06  0.00000E+00  9.000E+00
#rwgt            1           1  0.30893661502498976                3      340092           0
</event>
<event>
      5   9999  3.79277E-02  8.14077E+01 -1.00000E+00  1.27984E-01
      21    -1     0     0   502   501  0.000000000E+00  0.000000000E+00  1.657197203E+02  1.657197203E+02  0.000000000E+00  0.00000E+00  9.000E+00
      21    -1     0     0   501   511  0.000000000E+00  0.000000000E+00 -1.438068097E+03  1.438068097E+03  0.000000000E+00  0.00000E+00  9.000E+00
      25     1     1     2     0     0  4.826245625E+01 -1.719742274E+02  4.199902842E+01  2.220209854E+02  1.250000000E+02  0.00000E+00  9.000E+00
      25     1     1     2     0     0 -1.081200390E+02  2.271492974E+02 -5.967012183E+02  6.595180741E+02  1.250000000E+02  0.00000E+00  9.000E+00
      21     1     1     2   502   511  5.985758278E+01 -5.517506992E+01 -7.176461865E+02  7.222487574E+02  7.629394531E-06  0.00000E+00  9.000E+00
#rwgt            1           1   3.7569532957489708E-002           3      340305           0
</event>
<event>
      5   9999  3.79277E-02  3.94818E+01 -1.00000E+00  1.45192E-01
      21    -1     0     0   512   501  0.000000000E+00  0.000000000E+00  4.435583004E+02  4.435583004E+02  0.000000000E+00  0.00000E+00  9.000E+00
      21    -1     0     0   501   502  0.000000000E+00  0.000000000E+00 -1.250242159E+02  1.250242159E+02  0.000000000E+00  0.00000E+00  9.000E+00
      25     1     1     2     0     0 -1.156527375E+02  7.507430741E+01  4.843211059E+01  1.923080255E+02  1.250000000E+02  0.00000E+00  9.000E+00
      25     1     1     2     0     0  1.022110946E+02 -3.795105113E+01  8.380113128E+01  1.858360023E+02  1.250000000E+02  0.00000E+00  9.000E+00
      21     1     1     2   512   502  1.344164295E+01 -3.712325628E+01  1.863008427E+02  1.904384885E+02  2.697398305E-06  0.00000E+00  9.000E+00
#rwgt            1           1   3.7008119202773471E-002           3      340454           0
</event>
<event>
      5   9999  3.79277E-02  2.96462E+01 -1.00000E+00  1.53399E-01
      21    -1     0     0   502   501  0.000000000E+00  0.000000000E+00  2.918849238E+02  2.918849238E+02  0.000000000E+00  0.00000E+00  9.000E+00
      21    -1     0     0   511   502  0.000000000E+00  0.000000000E+00 -2.757211538E+02  2.757211538E+02  0.000000000E+00  0.00000E+00  9.000E+00
      25     1     1     2     0     0  1.684498868E+02  2.181133160E+01  1.834630331E+02  2.795259971E+02  1.250000000E+02  0.00000E+00  9.000E+00
      25     1     1     2     0     0 -1.389791231E+02 -2.503213327E+01 -9.762661527E+01  2.123623328E+02  1.250000000E+02  0.00000E+00  9.000E+00
      21     1     1     2   511   501 -2.947076363E+01  3.220801675E+00 -6.967264780E+01  7.571774774E+01  1.348699152E-06  0.00000E+00  9.000E+00
#rwgt            1           1   3.6477629506880556E-002           3      340518           0
</event>
<event>
      5   9999  3.79277E-02  1.23028E+01 -1.00000E+00  1.85897E-01
      21    -1     0     0   512   501  0.000000000E+00  0.000000000E+00  9.142234382E+02  9.142234382E+02  0.000000000E+00  0.00000E+00  9.000E+00
      21    -1     0     0   501   502  0.000000000E+00  0.000000000E+00 -3.355301076E+01  3.355301076E+01  0.000000000E+00  0.00000E+00  9.000E+00
      25     1     1     2     0     0 -5.443318090E+01 -3.362650051E+01  1.717987379E+02  2.218862750E+02  1.250000000E+02  0.00000E+00  9.000E+00
      25     1     1     2     0     0  6.385881009E+01  2.571970654E+01  6.225578551E+02  6.387039485E+02  1.250000000E+02  0.00000E+00  9.000E+00
      21     1     1     2   512   502 -9.425629189E+00  7.906793966E+00  8.631383446E+01  8.718622537E+01  9.536743164E-07  0.00000E+00  9.000E+00
#rwgt            1           1   5.9168631827320489E-002           3      340721           0
</event>
<event>
      5   9999  3.79277E-02  2.90234E+01 -1.00000E+00  1.54045E-01
      21    -1     0     0   511   501  0.000000000E+00  0.000000000E+00  1.429605825E+03  1.429605825E+03  0.000000000E+00  0.00000E+00  9.000E+00
      21    -1     0     0   501   502  0.000000000E+00  0.000000000E+00 -1.081750373E+02  1.081750373E+02  0.000000000E+00  0.00000E+00  9.000E+00
      25     1     1     2     0     0 -2.191662005E+02  2.176662798E+02  5.298669592E+02  6.259364403E+02  1.250000000E+02  0.00000E+00  9.000E+00
      25     1     1     2     0     0  1.902753765E+02 -2.148957111E+02  3.510198049E+02  4.703453932E+02  1.250000000E+02  0.00000E+00  9.000E+00
      21     1     1     2   511   502  2.889082400E+01 -2.770568723E+00  4.405440240E+02  4.414990293E+02  5.394796609E-06  0.00000E+00  9.000E+00
#rwgt            1           1   3.2626859241042701E-002           3      340987           0
</event>
<event>
      5   9999  3.79277E-02  1.94619E+01 -1.00000E+00  1.67352E-01
      21    -1     0     0   502   512  0.000000000E+00  0.000000000E+00  2.302623236E+02  2.302623236E+02  0.000000000E+00  0.00000E+00  9.000E+00
      21    -1     0     0   501   502  0.000000000E+00  0.000000000E+00 -1.626308302E+02  1.626308302E+02  0.000000000E+00  0.00000E+00  9.000E+00
      25     1     1     2     0     0 -6.827016212E+01 -5.625979603E+01 -6.119956524E+01  1.649132089E+02  1.250000000E+02  0.00000E+00  9.000E+00
      25     1     1     2     0     0  5.074891929E+01  6.473157322E+01  6.846501777E+01  1.645542100E+02  1.250000000E+02  0.00000E+00  9.000E+00
      21     1     1     2   501   512  1.752124283E+01 -8.471777190E+00  6.036604087E+01  6.342573491E+01  6.743495762E-07  0.00000E+00  9.000E+00
#rwgt            1           1   3.7771852829453195E-002           3      341297           0
</event>
<event>
      5   9999  3.79277E-02  2.28887E+01 -1.00000E+00  1.61676E-01
      21    -1     0     0   502   501  0.000000000E+00  0.000000000E+00  1.405366938E+02  1.405366938E+02  0.000000000E+00  0.00000E+00  9.000E+00
      21    -1     0     0   501   511  0.000000000E+00  0.000000000E+00 -6.438752982E+02  6.438752982E+02  0.000000000E+00  0.00000E+00  9.000E+00
      25     1     1     2     0     0 -1.933882110E+02 -1.412230330E+01 -3.716426017E+02  4.374261801E+02  1.250000000E+02  0.00000E+00  9.000E+00
      25     1     1     2     0     0  1.712783149E+02  2.004200786E+01  3.344760040E-01  2.129860444E+02  1.250000000E+02  0.00000E+00  9.000E+00
      21     1     1     2   502   511  2.210989603E+01 -5.919704562E+00 -1.320304786E+02  1.339997675E+02  0.000000000E+00  0.00000E+00  9.000E+00
#rwgt            1           1   3.0558980458391009E-002           3      341424           0
</event>
<event>
      5   9999  3.79277E-02  5.82873E+01 -1.00000E+00  1.35379E-01
      21    -1     0     0   502   501  0.000000000E+00  0.000000000E+00  3.381631311E+02  3.381631311E+02  0.000000000E+00  0.00000E+00  9.000E+00
      21    -1     0     0   501   512  0.000000000E+00  0.000000000E+00 -1.193855001E+03  1.193855001E+03  0.000000000E+00  0.00000E+00  9.000E+00
      25     1     1     2     0     0 -1.602733062E+02  1.696270259E+02  1.757829085E+02  3.177821447E+02  1.250000000E+02  0.00000E+00  9.000E+00
      25     1     1     2     0     0  1.027279783E+02 -1.788977765E+02 -7.023106455E+01  2.512266992E+02  1.250000000E+02  0.00000E+00  9.000E+00
      21     1     1     2   502   512  5.754532786E+01  9.270750556E+00 -9.612437134E+02  9.630092877E+02  1.078959322E-05  0.00000E+00  9.000E+00
#rwgt            1           1   4.0244331293739236E-002           3      341599           0
</event>
<event>
      5   9999  3.79277E-02  5.02214E+01 -1.00000E+00  1.38966E-01
      21    -1     0     0   502   501  0.000000000E+00  0.000000000E+00  6.775033787E+02  6.775033787E+02  0.000000000E+00  0.00000E+00  9.000E+00
      21    -1     0     0   501   511  0.000000000E+00  0.000000000E+00 -1.795825839E+02  1.795825839E+02  0.000000000E+00  0.00000E+00  9.000E+00
      25     1     1     2     0     0  8.193921073E+01  1.728066682E+02  4.444497838E+02  4.997367198E+02  1.250000000E+02  0.00000E+00  9.000E+00
      25     1     1     2     0     0 -3.275650964E+01 -1.626456630E+02  1.447351701E+02  2.531795215E+02  1.250000000E+02  0.00000E+00  9.000E+00
      21     1     1     2   502   511 -4.918270109E+01 -1.016100516E+01 -9.126415904E+01  1.041697213E+02  2.336015456E-06  0.00000E+00  9.000E+00
#rwgt            1           1   3.1445667465263095E-002           3      341681           0
</event>
<event>
      5   9999 -3.79277E-02  5.43187E+01 -1.00000E+00  1.37053E-01
      21    -1     0     0   502   501  0.000000000E+00  0.000000000E+00  5.947842439E+02  5.947842439E+02  0.000000000E+00  0.00000E+00  9.000E+00
      21    -1     0     0   512   502  0.000000000E+00  0.000000000E+00 -7.278035657E+02  7.278035657E+02  0.000000000E+00  0.00000E+00  9.000E+00
      25     1     1     2     0     0 -2.502919961E+02 -2.966037253E+02 -1.663523723E+02  4.403611756E+02  1.250000000E+02  0.00000E+00  9.000E+00
      25     1     1     2     0     0  3.046106432E+02  2.965606633E+02  3.476665786E+02  5.632343392E+02  1.250000000E+02  0.00000E+00  9.000E+00
      21     1     1     2   512   501 -5.431864716E+01  4.306202332E-02 -3.143335280E+02  3.189922948E+02  3.814697266E-06  0.00000E+00  9.000E+00
#rwgt            1           1 -0.67938822047084579                3      341800           0
</event>
<event>
      5   9999 -3.79277E-02  3.96514E+01 -1.00000E+00  1.45076E-01
      21    -1     0     0   502   501  0.000000000E+00  0.000000000E+00  2.979297225E+03  2.979297225E+03  0.000000000E+00  0.00000E+00  9.000E+00
      21    -1     0     0   501   511  0.000000000E+00  0.000000000E+00 -1.945900027E+02  1.945900027E+02  0.000000000E+00  0.00000E+00  9.000E+00
      25     1     1     2     0     0 -3.538748312E+01 -1.915713748E+02  2.679301866E+03  2.689281569E+03  1.250000000E+02  0.00000E+00  9.000E+00
      25     1     1     2     0     0  6.712796313E+01  1.678063492E+02  2.510611238E+02  3.336492502E+02  1.250000000E+02  0.00000E+00  9.000E+00
      21     1     1     2   502   511 -3.174048000E+01  2.376502557E+01 -1.456557680E+02  1.509564085E+02  0.000000000E+00  0.00000E+00  9.000E+00
#rwgt            1           1  -2.4776838242566306E-002           3      341989           0
</event>
<event>
      5   9999  3.79277E-02  5.78547E+01 -1.00000E+00  1.35554E-01
      -2    -1     0     0     0   501  0.000000000E+00  0.000000000E+00  1.637953193E+03  1.637953193E+03  0.000000000E+00  0.00000E+00  9.000E+00
      21    -1     0     0   501   502  0.000000000E+00  0.000000000E+00 -2.906731355E+01  2.906731355E+01  0.000000000E+00  0.00000E+00  9.000E+00
      25     1     1     2     0     0  1.708464165E+01  5.156201297E+01  4.356411813E+02  4.564633228E+02  1.250000000E+02  0.00000E+00  9.000E+00
      25     1     1     2     0     0 -5.558095316E+01 -8.374012913E+00  2.467559697E+02  2.822638394E+02  1.250000000E+02  0.00000E+00  9.000E+00
      -2     1     1     2     0   502  3.849631151E+01 -4.318800006E+01  9.264887282E+02  9.282933442E+02  1.078959322E-05  0.00000E+00  9.000E+00
#rwgt            1           1   4.1410630179606937E-002           3      342215           0
</event>
<event>
      5   9999  3.79277E-02  6.30037E+01 -1.00000E+00  1.33579E-01
      21    -1     0     0   502   501  0.000000000E+00  0.000000000E+00  4.835765050E+02  4.835765050E+02  0.000000000E+00  0.00000E+00  9.000E+00
      21    -1     0     0   501   511  0.000000000E+00  0.000000000E+00 -1.625129316E+02  1.625129316E+02  0.000000000E+00  0.00000E+00  9.000E+00
      25     1     1     2     0     0  9.668166608E+01 -1.426220707E+02  2.205975449E+02  3.065561554E+02  1.250000000E+02  0.00000E+00  9.000E+00
      25     1     1     2     0     0 -1.253188696E+02  8.650271876E+01  1.592809570E+02  2.533435665E+02  1.250000000E+02  0.00000E+00  9.000E+00
      21     1     1     2   502   511  2.863720349E+01  5.611935193E+01 -5.881492862E+01  8.618971465E+01  0.000000000E+00  0.00000E+00  9.000E+00
#rwgt            1           1   3.8398243186487213E-002           3      342264           0
</event>
<event>
      5   9999  3.79277E-02  4.20998E+01 -1.00000E+00  1.43475E-01
      21    -1     0     0   512   501  0.000000000E+00  0.000000000E+00  1.255228952E+02  1.255228952E+02  0.000000000E+00  0.00000E+00  9.000E+00
      21    -1     0     0   501   502  0.000000000E+00  0.000000000E+00 -7.557386191E+02  7.557386191E+02  0.000000000E+00  0.00000E+00  9.000E+00
      25     1     1     2     0     0  5.091220567E+01 -4.603393831E+01 -6.603852941E+02  6.756070699E+02  1.250000000E+02  0.00000E+00  9.000E+00
      25     1     1     2     0     0 -1.910518475E+01  1.845302795E+01  7.168850508E+01  1.465256431E+02  1.250000000E+02  0.00000E+00  9.000E+00
      21     1     1     2   512   502 -3.180702092E+01  2.758091037E+01 -4.151893478E+01  5.912880129E+01  1.348699152E-06  0.00000E+00  9.000E+00
#rwgt            1           1   3.3900835733600893E-002           3      342487           0
</event>
<event>
      5   9999  3.79277E-02  1.32187E+02 -1.00000E+00  1.18612E-01
      21    -1     0     0   511   501  0.000000000E+00  0.000000000E+00  2.538685401E+02  2.538685401E+02  0.000000000E+00  0.00000E+00  9.000E+00
      21    -1     0     0   501   502  0.000000000E+00  0.000000000E+00 -3.226726724E+02  3.226726724E+02  0.000000000E+00  0.00000E+00  9.000E+00
      25     1     1     2     0     0  4.701787409E+01 -9.429560851E+01 -6.521158152E+01  1.760110583E+02  1.250000000E+02  0.00000E+00  9.000E+00
      25     1     1     2     0     0 -9.822772169E+01  2.161605692E+02 -2.231747526E+00  2.683357182E+02  1.250000000E+02  0.00000E+00  9.000E+00
      21     1     1     2   511   502  5.120984760E+01 -1.218649607E+02 -1.360803244E+00  1.321944360E+02  2.024146005E-06  0.00000E+00  9.000E+00
#rwgt            1           1   3.6643545153113771E-002           3      342704           0
</event>
<event>
      5   9999  3.79277E-02  4.25113E+01 -1.00000E+00  1.43219E-01
      21    -1     0     0   502   501  0.000000000E+00  0.000000000E+00  1.589112353E+02  1.589112353E+02  0.000000000E+00  0.00000E+00  9.000E+00
      21    -1     0     0   512   502  0.000000000E+00  0.000000000E+00 -5.469032070E+02  5.469032070E+02  0.000000000E+00  0.00000E+00  9.000E+00
      25     1     1     2     0     0 -2.195448600E+02  8.577720069E+01 -6.557667033E+01  2.747416485E+02  1.250000000E+02  0.00000E+00  9.000E+00
      25     1     1     2     0     0  1.900153350E+02 -5.519592542E+01 -2.244281703E+02  3.242613473E+02  1.250000000E+02  0.00000E+00  9.000E+00
      21     1     1     2   512   501  2.952952508E+01 -3.058127527E+01 -9.798713106E+01  1.068114465E+02  0.000000000E+00  0.00000E+00  9.000E+00
#rwgt            1           1   2.6572979880735231E-002           3      342805           0
</event>
<event>
      5   9999  3.79277E-02  2.84092E+01 -1.00000E+00  1.54702E-01
      21    -1     0     0   502   511  0.000000000E+00  0.000000000E+00  6.441616291E+02  6.441616291E+02  0.000000000E+00  0.00000E+00  9.000E+00
      21    -1     0     0   501   502  0.000000000E+00  0.000000000E+00 -2.325398651E+02  2.325398651E+02  0.000000000E+00  0.00000E+00  9.000E+00
      25     1     1     2     0     0 -1.796044670E+02 -7.374438294E+01 -1.792393134E+01  2.316080005E+02  1.250000000E+02  0.00000E+00  9.000E+00
      25     1     1     2     0     0  1.652894529E+02  9.828342437E+01  1.529278220E+01  2.298675791E+02  1.250000000E+02  0.00000E+00  9.000E+00
      21     1     1     2   501   511  1.431501408E+01 -2.453904143E+01  4.142529132E+02  4.152259147E+02  5.394796609E-06  0.00000E+00  9.000E+00
#rwgt            1           1   2.1699924913323856E-002           3      342976           0
</event>
<event>
      5   9999  3.79277E-02  2.28090E+01 -1.00000E+00  1.61794E-01
      21    -1     0     0   512   501  0.000000000E+00  0.000000000E+00  2.713222600E+02  2.713222600E+02  0.000000000E+00  0.00000E+00  9.000E+00
      21    -1     0     0   501   502  0.000000000E+00  0.000000000E+00 -5.201900450E+02  5.201900450E+02  0.000000000E+00  0.00000E+00  9.000E+00
      25     1     1     2     0     0 -1.675349977E+02 -2.742630334E+02 -3.645293519E+01  3.467592875E+02  1.250000000E+02  0.00000E+00  9.000E+00
      25     1     1     2     0     0  1.888949021E+02  2.822632739E+02 -2.162914946E+02  4.216169475E+02  1.250000000E+02  0.00000E+00  9.000E+00
      21     1     1     2   512   502 -2.135990431E+01 -8.000240496E+00  3.876644775E+00  2.313607000E+01  0.000000000E+00  0.00000E+00  9.000E+00
#rwgt            1           1   4.2617953087705808E-002           3      343144           0
</event>
<event>
      5   9999  3.79277E-02  6.47171E+01 -1.00000E+00  1.32970E-01
      21    -1     0     0   502   501  0.000000000E+00  0.000000000E+00  1.761395073E+02  1.761395073E+02  0.000000000E+00  0.00000E+00  9.000E+00
      21    -1     0     0   501   511  0.000000000E+00  0.000000000E+00 -1.538346375E+03  1.538346375E+03  0.000000000E+00  0.00000E+00  9.000E+00
      25     1     1     2     0     0  1.293108278E+02  2.648748841E+02 -1.550744884E+02  3.557430131E+02  1.250000000E+02  0.00000E+00  9.000E+00
      25     1     1     2     0     0 -1.909848090E+02 -2.452629943E+02 -3.012798929E+02  4.505815215E+02  1.250000000E+02  0.00000E+00  9.000E+00
      21     1     1     2   502   511  6.167398120E+01 -1.961188979E+01 -9.058524864E+02  9.081613476E+02  1.078959322E-05  0.00000E+00  9.000E+00
#rwgt            1           1   4.3959752071740979E-002           3      343273           0
</event>
<event>
      5   9999  3.79277E-02  4.56427E+01 -1.00000E+00  1.41373E-01
      21    -1     0     0   502   501  0.000000000E+00  0.000000000E+00  3.568602268E+02  3.568602268E+02  0.000000000E+00  0.00000E+00  9.000E+00
      21    -1     0     0   512   502  0.000000000E+00  0.000000000E+00 -1.644227074E+02  1.644227074E+02  0.000000000E+00  0.00000E+00  9.000E+00
      25     1     1     2     0     0  1.156132582E+02  1.575077219E+02  1.370614345E+02  2.694177885E+02  1.250000000E+02  0.00000E+00  9.000E+00
      25     1     1     2     0     0 -7.609230553E+01 -1.346745737E+02  5.451669914E+01  2.062143308E+02  1.250000000E+02  0.00000E+00  9.000E+00
      21     1     1     2   512   501 -3.952095269E+01 -2.283314820E+01  8.593857401E-01  4.565081491E+01  1.615247383E-07  0.00000E+00  9.000E+00
#rwgt            1           1   2.7173756488665449E-002           3      343445           0
</event>
<event>
      5   9999  3.79277E-02  3.37109E+01 -1.00000E+00  1.49603E-01
      21    -1     0     0   502   511  0.000000000E+00  0.000000000E+00  4.382656069E+02  4.382656069E+02  0.000000000E+00  0.00000E+00  9.000E+00
      21    -1     0     0   501   502  0.000000000E+00  0.000000000E+00 -2.686692192E+02  2.686692192E+02  0.000000000E+00  0.00000E+00  9.000E+00
      25     1     1     2     0     0  1.112413912E+02  1.293061568E+02  3.147473071E+02  3.791907128E+02  1.250000000E+02  0.00000E+00  9.000E+00
      25     1     1     2     0     0 -1.441868211E+02 -1.364491744E+02 -1.666516503E+02  2.877602981E+02  1.250000000E+02  0.00000E+00  9.000E+00
      21     1     1     2   501   511  3.294542994E+01  7.143017529E+00  2.150073095E+01  3.998381529E+01  8.596304120E-07  0.00000E+00  9.000E+00
#rwgt            1           1   3.9479860011089343E-002           3      343582           0
</event>
<event>
      5   9999  3.79277E-02  4.18189E+01 -1.00000E+00  1.43652E-01
      21    -1     0     0   502   501  0.000000000E+00  0.000000000E+00  3.320290591E+02  3.320290591E+02  0.000000000E+00  0.00000E+00  9.000E+00
      21    -1     0     0   512   502  0.000000000E+00  0.000000000E+00 -2.623181853E+02  2.623181853E+02  0.000000000E+00  0.00000E+00  9.000E+00
      25     1     1     2     0     0  3.126260630E+01 -1.175939213E+02  2.391827487E+02  2.960389639E+02  1.250000000E+02  0.00000E+00  9.000E+00
      25     1     1     2     0     0 -7.279662444E+01  1.224670224E+02 -9.293330763E+01  2.110903119E+02  1.250000000E+02  0.00000E+00  9.000E+00
      21     1     1     2   512   501  4.153401814E+01 -4.873101109E+00 -7.653856725E+01  8.721796864E+01  9.536743164E-07  0.00000E+00  9.000E+00
#rwgt            1           1   4.8251055175501302E-002           3      343833           0
</event>
<event>
      5   9999  3.79277E-02  9.92397E+01 -1.00000E+00  1.23977E-01
      21    -1     0     0   511   501  0.000000000E+00  0.000000000E+00  1.417816444E+03  1.417816444E+03  0.000000000E+00  0.00000E+00  9.000E+00
      21    -1     0     0   501   502  0.000000000E+00  0.000000000E+00 -1.276538046E+02  1.276538046E+02  0.000000000E+00  0.00000E+00  9.000E+00
      25     1     1     2     0     0  2.159116065E+02  7.659621352E+01  1.774828027E+02  3.156104355E+02  1.250000000E+02  0.00000E+00  9.000E+00
      25     1     1     2     0     0 -1.987584930E+02  2.114979522E+01  1.925372734E+02  3.043811000E+02  1.250000000E+02  0.00000E+00  9.000E+00
      21     1     1     2   511   502 -1.715311355E+01 -9.774600874E+01  9.201425635E+02  9.254787133E+02  1.525878906E-05  0.00000E+00  9.000E+00
#rwgt            1           1   3.7333352950073125E-002           3      343988           0
</event>
<event>
      5   9999  3.79277E-02  3.39969E+00 -1.00000E+00  2.81303E-01
      21    -1     0     0   502   501  0.000000000E+00  0.000000000E+00  9.717298891E+01  9.717298891E+01  0.000000000E+00  0.00000E+00  9.000E+00
      21    -1     0     0   501   512  0.000000000E+00  0.000000000E+00 -3.994643612E+02  3.994643612E+02  0.000000000E+00  0.00000E+00  9.000E+00
      25     1     1     2     0     0  5.940264597E+01 -7.838903018E+01 -2.910653140E+02  3.316889076E+02  1.250000000E+02  0.00000E+00  9.000E+00
      25     1     1     2     0     0 -5.628138432E+01  7.973648251E+01 -5.985839522E+00  1.587020200E+02  1.250000000E+02  0.00000E+00  9.000E+00
      21     1     1     2   502   512 -3.121261649E+00 -1.347452330E+00 -5.240218695E+00  6.246422499E+00  5.960464478E-08  0.00000E+00  9.000E+00
#rwgt            1           1   4.2154031054490865E-002           3      344329           0
</event>
<event>
      5   9999 -3.79277E-02  1.46023E+01 -1.00000E+00  1.78490E-01
      21    -1     0     0   502   501  0.000000000E+00  0.000000000E+00  2.225141532E+02  2.225141532E+02  0.000000000E+00  0.00000E+00  9.000E+00
       1    -1     0     0   501     0  0.000000000E+00  0.000000000E+00 -1.453736521E+03  1.453736521E+03  0.000000000E+00  0.00000E+00  9.000E+00
      25     1     1     2     0     0 -1.050495602E+02 -5.625903915E+01 -8.005748572E+01  1.903541189E+02  1.250000000E+02  0.00000E+00  9.000E+00
      25     1     1     2     0     0  9.079832285E+01  5.944177189E+01  1.263816271E+02  2.082665968E+02  1.250000000E+02  0.00000E+00  9.000E+00
       1     1     1     2   502     0  1.425123733E+01 -3.182732733E+00 -1.277546509E+03  1.277629958E+03  2.157918644E-05  0.00000E+00  9.000E+00
#rwgt            1           1  -2.0183298252812822E-002           3      344807           0
</event>
<event>
      5   9999 -3.79277E-02  6.48270E+01 -1.00000E+00  1.32932E-01
      21    -1     0     0   511   501  0.000000000E+00  0.000000000E+00  1.625481858E+02  1.625481858E+02  0.000000000E+00  0.00000E+00  9.000E+00
      21    -1     0     0   501   502  0.000000000E+00  0.000000000E+00 -1.178633538E+03  1.178633538E+03  0.000000000E+00  0.00000E+00  9.000E+00
      25     1     1     2     0     0  1.952836002E+02  1.123799463E+01 -9.146495461E+02  9.436475874E+02  1.250000000E+02  0.00000E+00  9.000E+00
      25     1     1     2     0     0 -1.874046073E+02  5.310841313E+01 -1.817815493E+02  2.942966565E+02  1.250000000E+02  0.00000E+00  9.000E+00
      21     1     1     2   511   502 -7.878992893E+00 -6.434640776E+01  8.034574341E+01  1.032374797E+02  3.693564745E-06  0.00000E+00  9.000E+00
#rwgt            1           1 -0.24726663606689214                3      345149           0
</event>
<event>
      5   9999  3.79277E-02  7.22067E+01 -1.00000E+00  1.30542E-01
      21    -1     0     0   502   501  0.000000000E+00  0.000000000E+00  2.572514565E+01  2.572514565E+01  0.000000000E+00  0.00000E+00  9.000E+00
       2    -1     0     0   501     0  0.000000000E+00  0.000000000E+00 -2.492727556E+03  2.492727556E+03  0.000000000E+00  0.00000E+00  9.000E+00
      25     1     1     2     0     0 -1.025150735E+01  9.421496320E+01 -1.345003391E+03  1.354119889E+03  1.250000000E+02  0.00000E+00  9.000E+00
      25     1     1     2     0     0 -2.367609481E+01 -1.579544227E+02 -5.222065058E+02  5.602095964E+02  1.250000000E+02  0.00000E+00  9.000E+00
       2     1     1     2   502     0  3.392760216E+01  6.373945948E+01 -5.997925140E+02  6.041232165E+02  7.629394531E-06  0.00000E+00  9.000E+00
#rwgt            1           1  0.13847191177526386                3      345267           0
</event>
<event>
      5   9999  3.79277E-02  1.09726E+01 -1.00000E+00  1.91210E-01
      21    -1     0     0   511   501  0.000000000E+00  0.000000000E+00  1.039170349E+03  1.039170349E+03  0.000000000E+00  0.00000E+00  9.000E+00
      21    -1     0     0   501   502  0.000000000E+00  0.000000000E+00 -3.430613079E+01  3.430613079E+01  0.000000000E+00  0.00000E+00  9.000E+00
      25     1     1     2     0     0 -7.917970779E+01 -5.590827592E+01  2.404538103E+02  2.878162544E+02  1.250000000E+02  0.00000E+00  9.000E+00
      25     1     1     2     0     0  8.813788270E+01  6.224463643E+01  6.470663463E+02  6.678042660E+02  1.250000000E+02  0.00000E+00  9.000E+00
      21     1     1     2   511   502 -8.958174905E+00 -6.336360511E+00  1.173440618E+02  1.178559595E+02  0.000000000E+00  0.00000E+00  9.000E+00
#rwgt            1           1   5.8759869434967159E-002           3      345317           0
</event>
<event>
      5   9999  3.79277E-02  3.55852E+01 -1.00000E+00  1.48062E-01
      21    -1     0     0   502   501  0.000000000E+00  0.000000000E+00  3.932755231E+02  3.932755231E+02  0.000000000E+00  0.00000E+00  9.000E+00
      21    -1     0     0   501   512  0.000000000E+00  0.000000000E+00 -3.616755801E+02  3.616755801E+02  0.000000000E+00  0.00000E+00  9.000E+00
      25     1     1     2     0     0  2.279527053E+02 -4.258594665E+01 -2.042034125E+02  3.333167148E+02  1.250000000E+02  0.00000E+00  9.000E+00
      25     1     1     2     0     0 -2.112431857E+02  1.116777194E+01  2.749423675E+02  3.687366378E+02  1.250000000E+02  0.00000E+00  9.000E+00
      21     1     1     2   502   512 -1.670951962E+01  3.141817471E+01 -3.913901205E+01  5.289775054E+01  0.000000000E+00  0.00000E+00  9.000E+00
#rwgt            1           1   4.3816588072490600E-002           3      345565           0
</event>
<event>
      5   9999  3.79277E-02  9.99994E+01 -1.00000E+00  1.23828E-01
      21    -1     0     0   511   501  0.000000000E+00  0.000000000E+00  1.175104462E+02  1.175104462E+02  0.000000000E+00  0.00000E+00  9.000E+00
      21    -1     0     0   501   502  0.000000000E+00  0.000000000E+00 -5.384850298E+02  5.384850298E+02  0.000000000E+00  0.00000E+00  9.000E+00
      25     1     1     2     0     0  1.151832638E+02 -8.351078766E+01 -3.457263749E+02  3.941991403E+02  1.250000000E+02  0.00000E+00  9.000E+00
      25     1     1     2     0     0 -1.551064750E+01  7.543332979E+01 -6.721952283E+01  1.614751736E+02  1.250000000E+02  0.00000E+00  9.000E+00
      21     1     1     2   511   502 -9.967261632E+01  8.077457870E+00 -8.028685860E+00  1.003211621E+02  2.360223517E-06  0.00000E+00  9.000E+00
#rwgt            2          11   2.0341254000195972E-003           3      345760           0
</event>
<event>
      5   9999  3.79277E-02  1.66665E+02 -1.00000E+00  1.14609E-01
      21    -1     0     0   502   512  0.000000000E+00  0.000000000E+00  1.167893383E+03  1.167893383E+03  0.000000000E+00  0.00000E+00  9.000E+00
      21    -1     0     0   501   502  0.000000000E+00  0.000000000E+00 -6.578510748E+01  6.578510748E+01  0.000000000E+00  0.00000E+00  9.000E+00
      25     1     1     2     0     0  8.597882353E+01 -1.244487150E+02  3.792107476E+02  4.269726360E+02  1.250000000E+02  0.00000E+00  9.000E+00
      25     1     1     2     0     0 -1.379129385E+02 -3.391807893E+01  3.397068809E+02  3.888395294E+02  1.250000000E+02  0.00000E+00  9.000E+00
      21     1     1     2   501   512  5.193411497E+01  1.583667940E+02  3.831906473E+02  4.178663254E+02  5.394796609E-06  0.00000E+00  9.000E+00
#rwgt            1           1   4.7207934544935999E-002           3      345795           0
</event>
<event>
      5   9999  3.79277E-02  9.64382E+01 -1.00000E+00  1.24541E-01
      21    -1     0     0   511   501  0.000000000E+00  0.000000000E+00  2.297248670E+02  2.297248670E+02  0.000000000E+00  0.00000E+00  9.000E+00
      21    -1     0     0   501   502  0.000000000E+00  0.000000000E+00 -2.196209594E+02  2.196209594E+02  0.000000000E+00  0.00000E+00  9.000E+00
      25     1     1     2     0     0  1.170306631E+02 -4.391727102E+01  3.676074689E+01  1.805581771E+02  1.250000000E+02  0.00000E+00  9.000E+00
      25     1     1     2     0     0 -3.351168188E+01  9.213451122E+01 -5.525897198E+01  1.681973691E+02  1.250000000E+02  0.00000E+00  9.000E+00
      21     1     1     2   511   502 -8.351898123E+01 -4.821724020E+01  2.860213264E+01  1.005902802E+02  7.539457465E-07  0.00000E+00  9.000E+00
#rwgt            1           1   3.2522071160228844E-002           3      345886           0
</event>
<event>
      5   9999  3.79277E-02  2.41241E+01 -1.00000E+00  1.59920E-01
      21    -1     0     0   502   501  0.000000000E+00  0.000000000E+00  5.137647464E+01  5.137647464E+01  0.000000000E+00  0.00000E+00  9.000E+00
      21    -1     0     0   512   502  0.000000000E+00  0.000000000E+00 -9.343241791E+02  9.343241791E+02  0.000000000E+00  0.00000E+00  9.000E+00
      25     1     1     2     0     0 -6.446217918E+01  3.431251298E+00 -7.435712812E+01  1.591261403E+02  1.250000000E+02  0.00000E+00  9.000E+00
      25     1     1     2     0     0  5.841658301E+01  1.992304129E+01 -5.713948146E+02  5.881551316E+02  1.250000000E+02  0.00000E+00  9.000E+00
      21     1     1     2   512   501  6.045596169E+00 -2.335429258E+01 -2.371957618E+02  2.384193818E+02  3.814697266E-06  0.00000E+00  9.000E+00
#rwgt            1           1   2.6208321995844344E-002           3      345979           0
</event>
<event>
      5   9999  3.79277E-02  1.07795E+02 -1.00000E+00  1.22379E-01
      21    -1     0     0   502   511  0.000000000E+00  0.000000000E+00  4.845464426E+02  4.845464426E+02  0.000000000E+00  0.00000E+00  9.000E+00
      21    -1     0     0   501   502  0.000000000E+00  0.000000000E+00 -8.938116042E+02  8.938116042E+02  0.000000000E+00  0.00000E+00  9.000E+00
      25     1     1     2     0     0  1.360638081E+01 -1.271705344E+00 -3.538584206E+02  3.755363266E+02  1.250000000E+02  0.00000E+00  9.000E+00
      25     1     1     2     0     0 -1.050263397E+02  5.838775531E+01 -5.084128592E+02  5.371669177E+02  1.250000000E+02  0.00000E+00  9.000E+00
      21     1     1     2   501   511  9.141995889E+01 -5.711604997E+01  4.530061181E+02  4.656548025E+02  0.000000000E+00  0.00000E+00  9.000E+00
#rwgt            1           1   4.5533828064287817E-002           3      346097           0
</event>
<event>
      5   9999  3.79277E-02  3.27274E+01 -1.00000E+00  1.50461E-01
      21    -1     0     0   502   501  0.000000000E+00  0.000000000E+00  6.691655379E+02  6.691655379E+02  0.000000000E+00  0.00000E+00  9.000E+00
      21    -1     0     0   501   512  0.000000000E+00  0.000000000E+00 -7.076080797E+01  7.076080797E+01  0.000000000E+00  0.00000E+00  9.000E+00
      25     1     1     2     0     0 -4.867140314E+01 -1.136807478E+02  3.739061914E+02  4.131864687E+02  1.250000000E+02  0.00000E+00  9.000E+00
      25     1     1     2     0     0  4.203075809E+01  1.457273545E+02  2.177367949E+02  2.933212545E+02  1.250000000E+02  0.00000E+00  9.000E+00
      21     1     1     2   502   512  6.640645046E+00 -3.204660667E+01  6.761743536E+00  3.341862268E+01  3.576278687E-07  0.00000E+00  9.000E+00
#rwgt            1           1   2.6628215659814811E-002           3      346210           0
</event>
<event>
      5   9999  3.79277E-02  1.03268E+02 -1.00000E+00  1.23203E-01
       2    -1     0     0   502     0  0.000000000E+00  0.000000000E+00  1.740327553E+03  1.740327553E+03  0.000000000E+00  0.00000E+00  9.000E+00
      21    -1     0     0   501   502  0.000000000E+00  0.000000000E+00 -1.359412166E+02  1.359412166E+02  0.000000000E+00  0.00000E+00  9.000E+00
      25     1     1     2     0     0  6.773500024E+01  1.975364197E+02  4.447737468E+01  2.474103964E+02  1.250000000E+02  0.00000E+00  9.000E+00
      25     1     1     2     0     0 -9.569991444E+01 -9.812677700E+01  2.324915967E+02  2.974301271E+02  1.250000000E+02  0.00000E+00  9.000E+00
       2     1     1     2   501     0  2.796491420E+01 -9.940964272E+01  1.327417365E+03  1.331428246E+03  2.642899792E-05  0.00000E+00  9.000E+00
#rwgt            1           1   2.7951186400239206E-002           3      346347           0
</event>
<event>
      5   9999 -3.79277E-02  3.65550E+01 -1.00000E+00  1.47308E-01
      21    -1     0     0   502   511  0.000000000E+00  0.000000000E+00  8.292968547E+02  8.292968547E+02  0.000000000E+00  0.00000E+00  9.000E+00
      21    -1     0     0   501   502  0.000000000E+00  0.000000000E+00 -9.752670410E+01  9.752670410E+01  0.000000000E+00  0.00000E+00  9.000E+00
      25     1     1     2     0     0  2.004263061E+01 -1.952272637E+02  5.226113440E+02  5.720690592E+02  1.250000000E+02  0.00000E+00  9.000E+00
      25     1     1     2     0     0 -4.994581372E+01  1.742018403E+02  1.041071354E+02  2.435244569E+02  1.250000000E+02  0.00000E+00  9.000E+00
      21     1     1     2   501   511  2.990318311E+01  2.102542348E+01  1.050516712E+02  1.112300428E+02  1.348699152E-06  0.00000E+00  9.000E+00
#rwgt            1           1 -0.10411896000903686                3      346553           0
</event>
<event>
      5   9999  3.79277E-02  6.09494E+01 -1.00000E+00  1.34340E-01
      -1    -1     0     0     0   501  0.000000000E+00  0.000000000E+00  8.731197770E+02  8.731197770E+02  0.000000000E+00  0.00000E+00  9.000E+00
      21    -1     0     0   501   502  0.000000000E+00  0.000000000E+00 -2.511397299E+02  2.511397299E+02  0.000000000E+00  0.00000E+00  9.000E+00
      25     1     1     2     0     0  1.348418902E+02 -6.406339827E+01  2.243306511E+02  2.970449383E+02  1.250000000E+02  0.00000E+00  9.000E+00
      25     1     1     2     0     0 -7.413562989E+01  6.950238256E+01 -1.827538541E+02  2.436198760E+02  1.250000000E+02  0.00000E+00  9.000E+00
      -1     1     1     2     0   502 -6.070626029E+01 -5.438984292E+00  5.804032500E+02  5.835946926E+02  7.629394531E-06  0.00000E+00  9.000E+00
#rwgt            1           1   4.2218865880986368E-002           3      346648           0
</event>
<event>
      5   9999  3.79277E-02  1.93650E+01 -1.00000E+00  1.67534E-01
      21    -1     0     0   511   501  0.000000000E+00  0.000000000E+00  6.174865082E+01  6.174865082E+01  0.000000000E+00  0.00000E+00  9.000E+00
      21    -1     0     0   501   502  0.000000000E+00  0.000000000E+00 -8.877679550E+02  8.877679550E+02  0.000000000E+00  0.00000E+00  9.000E+00
      25     1     1     2     0     0  1.315264569E+02  1.105692470E+02 -4.554334783E+02  5.025628522E+02  1.250000000E+02  0.00000E+00  9.000E+00
      25     1     1     2     0     0 -1.347649613E+02 -1.296615232E+02 -3.609988212E+02  4.253455705E+02  1.250000000E+02  0.00000E+00  9.000E+00
      21     1     1     2   511   502  3.238504343E+00  1.909227625E+01 -9.587004722E+00  2.160818323E+01  3.953724850E-07  0.00000E+00  9.000E+00
#rwgt            1           1   3.6691461462246049E-002           3      346842           0
</event>
<event>
      5   9999  3.79277E-02  4.87082E+01 -1.00000E+00  1.39727E-01
      21    -1     0     0   512   501  0.000000000E+00  0.000000000E+00  1.074248571E+02  1.074248571E+02  0.000000000E+00  0.00000E+00  9.000E+00
      21    -1     0     0   501   502  0.000000000E+00  0.000000000E+00 -8.305245082E+02  8.305245082E+02  0.000000000E+00  0.00000E+00  9.000E+00
      25     1     1     2     0     0  6.473952704E+01 -2.216322728E+02 -4.449517969E+02  5.166422092E+02  1.250000000E+02  0.00000E+00  9.000E+00
      25     1     1     2     0     0 -1.753295209E+01  2.096309768E+02 -2.808829538E+02  3.725221934E+02  1.250000000E+02  0.00000E+00  9.000E+00
      21     1     1     2   512   502 -4.720657495E+01  1.200129600E+01  2.735099685E+00  4.878496279E+01  7.896209538E-07  0.00000E+00  9.000E+00
#rwgt            1           1   3.1812246142926923E-002           3      347115           0
</event>
<event>
      5   9999  3.79277E-02  5.35549E+01 -1.00000E+00  1.37395E-01
      -2    -1     0     0     0   501  0.000000000E+00  0.000000000E+00  8.363198464E+02  8.363198464E+02  0.000000000E+00  0.00000E+00  9.000E+00
      21    -1     0     0   501   502  0.000000000E+00  0.000000000E+00 -2.167973613E+02  2.167973613E+02  0.000000000E+00  0.00000E+00  9.000E+00
      25     1     1     2     0     0 -1.620598649E+02 -2.699097226E-01  7.062035455E+01  2.165079840E+02  1.250000000E+02  0.00000E+00  9.000E+00
      25     1     1     2     0     0  1.954204586E+02 -4.162523008E+01 -4.530069538E+01  2.399978508E+02  1.250000000E+02  0.00000E+00  9.000E+00
      -2     1     1     2     0   502 -3.336059363E+01  4.189513980E+01  5.942028259E+02  5.966113729E+02  7.629394531E-06  0.00000E+00  9.000E+00
#rwgt            1           1   3.7387293630429801E-002           3      347194           0
</event>
<event>
      5   9999  3.79277E-02  1.59219E+01 -1.00000E+00  1.74978E-01
      21    -1     0     0   502   511  0.000000000E+00  0.000000000E+00  4.402073089E+01  4.402073089E+01  0.000000000E+00  0.00000E+00  9.000E+00
      21    -1     0     0   501   502  0.000000000E+00  0.000000000E+00 -9.009087283E+02  9.009087283E+02  0.000000000E+00  0.00000E+00  9.000E+00
      25     1     1     2     0     0 -2.037896827E+00  1.052936500E+02 -1.932939556E+02  2.531372336E+02  1.250000000E+02  0.00000E+00  9.000E+00
      25     1     1     2     0     0 -1.328653873E+01 -1.096142325E+02 -6.493560816E+02  6.704327951E+02  1.250000000E+02  0.00000E+00  9.000E+00
      21     1     1     2   501   511  1.532443556E+01  4.320582530E+00 -1.423796017E+01  2.135943043E+01  2.384185791E-07  0.00000E+00  9.000E+00
#rwgt            1           1   4.7090904156717510E-002           3      347353           0
</event>
<event>
      5   9999  3.79277E-02  4.45205E+01 -1.00000E+00  1.42014E-01
      21    -1     0     0   512   501  0.000000000E+00  0.000000000E+00  4.487429428E+02  4.487429428E+02  0.000000000E+00  0.00000E+00  9.000E+00
      21    -1     0     0   501   502  0.000000000E+00  0.000000000E+00 -1.261581674E+02  1.261581674E+02  0.000000000E+00  0.00000E+00  9.000E+00
      25     1     1     2     0     0  1.532772052E+02  4.978911757E+01  2.515105243E+01  2.055004460E+02  1.250000000E+02  0.00000E+00  9.000E+00
      25     1     1     2     0     0 -1.089177598E+02 -5.357214770E+01  2.445692355E+02  3.002868035E+02  1.250000000E+02  0.00000E+00  9.000E+00
      21     1     1     2   512   502 -4.435944537E+01  3.783030128E+00  5.286448753E+01  6.911386078E+01  0.000000000E+00  0.00000E+00  9.000E+00
#rwgt            1           1   6.8259610314665028E-002           3      347453           0
</event>
<event>
      5   9999  3.79277E-02  2.12459E+02 -1.00000E+00  1.10701E-01
      21    -1     0     0   511   501  0.000000000E+00  0.000000000E+00  1.277082329E+02  1.277082329E+02  0.000000000E+00  0.00000E+00  9.000E+00
      21    -1     0     0   501   502  0.000000000E+00  0.000000000E+00 -1.632223874E+03  1.632223874E+03  0.000000000E+00  0.00000E+00  9.000E+00
      25     1     1     2     0     0  9.983815576E+01 -6.426931730E+01 -3.905118214E+02  4.268754914E+02  1.250000000E+02  0.00000E+00  9.000E+00
      25     1     1     2     0     0 -4.409355923E+00 -1.255521514E+02 -1.106355603E+03  1.120459953E+03  1.250000000E+02  0.00000E+00  9.000E+00
      21     1     1     2   511   502 -9.542879984E+01  1.898214686E+02 -7.648216520E+00  2.125966628E+02  4.218897431E-06  0.00000E+00  9.000E+00
#rwgt            2          11   2.8119588532475588E-003           3      347564           0
</event>
<event>
      5   9999  3.79277E-02  4.52010E+01 -1.00000E+00  1.41623E-01
      21    -1     0     0   502   501  0.000000000E+00  0.000000000E+00  7.922624834E+02  7.922624834E+02  0.000000000E+00  0.00000E+00  9.000E+00
      21    -1     0     0   512   502  0.000000000E+00  0.000000000E+00 -8.958580820E+01  8.958580820E+01  0.000000000E+00  0.00000E+00  9.000E+00
      25     1     1     2     0     0  2.476480051E+01  9.865472221E+01  1.501462174E+01  1.618532929E+02  1.250000000E+02  0.00000E+00  9.000E+00
      25     1     1     2     0     0 -9.989729069E+00 -5.593669438E+01  6.389699349E+02  6.535566435E+02  1.250000000E+02  0.00000E+00  9.000E+00
      21     1     1     2   512   501 -1.477507145E+01 -4.271802783E+01  4.869211848E+01  6.643835519E+01  9.536743164E-07  0.00000E+00  9.000E+00
#rwgt            1           1   5.3301711559349534E-002           3      347614           0
</event>
<event>
      5   9999  3.79277E-02  4.74272E+01 -1.00000E+00  1.40397E-01
      21    -1     0     0   502   501  0.000000000E+00  0.000000000E+00  3.995273335E+01  3.995273335E+01  0.000000000E+00  0.00000E+00  9.000E+00
       2    -1     0     0   501     0  0.000000000E+00  0.000000000E+00 -2.472690687E+03  2.472690687E+03  0.000000000E+00  0.00000E+00  9.000E+00
      25     1     1     2     0     0  1.520554162E+02  2.100862204E+01 -5.611936358E+02  5.950844550E+02  1.250000000E+02  0.00000E+00  9.000E+00
      25     1     1     2     0     0 -1.568798829E+02 -6.818985230E+01 -4.738106749E+02  5.190209141E+02  1.250000000E+02  0.00000E+00  9.000E+00
       2     1     1     2   502     0  4.824466734E+00  4.718123026E+01 -1.397733643E+03  1.398538051E+03  2.157918644E-05  0.00000E+00  9.000E+00
#rwgt            1           1   3.7044614151646060E-002           3      347800           0
</event>
<event>
      5   9999  3.79277E-02  2.14921E+01 -1.00000E+00  1.63831E-01
      21    -1     0     0   511   501  0.000000000E+00  0.000000000E+00  2.497633838E+02  2.497633838E+02  0.000000000E+00  0.00000E+00  9.000E+00
      21    -1     0     0   501   502  0.000000000E+00  0.000000000E+00 -2.056067238E+02  2.056067238E+02  0.000000000E+00  0.00000E+00  9.000E+00
      25     1     1     2     0     0  5.735043009E+01 -1.449106531E+02  8.364397546E+01  2.165859734E+02  1.250000000E+02  0.00000E+00  9.000E+00
      25     1     1     2     0     0 -5.776387388E+01  1.234225509E+02 -7.313725281E+01  1.988563526E+02  1.250000000E+02  0.00000E+00  9.000E+00
      21     1     1     2   511   502  4.134437885E-01  2.148810221E+01  3.364993732E+01  3.992778173E+01  0.000000000E+00  0.00000E+00  9.000E+00
#rwgt            1           1   4.1549598289048431E-002           3      347931           0
</event>
<event>
      5   9999  3.79277E-02  1.35861E+01 -1.00000E+00  1.81532E-01
      21    -1     0     0   502   512  0.000000000E+00  0.000000000E+00  5.250007287E+01  5.250007287E+01  0.000000000E+00  0.00000E+00  9.000E+00
      21    -1     0     0   501   502  0.000000000E+00  0.000000000E+00 -1.053908632E+03  1.053908632E+03  0.000000000E+00  0.00000E+00  9.000E+00
      25     1     1     2     0     0  2.415161617E+01 -1.719038842E+02 -6.189116516E+02  6.548365281E+02  1.250000000E+02  0.00000E+00  9.000E+00
      25     1     1     2     0     0 -2.235368729E+01  1.584372499E+02 -3.871892653E+02  4.371985552E+02  1.250000000E+02  0.00000E+00  9.000E+00
      21     1     1     2   501   512 -1.797928878E+00  1.346663432E+01  4.692357494E+00  1.437362192E+01  1.685873940E-07  0.00000E+00  9.000E+00
#rwgt            1           1   4.3137857522476022E-002           3      348079           0
</event>
<event>
      5   9999  3.79277E-02  1.85676E+01 -1.00000E+00  1.69077E-01
      21    -1     0     0   502   501  0.000000000E+00  0.000000000E+00  1.490991158E+02  1.490991158E+02  0.000000000E+00  0.00000E+00  9.000E+00
       2    -1     0     0   501     0  0.000000000E+00  0.000000000E+00 -2.544324578E+03  2.544324578E+03  0.000000000E+00  0.00000E+00  9.000E+00
      25     1     1     2     0     0  4.249698738E+01  4.016543304E+01  1.130960124E+02  1.784235522E+02  1.250000000E+02  0.00000E+00  9.000E+00
      25     1     1     2     0     0 -5.975159823E+01 -3.330720103E+01 -1.559358289E+03  1.565855324E+03  1.250000000E+02  0.00000E+00  9.000E+00
       2     1     1     2   502     0  1.725461085E+01 -6.858232008E+00 -9.489631851E+02  9.491448170E+02  0.000000000E+00  0.00000E+00  9.000E+00
#rwgt            1           1  0.12842386566102620                3      348268           0
</event>
<event>
      5   9999  3.79277E-02  1.45069E+01 -1.00000E+00  1.78762E-01
      21    -1     0     0   502   501  0.000000000E+00  0.000000000E+00  4.000428960E+02  4.000428960E+02  0.000000000E+00  0.00000E+00  9.000E+00
      21    -1     0     0   501   511  0.000000000E+00  0.000000000E+00 -1.712499984E+02  1.712499984E+02  0.000000000E+00  0.00000E+00  9.000E+00
      25     1     1     2     0     0  9.930589547E+01 -1.143429296E+02  2.852935870E+02  3.463428896E+02  1.250000000E+02  0.00000E+00  9.000E+00
      25     1     1     2     0     0 -1.133985733E+02  1.109011244E+02 -4.622226850E+01  2.071709293E+02  1.250000000E+02  0.00000E+00  9.000E+00
      21     1     1     2   502   511  1.409267781E+01  3.441805152E+00 -1.027842085E+01  1.777907550E+01  2.384185791E-07  0.00000E+00  9.000E+00
#rwgt            1           1   2.7814474883321311E-002           3      348566           0
</event>
<event>
      5   9999  3.79277E-02  3.52320E+01 -1.00000E+00  1.48344E-01
      21    -1     0     0   502   501  0.000000000E+00  0.000000000E+00  1.845707529E+03  1.845707529E+03  0.000000000E+00  0.00000E+00  9.000E+00
      21    -1     0     0   501   512  0.000000000E+00  0.000000000E+00 -5.149304431E+01  5.149304431E+01  0.000000000E+00  0.00000E+00  9.000E+00
      25     1     1     2     0     0  1.566514300E+02  1.178536333E+02  1.342086033E+03  1.362075280E+03  1.250000000E+02  0.00000E+00  9.000E+00
      25     1     1     2     0     0 -1.407535085E+02 -1.492948253E+02  4.326038022E+02  4.948449704E+02  1.250000000E+02  0.00000E+00  9.000E+00
      21     1     1     2   502   512 -1.589792144E+01  3.144119205E+01  1.952464985E+01  4.028032293E+01  1.092571186E-06  0.00000E+00  9.000E+00
#rwgt            1           1   3.8129469723046525E-002           3      348823           0
</event>
<event>
      5   9999  3.79277E-02  4.04675E+01 -1.00000E+00  1.44528E-01
      21    -1     0     0   511   501  0.000000000E+00  0.000000000E+00  2.398669831E+02  2.398669831E+02  0.000000000E+00  0.00000E+00  9.000E+00
      21    -1     0     0   501   502  0.000000000E+00  0.000000000E+00 -5.993848519E+02  5.993848519E+02  0.000000000E+00  0.00000E+00  9.000E+00
      25     1     1     2     0     0 -2.014643784E+02  1.234757008E+02 -4.478181050E+02  5.215363838E+02  1.250000000E+02  0.00000E+00  9.000E+00
      25     1     1     2     0     0  1.743403849E+02 -1.535074863E+02  6.785044915E+01  2.723743776E+02  1.250000000E+02  0.00000E+00  9.000E+00
      21     1     1     2   511   502  2.712399355E+01  3.003178544E+01  2.044978702E+01  4.534107356E+01  5.331201500E-07  0.00000E+00  9.000E+00
#rwgt            1           1   4.5179286734579417E-002           3      349013           0
</event>
<event>
      5   9999  3.79277E-02  1.00029E+02 -1.00000E+00  1.23822E-01
      21    -1     0     0   502   501  0.000000000E+00  0.000000000E+00  4.793044057E+02  4.793044057E+02  0.000000000E+00  0.00000E+00  9.000E+00
      21    -1     0     0   501   512  0.000000000E+00  0.000000000E+00 -3.050989113E+02  3.050989113E+02  0.000000000E+00  0.00000E+00  9.000E+00
      25     1     1     2     0     0  5.979638933E+01 -1.508434358E+02  2.103709551E+02  2.936158869E+02  1.250000000E+02  0.00000E+00  9.000E+00
      25     1     1     2     0     0 -1.596165657E+02  1.573055279E+02  1.369387016E+02  2.908602502E+02  1.250000000E+02  0.00000E+00  9.000E+00
      21     1     1     2   502   512  9.982017634E+01 -6.462092140E+00 -1.731041623E+02  1.999271798E+02  1.907348633E-06  0.00000E+00  9.000E+00
#rwgt            1           1   3.8363558525686660E-002           3      349262           0
</event>
<event>
      5   9999  3.79277E-02  1.08278E+02 -1.00000E+00  1.22294E-01
      21    -1     0     0   511   501  0.000000000E+00  0.000000000E+00  3.124089434E+02  3.124089434E+02  0.000000000E+00  0.00000E+00  9.000E+00
      21    -1     0     0   501   502  0.000000000E+00  0.000000000E+00 -2.185386125E+02  2.185386125E+02  0.000000000E+00  0.00000E+00  9.000E+00
      25     1     1     2     0     0 -2.333068015E+01  1.325478350E+02  4.432813684E+00  1.837332279E+02  1.250000000E+02  0.00000E+00  9.000E+00
      25     1     1     2     0     0  1.315519831E+02 -1.360627420E+02  5.250498555E+01  2.328105829E+02  1.250000000E+02  0.00000E+00  9.000E+00
      21     1     1     2   511   502 -1.082213029E+02  3.514906969E+00  3.693253173E+01  1.144037450E+02  1.066240300E-06  0.00000E+00  9.000E+00
#rwgt            1           1   6.0493233653634099E-002           3      349368           0
</event>
<event>
      5   9999  3.79277E-02  3.57366E+01 -1.00000E+00  1.47943E-01
      21    -1     0     0   502   501  0.000000000E+00  0.000000000E+00  3.038907193E+02  3.038907193E+02  0.000000000E+00  0.00000E+00  9.000E+00
      21    -1     0     0   501   512  0.000000000E+00  0.000000000E+00 -4.391645975E+02  4.391645975E+02  0.000000000E+00  0.00000E+00  9.000E+00
      25     1     1     2     0     0 -2.439714340E+02  1.745580073E+02  1.212322307E+00  3.249908125E+02  1.250000000E+02  0.00000E+00  9.000E+00
      25     1     1     2     0     0  2.706915441E+02 -1.508274374E+02 -6.824970611E+01  3.410364354E+02  1.250000000E+02  0.00000E+00  9.000E+00
      21     1     1     2   502   512 -2.672011009E+01 -2.373056990E+01 -6.823649437E+01  7.702806888E+01  9.536743164E-07  0.00000E+00  9.000E+00
#rwgt            1           1   3.3843440003836101E-002           3      349529           0
</event>
<event>
      5   9999 -3.79277E-02  3.12541E+01 -1.00000E+00  1.51815E-01
      21    -1     0     0   502   511  0.000000000E+00  0.000000000E+00  1.387955031E+02  1.387955031E+02  0.000000000E+00  0.00000E+00  9.000E+00
      21    -1     0     0   501   502  0.000000000E+00  0.000000000E+00 -5.273574863E+02  5.273574863E+02  0.000000000E+00  0.00000E+00  9.000E+00
      25     1     1     2     0     0 -4.030714177E+01  2.594488666E+01  8.195831957E+01  1.569712361E+02  1.250000000E+02  0.00000E+00  9.000E+00
      25     1     1     2     0     0  4.017615272E+01 -5.719872752E+01 -4.488641021E+02  4.711579351E+02  1.250000000E+02  0.00000E+00  9.000E+00
      21     1     1     2   501   511  1.309890498E-01  3.125384086E+01 -2.165620069E+01  3.802381825E+01  2.384185791E-07  0.00000E+00  9.000E+00
#rwgt            1           1 -0.15118273383109243                3      349739           0
</event>
<event>
      5   9999  3.79277E-02  6.56613E+01 -1.00000E+00  1.32644E-01
      21    -1     0     0   502   512  0.000000000E+00  0.000000000E+00  3.200008493E+02  3.200008493E+02  0.000000000E+00  0.00000E+00  9.000E+00
      21    -1     0     0   501   502  0.000000000E+00  0.000000000E+00 -1.880028306E+02  1.880028306E+02  0.000000000E+00  0.00000E+00  9.000E+00
      25     1     1     2     0     0  2.523159808E+01 -7.992298435E+01  2.005901905E+02  2.507702963E+02  1.250000000E+02  0.00000E+00  9.000E+00
      25     1     1     2     0     0 -8.707691349E+01  5.786474868E+01 -9.246779204E+01  1.873659803E+02  1.250000000E+02  0.00000E+00  9.000E+00
      21     1     1     2   501   512  6.184531542E+01  2.205823566E+01  2.387562029E+01  6.986740330E+01  4.768371582E-07  0.00000E+00  9.000E+00
#rwgt            1           1   4.8103438550077794E-002           3      349916           0
</event>
<event>
      5   9999  3.79277E-02  7.93149E+01 -1.00000E+00  1.28531E-01
       2    -1     0     0   502     0  0.000000000E+00  0.000000000E+00  6.995124739E+02  6.995124739E+02  0.000000000E+00  0.00000E+00  9.000E+00
      21    -1     0     0   501   502  0.000000000E+00  0.000000000E+00 -1.664916235E+02  1.664916235E+02  0.000000000E+00  0.00000E+00  9.000E+00
      25     1     1     2     0     0  1.379863611E+02 -6.618139963E+01 -5.111960710E+01  2.041039631E+02  1.250000000E+02  0.00000E+00  9.000E+00
      25     1     1     2     0     0 -7.461166003E+01  1.138731864E+02  2.113384658E+02  2.807542511E+02  1.250000000E+02  0.00000E+00  9.000E+00
       2     1     1     2   501     0 -6.337470107E+01 -4.769178674E+01  3.728019917E+02  3.811458832E+02  0.000000000E+00  0.00000E+00  9.000E+00
#rwgt            1           1   2.8148444081296339E-002           3      350046           0
</event>
<event>
      5   9999  3.79277E-02  8.66085E+01 -1.00000E+00  1.26703E-01
      21    -1     0     0   502   511  0.000000000E+00  0.000000000E+00  2.215626288E+02  2.215626288E+02  0.000000000E+00  0.00000E+00  9.000E+00
      21    -1     0     0   501   502  0.000000000E+00  0.000000000E+00 -3.273171547E+02  3.273171547E+02  0.000000000E+00  0.00000E+00  9.000E+00
      25     1     1     2     0     0 -3.643266208E+01 -7.783651718E+01 -1.920893249E+02  2.447635002E+02  1.250000000E+02  0.00000E+00  9.000E+00
      25     1     1     2     0     0 -6.741374780E+00  1.529167430E+02  9.060808020E+01  2.174023933E+02  1.250000000E+02  0.00000E+00  9.000E+00
      21     1     1     2   501   511  4.317403686E+01 -7.508022585E+01 -4.273281138E+00  8.671388991E+01  2.226215529E-06  0.00000E+00  9.000E+00
#rwgt            1           1   3.8425927638333114E-002           3      350147           0
</event>
<event>
      5   9999  3.79277E-02  4.25592E+01 -1.00000E+00  1.43189E-01
      21    -1     0     0   502   501  0.000000000E+00  0.000000000E+00  2.150892409E+02  2.150892409E+02  0.000000000E+00  0.00000E+00  9.000E+00
      21    -1     0     0   501   512  0.000000000E+00  0.000000000E+00 -6.848079041E+02  6.848079041E+02  0.000000000E+00  0.00000E+00  9.000E+00
      25     1     1     2     0     0 -1.245264292E+02  1.057921596E+02  1.114145286E+02  2.339594191E+02  1.250000000E+02  0.00000E+00  9.000E+00
      25     1     1     2     0     0  1.435110104E+02 -1.438824369E+02 -3.084525820E+02  3.899558450E+02  1.250000000E+02  0.00000E+00  9.000E+00
      21     1     1     2   502   512 -1.898458111E+01  3.809027729E+01 -2.726806098E+02  2.759818808E+02  3.814697266E-06  0.00000E+00  9.000E+00
#rwgt            1           1   3.4155925931925755E-002           3      350232           0
</event>
<event>
      5   9999  3.79277E-02  1.30147E+01 -1.00000E+00  1.83396E-01
      21    -1     0     0   511   501  0.000000000E+00  0.000000000E+00  7.252008427E+01  7.252008427E+01  0.000000000E+00  0.00000E+00  9.000E+00
      21    -1     0     0   501   502  0.000000000E+00  0.000000000E+00 -8.347441248E+02  8.347441248E+02  0.000000000E+00  0.00000E+00  9.000E+00
      25     1     1     2     0     0 -3.082663794E+00  2.897401661E+01 -4.324535286E+01  1.354406032E+02  1.250000000E+02  0.00000E+00  9.000E+00
      25     1     1     2     0     0 -6.168538575E+00 -3.812811099E+01 -7.375954585E+02  7.491087132E+02  1.250000000E+02  0.00000E+00  9.000E+00
      21     1     1     2   511   502  9.251202368E+00  9.154094386E+00  1.861677089E+01  2.271489264E+01  4.129530925E-07  0.00000E+00  9.000E+00
#rwgt            2          11   5.1900677349671625E-004           3      350412           0
</event>
<event>
      5   9999  3.79277E-02  9.50488E+01 -1.00000E+00  1.24828E-01
      21    -1     0     0   502   501  0.000000000E+00  0.000000000E+00  2.504455531E+02  2.504455531E+02  0.000000000E+00  0.00000E+00  9.000E+00
      21    -1     0     0   512   502  0.000000000E+00  0.000000000E+00 -3.439863888E+02  3.439863888E+02  0.000000000E+00  0.00000E+00  9.000E+00
      25     1     1     2     0     0 -1.029374857E+02 -2.302537263E+01 -1.696253638E+02  2.356354341E+02  1.250000000E+02  0.00000E+00  9.000E+00
      25     1     1     2     0     0  1.875674448E+02 -2.024178616E+01  1.176410791E+02  2.550601885E+02  1.250000000E+02  0.00000E+00  9.000E+00
      21     1     1     2   512   501 -8.462995911E+01  4.326715879E+01 -4.155655108E+01  1.037363193E+02  1.784161275E-06  0.00000E+00  9.000E+00
#rwgt            1           1   2.5728861647556965E-002           3      350567           0
</event>
<event>
      5   9999  3.79277E-02  3.66131E+01 -1.00000E+00  1.47264E-01
      21    -1     0     0   502   501  0.000000000E+00  0.000000000E+00  2.468445794E+02  2.468445794E+02  0.000000000E+00  0.00000E+00  9.000E+00
      21    -1     0     0   501   511  0.000000000E+00  0.000000000E+00 -2.347804874E+02  2.347804874E+02  0.000000000E+00  0.00000E+00  9.000E+00
      25     1     1     2     0     0 -2.902645742E+01 -9.503293282E+01 -7.489002859E+01  1.763726451E+02  1.250000000E+02  0.00000E+00  9.000E+00
      25     1     1     2     0     0  3.758756520E+01  5.943485869E+01  1.652552337E+02  2.188141215E+02  1.250000000E+02  0.00000E+00  9.000E+00
      21     1     1     2   502   511 -8.561107782E+00  3.559807413E+01 -7.830111311E+01  8.643830032E+01  1.651812370E-06  0.00000E+00  9.000E+00
#rwgt            1           1   3.8094859596553857E-002           3      350655           0
</event>
<event>
      5   9999  3.79277E-02  6.48984E+01 -1.00000E+00  1.32907E-01
      21    -1     0     0   502   501  0.000000000E+00  0.000000000E+00  2.799394604E+03  2.799394604E+03  0.000000000E+00  0.00000E+00  9.000E+00
      -2    -1     0     0     0   502  0.000000000E+00  0.000000000E+00 -4.900356545E+01  4.900356545E+01  0.000000000E+00  0.00000E+00  9.000E+00
      25     1     1     2     0     0  1.797592576E+02 -1.072464931E+02  1.831260641E+03  1.847418668E+03  1.250000000E+02  0.00000E+00  9.000E+00
      25     1     1     2     0     0 -2.279496038E+02  6.377819507E+01  8.908311098E+02  9.301794161E+02  1.250000000E+02  0.00000E+00  9.000E+00
      -2     1     1     2     0   501  4.819034614E+01  4.346829802E+01  2.829928837E+01  7.080008556E+01  2.211002945E-06  0.00000E+00  9.000E+00
#rwgt            1           1   5.3606827575445638E-002           3      350741           0
</event>
<event>
      5   9999  3.79277E-02  5.64806E+00 -1.00000E+00  2.29628E-01
      21    -1     0     0   502   501  0.000000000E+00  0.000000000E+00  2.657961065E+02  2.657961065E+02  0.000000000E+00  0.00000E+00  9.000E+00
       2    -1     0     0   501     0  0.000000000E+00  0.000000000E+00 -1.083887851E+03  1.083887851E+03  0.000000000E+00  0.00000E+00  9.000E+00
      25     1     1     2     0     0  9.291354009E+01 -1.879499469E+02 -2.178130483E+01  2.450663864E+02  1.250000000E+02  0.00000E+00  9.000E+00
      25     1     1     2     0     0 -9.267077994E+01  1.935927903E+02  5.409007139E+01  2.541983040E+02  1.250000000E+02  0.00000E+00  9.000E+00
       2     1     1     2   502     0 -2.427601434E-01 -5.642843370E+00 -8.504005114E+02  8.504192675E+02  1.525878906E-05  0.00000E+00  9.000E+00
#rwgt            1           1   3.5983454141595671E-002           3      350987           0
</event>
<event>
      5   9999  3.79277E-02  8.94427E-01 -1.00000E+00  7.52722E-01
      21    -1     0     0   511   501  0.000000000E+00  0.000000000E+00  1.344779962E+03  1.344779962E+03  0.000000000E+00  0.00000E+00  9.000E+00
      21    -1     0     0   501   502  0.000000000E+00  0.000000000E+00 -6.135817506E+01  6.135817506E+01  0.000000000E+00  0.00000E+00  9.000E+00
      25     1     1     2     0     0 -1.750458612E+02 -1.690014849E+02  8.537359060E+02  8.964890142E+02  1.250000000E+02  0.00000E+00  9.000E+00
      25     1     1     2     0     0  1.753176373E+02  1.686906629E+02  4.282031544E+02  5.081099833E+02  1.250000000E+02  0.00000E+00  9.000E+00
      21     1     1     2   511   502 -2.717760640E-01  3.108219317E-01  1.482726690E+00  1.539139675E+00  2.107342426E-08  0.00000E+00  9.000E+00
#rwgt            2          11   2.9437638903091073E-005           3      351260           0
</event>
<event>
      5   9999  3.79277E-02  1.45158E+01 -1.00000E+00  1.78737E-01
      21    -1     0     0   502   501  0.000000000E+00  0.000000000E+00  3.047114801E+02  3.047114801E+02  0.000000000E+00  0.00000E+00  9.000E+00
      21    -1     0     0   512   502  0.000000000E+00  0.000000000E+00 -1.499850407E+02  1.499850407E+02  0.000000000E+00  0.00000E+00  9.000E+00
      25     1     1     2     0     0 -6.184703717E+00 -4.160787744E+01  2.493295028E+02  2.820632323E+02  1.250000000E+02  0.00000E+00  9.000E+00
      25     1     1     2     0     0  2.905395171E+00  2.746739436E+01 -7.543046920E+01  1.485855133E+02  1.250000000E+02  0.00000E+00  9.000E+00
      21     1     1     2   512   501  3.279308546E+00  1.414048308E+01 -1.917259422E+01  2.404777527E+01  5.331201500E-07  0.00000E+00  9.000E+00
#rwgt            1           1   3.9612034055781779E-002           3      351415           0
</event>
<event>
      5   9999  3.79277E-02  5.07177E+01 -1.00000E+00  1.38723E-01
       2    -1     0     0   502     0  0.000000000E+00  0.000000000E+00  1.256852640E+03  1.256852640E+03  0.000000000E+00  0.00000E+00  9.000E+00
      21    -1     0     0   501   502  0.000000000E+00  0.000000000E+00 -9.593158475E+01  9.593158475E+01  0.000000000E+00  0.00000E+00  9.000E+00
      25     1     1     2     0     0  1.572171295E+02  6.820558475E+01  5.347442265E+02  5.752787285E+02  1.250000000E+02  0.00000E+00  9.000E+00
      25     1     1     2     0     0 -1.475202511E+02 -1.179876609E+02  9.784130761E+01  2.467412290E+02  1.250000000E+02  0.00000E+00  9.000E+00
       2     1     1     2   501     0 -9.696878421E+00  4.978207615E+01  5.283355206E+02  5.307642668E+02  0.000000000E+00  0.00000E+00  9.000E+00
#rwgt            1           1  0.11163164641570708                3      351710           0
</event>
<event>
      5   9999  3.79277E-02  8.06635E+01 -1.00000E+00  1.28176E-01
      21    -1     0     0   502   501  0.000000000E+00  0.000000000E+00  2.620060030E+02  2.620060030E+02  0.000000000E+00  0.00000E+00  9.000E+00
      21    -1     0     0   501   511  0.000000000E+00  0.000000000E+00 -2.920247251E+02  2.920247251E+02  0.000000000E+00  0.00000E+00  9.000E+00
      25     1     1     2     0     0 -1.279968247E+02 -1.227918054E+01  1.728341174E+02  2.490594258E+02  1.250000000E+02  0.00000E+00  9.000E+00
      25     1     1     2     0     0  4.768360614E+01  4.770061447E+00 -7.402651187E+01  1.529751752E+02  1.250000000E+02  0.00000E+00  9.000E+00
      21     1     1     2   502   511  8.031321859E+01  7.509119097E+00 -1.288263276E+02  1.519961271E+02  1.907348633E-06  0.00000E+00  9.000E+00
#rwgt            1           1   2.3843695299640470E-002           3      351790           0
</event>
<event>
      5   9999  3.79277E-02  4.46008E+01 -1.00000E+00  1.41967E-01
      21    -1     0     0   502   501  0.000000000E+00  0.000000000E+00  2.496765849E+02  2.496765849E+02  0.000000000E+00  0.00000E+00  9.000E+00
      21    -1     0     0   501   512  0.000000000E+00  0.000000000E+00 -3.958099994E+02  3.958099994E+02  0.000000000E+00  0.00000E+00  9.000E+00
      25     1     1     2     0     0 -2.789806110E+00 -5.576674354E+01  2.051797766E+02  2.466606037E+02  1.250000000E+02  0.00000E+00  9.000E+00
      25     1     1     2     0     0 -4.179721454E+01  5.687472106E+01 -2.534675723E+02  2.912946125E+02  1.250000000E+02  0.00000E+00  9.000E+00
      21     1     1     2   502   512  4.458702065E+01 -1.107977520E+00 -9.784561870E+01  1.075313681E+02  1.348699152E-06  0.00000E+00  9.000E+00
#rwgt            1           1   4.6851360192527280E-002           3      351904           0
</event>
<event>
      5   9999  3.79277E-02  4.53437E+01 -1.00000E+00  1.41542E-01
      21    -1     0     0   502   501  0.000000000E+00  0.000000000E+00  1.850192728E+02  1.850192728E+02  0.000000000E+00  0.00000E+00  9.000E+00
      21    -1     0     0   511   502  0.000000000E+00  0.000000000E+00 -4.993240465E+02  4.993240465E+02  0.000000000E+00  0.00000E+00  9.000E+00
      25     1     1     2     0     0 -8.121326173E+01 -9.926138227E+01  6.681410136E+01  1.911479533E+02  1.250000000E+02  0.00000E+00  9.000E+00
      25     1     1     2     0     0  8.587558236E+01  5.415805316E+01 -6.470586738E+01  1.735498765E+02  1.250000000E+02  0.00000E+00  9.000E+00
      21     1     1     2   511   501 -4.662320627E+00  4.510332912E+01 -3.164130077E+02  3.196454895E+02  3.814697266E-06  0.00000E+00  9.000E+00
#rwgt            1           1   3.7929564112768217E-002           3      352039           0
</event>
<event>
      5   9999  3.79277E-02  3.90173E+01 -1.00000E+00  1.45513E-01
       2    -1     0     0   502     0  0.000000000E+00  0.000000000E+00  1.754325506E+03  1.754325506E+03  0.000000000E+00  0.00000E+00  9.000E+00
      21    -1     0     0   501   502  0.000000000E+00  0.000000000E+00 -8.496421061E+01  8.496421061E+01  0.000000000E+00  0.00000E+00  9.000E+00
      25     1     1     2     0     0 -1.519621327E+02  5.559550624E+01  4.717725930E+02  5.141767494E+02  1.250000000E+02  0.00000E+00  9.000E+00
      25     1     1     2     0     0  1.780494091E+02 -8.460932549E+01  1.514542933E+02  2.782512048E+02  1.250000000E+02  0.00000E+00  9.000E+00
       2     1     1     2   501     0 -2.608727634E+01  2.901381925E+01  1.046134409E+03  1.046861762E+03  2.157918644E-05  0.00000E+00  9.000E+00
#rwgt            1           1   4.2950108059505845E-002           3      352194           0
</event>
<event>
      5   9999  3.79277E-02  7.53536E+01 -1.00000E+00  1.29620E-01
      21    -1     0     0   502   501  0.000000000E+00  0.000000000E+00  2.735551445E+02  2.735551445E+02  0.000000000E+00  0.00000E+00  9.000E+00
      21    -1     0     0   511   502  0.000000000E+00  0.000000000E+00 -3.607982782E+02  3.607982782E+02  0.000000000E+00  0.00000E+00  9.000E+00
      25     1     1     2     0     0  1.158908238E+01 -2.216419118E+01 -1.298642838E+02  1.819760709E+02  1.250000000E+02  0.00000E+00  9.000E+00
      25     1     1     2     0     0 -2.559757079E+01  9.620426547E+01  2.128832732E+02  2.661856201E+02  1.250000000E+02  0.00000E+00  9.000E+00
      21     1     1     2   511   501  1.400848840E+01 -7.404007429E+01 -1.702621231E+02  1.861917316E+02  0.000000000E+00  0.00000E+00  9.000E+00
#rwgt            1           1   2.9261263572381319E-002           3      352318           0
</event>
<event>
      5   9999  3.79277E-02  7.07731E+01 -1.00000E+00  1.30980E-01
       2    -1     0     0   502     0  0.000000000E+00  0.000000000E+00  4.113937577E+02  4.113937577E+02  0.000000000E+00  0.00000E+00  9.000E+00
      21    -1     0     0   501   502  0.000000000E+00  0.000000000E+00 -2.509018079E+02  2.509018079E+02  0.000000000E+00  0.00000E+00  9.000E+00
      25     1     1     2     0     0 -6.391825541E+01 -1.833812812E+02 -5.602155341E+01  2.376502727E+02  1.250000000E+02  0.00000E+00  9.000E+00
      25     1     1     2     0     0 -6.810322973E+00  1.808725438E+02  2.610871826E+01  2.215128049E+02  1.250000000E+02  0.00000E+00  9.000E+00
       2     1     1     2   501     0  7.072857839E+01  2.508737399E+00  1.904047849E+02  2.031324880E+02  2.697398305E-06  0.00000E+00  9.000E+00
#rwgt            1           1   7.5770540426878419E-002           3      352457           0
</event>
<event>
      5   9999  3.79277E-02  1.65148E+01 -1.00000E+00  1.73536E-01
      21    -1     0     0   502   501  0.000000000E+00  0.000000000E+00  6.147769987E+02  6.147769987E+02  0.000000000E+00  0.00000E+00  9.000E+00
       1    -1     0     0   501     0  0.000000000E+00  0.000000000E+00 -1.156307346E+02  1.156307346E+02  0.000000000E+00  0.00000E+00  9.000E+00
      25     1     1     2     0     0 -1.227007261E+02  7.264108131E+01  2.922423592E+02  3.483716283E+02  1.250000000E+02  0.00000E+00  9.000E+00
      25     1     1     2     0     0  1.121029711E+02 -5.997519472E+01  2.662503712E+02  3.204346427E+02  1.250000000E+02  0.00000E+00  9.000E+00
       1     1     1     2   502     0  1.059775501E+01 -1.266588659E+01 -5.934646631E+01  6.160146231E+01  6.743495762E-07  0.00000E+00  9.000E+00
#rwgt            1           1   3.4403361304396078E-002           3      352644           0
</event>
<event>
      5   9999  3.79277E-02  2.29456E+01 -1.00000E+00  1.61592E-01
       1    -1     0     0   502     0  0.000000000E+00  0.000000000E+00  1.065516978E+03  1.065516978E+03  0.000000000E+00  0.00000E+00  9.000E+00
      21    -1     0     0   501   502  0.000000000E+00  0.000000000E+00 -1.424888096E+02  1.424888096E+02  0.000000000E+00  0.00000E+00  9.000E+00
      25     1     1     2     0     0  1.733041244E+02  1.207386829E+02  2.147584709E+02  3.261262791E+02  1.250000000E+02  0.00000E+00  9.000E+00
      25     1     1     2     0     0 -1.719051295E+02 -1.436416096E+02  1.034209681E+02  2.765957017E+02  1.250000000E+02  0.00000E+00  9.000E+00
       1     1     1     2   501     0 -1.398994854E+00  2.290292667E+01  6.048487299E+02  6.052838072E+02  7.629394531E-06  0.00000E+00  9.000E+00
#rwgt            1           1   2.9254219805348460E-002           3      352910           0
</event>
<event>
      5   9999  3.79277E-02  8.23489E+01 -1.00000E+00  1.27744E-01
      21    -1     0     0   511   501  0.000000000E+00  0.000000000E+00  8.184302580E+01  8.184302580E+01  0.000000000E+00  0.00000E+00  9.000E+00
      21    -1     0     0   501   502  0.000000000E+00  0.000000000E+00 -7.813858179E+02  7.813858179E+02  0.000000000E+00  0.00000E+00  9.000E+00
      25     1     1     2     0     0  2.675900234E+01 -7.896184856E+01 -4.072791189E+02  4.341109287E+02  1.250000000E+02  0.00000E+00  9.000E+00
      25     1     1     2     0     0 -2.398162780E+01  1.612639284E+02 -2.777932810E+02  3.455072793E+02  1.250000000E+02  0.00000E+00  9.000E+00
      21     1     1     2   511   502 -2.777374541E+00 -8.230207982E+01 -1.447039219E+01  8.361063570E+01  6.307962682E-07  0.00000E+00  9.000E+00
#rwgt            1           1   3.2989970758961540E-002           3      353041           0
</event>
<event>
      5   9999 -3.79277E-02  1.03650E+02 -1.00000E+00  1.23132E-01
      21    -1     0     0   502   501  0.000000000E+00  0.000000000E+00  7.599306840E+01  7.599306840E+01  0.000000000E+00  0.00000E+00  9.000E+00
      21    -1     0     0   501   512  0.000000000E+00  0.000000000E+00 -1.250000200E+03  1.250000200E+03  0.000000000E+00  0.00000E+00  9.000E+00
      25     1     1     2     0     0  1.517834023E+02 -9.184493788E+01 -2.516027297E+02  3.322689083E+02  1.250000000E+02  0.00000E+00  9.000E+00
      25     1     1     2     0     0 -1.264088274E+02  1.923414476E+02 -5.897052941E+02  6.452532510E+02  1.250000000E+02  0.00000E+00  9.000E+00
      21     1     1     2   502   512 -2.537457485E+01 -1.004965097E+02 -3.326991080E+02  3.484711093E+02  5.394796609E-06  0.00000E+00  9.000E+00
#rwgt            1           1  -5.5748496063673693E-002           3      353137           0
</event>
<event>
      5   9999  3.79277E-02  4.79450E+01 -1.00000E+00  1.40123E-01
      21    -1     0     0   502   501  0.000000000E+00  0.000000000E+00  4.645726585E+01  4.645726585E+01  0.000000000E+00  0.00000E+00  9.000E+00
       2    -1     0     0   501     0  0.000000000E+00  0.000000000E+00 -2.488986906E+03  2.488986906E+03  0.000000000E+00  0.00000E+00  9.000E+00
      25     1     1     2     0     0 -1.211733056E+02 -1.920105063E+02 -1.753559251E+03  1.772609955E+03  1.250000000E+02  0.00000E+00  9.000E+00
      25     1     1     2     0     0  1.491812973E+02  1.530967589E+02 -4.039416232E+02  4.738011313E+02  1.250000000E+02  0.00000E+00  9.000E+00
       2     1     1     2   502     0 -2.800799176E+01  3.891374746E+01 -2.850287656E+02  2.890330855E+02  0.000000000E+00  0.00000E+00  9.000E+00
#rwgt            1           1  0.11334239791236167                3      353306           0
</event>
<event>
      5   9999  3.79277E-02  2.21103E+01 -1.00000E+00  1.62853E-01
      21    -1     0     0   511   501  0.000000000E+00  0.000000000E+00  1.304330460E+02  1.304330460E+02  0.000000000E+00  0.00000E+00  9.000E+00
      21    -1     0     0   501   502  0.000000000E+00  0.000000000E+00 -5.868559750E+02  5.868559750E+02  0.000000000E+00  0.00000E+00  9.000E+00
      25     1     1     2     0     0  1.243083573E+02 -3.386569337E+01 -4.151307517E+02  4.522808794E+02  1.250000000E+02  0.00000E+00  9.000E+00
      25     1     1     2     0     0 -1.411325550E+02  4.821180532E+01 -8.781924407E+01  2.134947210E+02  1.250000000E+02  0.00000E+00  9.000E+00
      21     1     1     2   511   502  1.682419770E+01 -1.434611195E+01  4.652706677E+01  5.151342057E+01  1.348699152E-06  0.00000E+00  9.000E+00
#rwgt            1           1   4.7439449027833029E-002           3      353417           0
</event>
<event>
      5   9999  3.79277E-02  2.07583E+01 -1.00000E+00  1.65047E-01
      21    -1     0     0   502   501  0.000000000E+00  0.000000000E+00  1.458654079E+03  1.458654079E+03  0.000000000E+00  0.00000E+00  9.000E+00
      21    -1     0     0   512   502  0.000000000E+00  0.000000000E+00 -3.933383666E+01  3.933383666E+01  0.000000000E+00  0.00000E+00  9.000E+00
      25     1     1     2     0     0  1.787104226E+02 -7.839140160E+01  7.443357692E+02  7.795789661E+02  1.250000000E+02  0.00000E+00  9.000E+00
      25     1     1     2     0     0 -1.782392911E+02  5.763847080E+01  6.153540736E+02  6.552687037E+02  1.250000000E+02  0.00000E+00  9.000E+00
      21     1     1     2   512   501 -4.711314742E-01  2.075293081E+01  5.963039950E+01  6.314024586E+01  6.743495762E-07  0.00000E+00  9.000E+00
#rwgt            1           1   2.4538184504260416E-002           3      353786           0
</event>
<event>
      5   9999  3.79277E-02  3.91850E+01 -1.00000E+00  1.45397E-01
      21    -1     0     0   502   501  0.000000000E+00  0.000000000E+00  3.035992600E+02  3.035992600E+02  0.000000000E+00  0.00000E+00  9.000E+00
      21    -1     0     0   501   511  0.000000000E+00  0.000000000E+00 -8.590465750E+02  8.590465750E+02  0.000000000E+00  0.00000E+00  9.000E+00
      25     1     1     2     0     0  1.098223780E+01  3.167131135E+01  2.562689197E+02  2.870930872E+02  1.250000000E+02  0.00000E+00  9.000E+00
      25     1     1     2     0     0 -4.769080848E+01 -4.538054083E+01 -1.277657598E+02  1.904806974E+02  1.250000000E+02  0.00000E+00  9.000E+00
      21     1     1     2   502   511  3.670857068E+01  1.370922948E+01 -6.839504749E+02  6.850720504E+02  1.321449896E-05  0.00000E+00  9.000E+00
#rwgt            1           1   2.1504471302870965E-002           3      353976           0
</event>
<event>
      5   9999  3.79277E-02  1.92032E+01 -1.00000E+00  1.67839E-01
      21    -1     0     0   502   512  0.000000000E+00  0.000000000E+00  5.296057677E+02  5.296057677E+02  0.000000000E+00  0.00000E+00  9.000E+00
      21    -1     0     0   501   502  0.000000000E+00  0.000000000E+00 -1.243658985E+03  1.243658985E+03  0.000000000E+00  0.00000E+00  9.000E+00
      25     1     1     2     0     0  1.610962896E+02  1.702926839E+02 -1.027403598E+03  1.061194970E+03  1.250000000E+02  0.00000E+00  9.000E+00
      25     1     1     2     0     0 -1.579549672E+02 -1.892372147E+02 -1.032435962E+02  2.950334477E+02  1.250000000E+02  0.00000E+00  9.000E+00
      21     1     1     2   501   512 -3.141322431E+00  1.894453086E+01  4.165939765E+02  4.170363347E+02  5.394796609E-06  0.00000E+00  9.000E+00
#rwgt            1           1   4.3503106885733382E-002           3      354089           0
</event>
<event>
      5   9999  3.79277E-02  4.94446E+01 -1.00000E+00  1.39353E-01
      21    -1     0     0   511   501  0.000000000E+00  0.000000000E+00  1.542367232E+02  1.542367232E+02  0.000000000E+00  0.00000E+00  9.000E+00
      21    -1     0     0   501   502  0.000000000E+00  0.000000000E+00 -4.805842311E+02  4.805842311E+02  0.000000000E+00  0.00000E+00  9.000E+00
      25     1     1     2     0     0 -1.280929999E+02  3.735445468E+01 -3.419756121E+02  3.877827887E+02  1.250000000E+02  0.00000E+00  9.000E+00
      25     1     1     2     0     0  1.252264582E+02 -8.671589218E+01  1.457707367E+01  1.975823951E+02  1.250000000E+02  0.00000E+00  9.000E+00
      21     1     1     2   511   502  2.866541725E+00  4.936143750E+01  1.051030509E+00  4.945577052E+01  2.767767850E-07  0.00000E+00  9.000E+00
#rwgt            1           1   4.0376293312859780E-002           3      354201           0
</event>
<event>
      5   9999  3.79277E-02  1.01064E+02 -1.00000E+00  1.23622E-01
      21    -1     0     0   502   501  0.000000000E+00  0.000000000E+00  8.692142603E+01  8.692142603E+01  0.000000000E+00  0.00000E+00  9.000E+00
      21    -1     0     0   512   502  0.000000000E+00  0.000000000E+00 -9.219722069E+02  9.219722069E+02  0.000000000E+00  0.00000E+00  9.000E+00
      25     1     1     2     0     0 -1.019428373E+02 -1.644183870E+01 -1.021629175E+02  1.916375168E+02  1.250000000E+02  0.00000E+00  9.000E+00
      25     1     1     2     0     0  1.922042346E+02  6.190368562E+01 -3.627965771E+02  4.336137573E+02  1.250000000E+02  0.00000E+00  9.000E+00
      21     1     1     2   512   501 -9.026139731E+01 -4.546184692E+01 -3.700912862E+02  3.836423589E+02  0.000000000E+00  0.00000E+00  9.000E+00
#rwgt            1           1   4.0489067220585248E-002           3      354303           0
</event>
<event>
      5   9999  3.79277E-02  5.52172E+01 -1.00000E+00  1.36660E-01
      21    -1     0     0   502   501  0.000000000E+00  0.000000000E+00  2.311389461E+02  2.311389461E+02  0.000000000E+00  0.00000E+00  9.000E+00
      21    -1     0     0   511   502  0.000000000E+00  0.000000000E+00 -6.406005270E+02  6.406005270E+02  0.000000000E+00  0.00000E+00  9.000E+00
      25     1     1     2     0     0  1.732332898E+01  1.295664812E+02 -6.128216529E+01  1.909661608E+02  1.250000000E+02  0.00000E+00  9.000E+00
      25     1     1     2     0     0 -6.420790961E+01 -1.587345922E+02  9.632106211E+01  2.328563365E+02  1.250000000E+02  0.00000E+00  9.000E+00
      21     1     1     2   511   501  4.688458063E+01  2.916811104E+01 -4.445004777E+02  4.479169759E+02  0.000000000E+00  0.00000E+00  9.000E+00
#rwgt            1           1   4.4183021249849595E-002           3      354367           0
</event>
<event>
      5   9999  3.79277E-02  4.37706E+01 -1.00000E+00  1.42455E-01
      21    -1     0     0   502   501  0.000000000E+00  0.000000000E+00  1.327496933E+03  1.327496933E+03  0.000000000E+00  0.00000E+00  9.000E+00
      -2    -1     0     0     0   502  0.000000000E+00  0.000000000E+00 -3.075536594E+02  3.075536594E+02  0.000000000E+00  0.00000E+00  9.000E+00
      25     1     1     2     0     0 -3.871723544E+02 -1.511965497E+02  5.164576735E+02  6.746231223E+02  1.250000000E+02  0.00000E+00  9.000E+00
      25     1     1     2     0     0  3.586975026E+02  1.844387566E+02  6.679544004E+02  7.902339112E+02  1.250000000E+02  0.00000E+00  9.000E+00
      -2     1     1     2     0   501  2.847485177E+01 -3.324220691E+01 -1.644687998E+02  1.701935593E+02  1.907348633E-06  0.00000E+00  9.000E+00
#rwgt            1           1   2.6172566001209371E-002           3      354485           0
</event>
<event>
      5   9999  3.79277E-02  1.99147E+01 -1.00000E+00  1.66522E-01
      21    -1     0     0   502   501  0.000000000E+00  0.000000000E+00  3.001180288E+02  3.001180288E+02  0.000000000E+00  0.00000E+00  9.000E+00
      21    -1     0     0   501   511  0.000000000E+00  0.000000000E+00 -1.959172800E+02  1.959172800E+02  0.000000000E+00  0.00000E+00  9.000E+00
      25     1     1     2     0     0  4.677808027E+01  1.313091063E+02  1.056913600E+02  2.150021715E+02  1.250000000E+02  0.00000E+00  9.000E+00
      25     1     1     2     0     0 -5.913988964E+01 -1.469225439E+02  6.472179131E+01  2.118907046E+02  1.250000000E+02  0.00000E+00  9.000E+00
      21     1     1     2   502   511  1.236180937E+01  1.561343759E+01 -6.621240237E+01  6.914243264E+01  1.348699152E-06  0.00000E+00  9.000E+00
#rwgt            1           1   3.4067609588183730E-002           3      354559           0
</event>
<event>
      5   9999 -4.20406E-02  1.81486E+01 -1.00000E+00  1.69927E-01
      21    -1     0     0   502   501  0.000000000E+00  0.000000000E+00  4.895891435E+02  4.895891435E+02  0.000000000E+00  0.00000E+00  9.000E+00
      21    -1     0     0   501   512  0.000000000E+00  0.000000000E+00 -4.063272949E+02  4.063272949E+02  0.000000000E+00  0.00000E+00  9.000E+00
      25     1     1     2     0     0  1.361635445E+02 -3.739481994E+02  1.235474323E+02  4.350479683E+02  1.250000000E+02  0.00000E+00  9.000E+00
      25     1     1     2     0     0 -1.312965296E+02  3.914319678E+02 -1.748570964E+01  4.317273609E+02  1.250000000E+02  0.00000E+00  9.000E+00
      21     1     1     2   502   512 -4.867014841E+00 -1.748376834E+01 -2.279987402E+01  2.914110918E+01  3.371747881E-07  0.00000E+00  9.000E+00
#rwgt            1           1 -0.47935590335088279                3      354738           0
</event>
<event>
      5   9999  3.79277E-02  4.37381E+01 -1.00000E+00  1.42474E-01
      21    -1     0     0   502   501  0.000000000E+00  0.000000000E+00  3.090852624E+02  3.090852624E+02  0.000000000E+00  0.00000E+00  9.000E+00
      21    -1     0     0   511   502  0.000000000E+00  0.000000000E+00 -3.094787687E+02  3.094787687E+02  0.000000000E+00  0.00000E+00  9.000E+00
      25     1     1     2     0     0 -3.916098564E+01 -2.485129943E+02  4.710892721E+00  2.809617121E+02  1.250000000E+02  0.00000E+00  9.000E+00
      25     1     1     2     0     0  8.190287302E+01  2.392310401E+02  2.697829634E+01  2.833591355E+02  1.250000000E+02  0.00000E+00  9.000E+00
      21     1     1     2   511   501 -4.274188737E+01  9.281954213E+00 -3.208269536E+01  5.424318346E+01  1.066240300E-06  0.00000E+00  9.000E+00
#rwgt            1           1   3.3723968496537957E-002           3      355002           0
</event>
<event>
      5   9999  3.79277E-02  1.41135E+01 -1.00000E+00  1.79913E-01
      21    -1     0     0   502   512  0.000000000E+00  0.000000000E+00  2.185812944E+02  2.185812944E+02  0.000000000E+00  0.00000E+00  9.000E+00
      21    -1     0     0   501   502  0.000000000E+00  0.000000000E+00 -2.410232477E+02  2.410232477E+02  0.000000000E+00  0.00000E+00  9.000E+00
      25     1     1     2     0     0  1.512699942E+02 -8.946226223E+01 -2.568532683E+01  2.171884977E+02  1.250000000E+02  0.00000E+00  9.000E+00
      25     1     1     2     0     0 -1.379231172E+02  8.487400249E+01 -2.956440231E+01  2.067013218E+02  1.250000000E+02  0.00000E+00  9.000E+00
      21     1     1     2   501   512 -1.334687708E+01  4.588259738E+00  3.280777582E+01  3.571472259E+01  4.768371582E-07  0.00000E+00  9.000E+00
#rwgt            1           1   3.4566208343587604E-002           3      355190           0
</event>
<event>
      5   9999  3.79277E-02  3.09777E+01 -1.00000E+00  1.52079E-01
      21    -1     0     0   511   501  0.000000000E+00  0.000000000E+00  1.174622490E+03  1.174622490E+03  0.000000000E+00  0.00000E+00  9.000E+00
      21    -1     0     0   501   502  0.000000000E+00  0.000000000E+00 -1.583051401E+02  1.583051401E+02  0.000000000E+00  0.00000E+00  9.000E+00
      25     1     1     2     0     0  6.495530438E+01  7.025233228E+01 -7.580272623E+01  1.747158695E+02  1.250000000E+02  0.00000E+00  9.000E+00
      25     1     1     2     0     0 -9.552721759E+01 -6.525451731E+01  1.884536309E+02  2.540145120E+02  1.250000000E+02  0.00000E+00  9.000E+00
      21     1     1     2   511   502  3.057191322E+01 -4.997814975E+00  9.036664455E+02  9.041972488E+02  1.078959322E-05  0.00000E+00  9.000E+00
#rwgt            1           1   4.6534389596000904E-002           3      355376           0
</event>
<event>
      5   9999  3.79277E-02  3.90055E+01 -1.00000E+00  1.45522E-01
      21    -1     0     0   512   501  0.000000000E+00  0.000000000E+00  6.312133766E+01  6.312133766E+01  0.000000000E+00  0.00000E+00  9.000E+00
      21    -1     0     0   501   502  0.000000000E+00  0.000000000E+00 -9.470604717E+02  9.470604717E+02  0.000000000E+00  0.00000E+00  9.000E+00
      25     1     1     2     0     0 -1.319501967E+02 -8.069282664E+01 -4.531739329E+02  4.948876642E+02  1.250000000E+02  0.00000E+00  9.000E+00
      25     1     1     2     0     0  9.985972814E+01  1.028656596E+02 -4.362430991E+02  4.759058213E+02  1.250000000E+02  0.00000E+00  9.000E+00
      21     1     1     2   512   502  3.209046859E+01 -2.217283296E+01  5.477897933E+00  3.938832392E+01  8.128989754E-07  0.00000E+00  9.000E+00
#rwgt            1           1   3.8339846132731788E-002           3      355528           0
</event>
<event>
      5   9999  3.79277E-02  5.10558E+01 -1.00000E+00  1.38560E-01
      21    -1     0     0   502   501  0.000000000E+00  0.000000000E+00  3.964857014E+02  3.964857014E+02  0.000000000E+00  0.00000E+00  9.000E+00
      21    -1     0     0   511   502  0.000000000E+00  0.000000000E+00 -1.507131016E+02  1.507131016E+02  0.000000000E+00  0.00000E+00  9.000E+00
      25     1     1     2     0     0  1.231956514E+02 -1.126951957E+02  2.206498619E+02  3.036259825E+02  1.250000000E+02  0.00000E+00  9.000E+00
      25     1     1     2     0     0 -7.221156637E+01  1.154011733E+02  4.250203691E+01  1.896400914E+02  1.250000000E+02  0.00000E+00  9.000E+00
      21     1     1     2   511   501 -5.098408503E+01 -2.705977619E+00 -1.737929900E+01  5.393272916E+01  3.371747881E-07  0.00000E+00  9.000E+00
#rwgt            1           1   2.9399128655621085E-002           3      355607           0
</event>
<event>
      5   9999  3.79277E-02  6.30434E+02 -1.00000E+00  9.60738E-02
       2    -1     0     0   502     0  0.000000000E+00  0.000000000E+00  2.451259588E+03  2.451259588E+03  0.000000000E+00  0.00000E+00  9.000E+00
      21    -1     0     0   501   502  0.000000000E+00  0.000000000E+00 -4.055877932E+02  4.055877932E+02  0.000000000E+00  0.00000E+00  9.000E+00
      25     1     1     2     0     0 -4.179377555E+02 -2.151391590E+02  4.679609629E-01  4.863970026E+02  1.250000000E+02  0.00000E+00  9.000E+00
      25     1     1     2     0     0  1.016485619E+02 -3.302126362E+02  1.953587097E+02  4.161283944E+02  1.250000000E+02  0.00000E+00  9.000E+00
       2     1     1     2   501     0  3.162891935E+02  5.453517952E+02  1.849845124E+03  1.954321984E+03  3.051757812E-05  0.00000E+00  9.000E+00
#rwgt            2          18   3.2515046549007380E-004           3      355842           0
</event>
<event>
      5   9999  3.79277E-02  1.23171E+01 -1.00000E+00  1.85845E-01
      21    -1     0     0   502   501  0.000000000E+00  0.000000000E+00  2.490241473E+02  2.490241473E+02  0.000000000E+00  0.00000E+00  9.000E+00
      21    -1     0     0   511   502  0.000000000E+00  0.000000000E+00 -3.248480238E+02  3.248480238E+02  0.000000000E+00  0.00000E+00  9.000E+00
      25     1     1     2     0     0  1.118306939E+02  1.213685200E+02 -2.142486516E+02  2.979327213E+02  1.250000000E+02  0.00000E+00  9.000E+00
      25     1     1     2     0     0 -1.136765005E+02 -1.091904776E+02  1.559355804E+02  2.545305726E+02  1.250000000E+02  0.00000E+00  9.000E+00
      21     1     1     2   511   501  1.845806580E+00 -1.217804238E+01 -1.751080534E+01  2.140887717E+01  2.384185791E-07  0.00000E+00  9.000E+00
#rwgt            1           1   3.7870025824595734E-002           3      355951           0
</event>
<event>
      5   9999  3.79277E-02  1.00897E+02 -1.00000E+00  1.23654E-01
      21    -1     0     0   502   501  0.000000000E+00  0.000000000E+00  1.148442864E+03  1.148442864E+03  0.000000000E+00  0.00000E+00  9.000E+00
      21    -1     0     0   501   512  0.000000000E+00  0.000000000E+00 -2.757690383E+02  2.757690383E+02  0.000000000E+00  0.00000E+00  9.000E+00
      25     1     1     2     0     0 -7.273550065E+01 -7.279899600E+01  1.021387128E+03  1.034140615E+03  1.250000000E+02  0.00000E+00  9.000E+00
      25     1     1     2     0     0  4.368132778E+01 -2.382417215E+01  6.820206230E+01  1.508382275E+02  1.250000000E+02  0.00000E+00  9.000E+00
      21     1     1     2   502   512  2.905417287E+01  9.662316815E+01 -2.169153643E+02  2.392330597E+02  3.814697266E-06  0.00000E+00  9.000E+00
#rwgt            1           1   4.3481219799588654E-002           3      356455           0
</event>
<event>
      5   9999  3.79277E-02  1.42998E+01 -1.00000E+00  1.79362E-01
      21    -1     0     0   502   511  0.000000000E+00  0.000000000E+00  2.143531120E+03  2.143531120E+03  0.000000000E+00  0.00000E+00  9.000E+00
      21    -1     0     0   501   502  0.000000000E+00  0.000000000E+00 -4.320001997E+02  4.320001997E+02  0.000000000E+00  0.00000E+00  9.000E+00
      25     1     1     2     0     0 -1.541170805E+02 -2.289190829E+00 -1.076977260E+02  2.257899801E+02  1.250000000E+02  0.00000E+00  9.000E+00
      25     1     1     2     0     0  1.479565529E+02 -1.061549534E+01 -2.297634718E+02  3.006993237E+02  1.250000000E+02  0.00000E+00  9.000E+00
      21     1     1     2   501   511  6.160527672E+00  1.290468617E+01  2.048992118E+03  2.049042016E+03  0.000000000E+00  0.00000E+00  9.000E+00
#rwgt            1           1   4.4850287302783128E-002           3      356538           0
</event>
<event>
      5   9999 -3.79277E-02  2.11237E+01 -1.00000E+00  1.64434E-01
      21    -1     0     0   502   501  0.000000000E+00  0.000000000E+00  7.104281934E+01  7.104281934E+01  0.000000000E+00  0.00000E+00  9.000E+00
      21    -1     0     0   501   512  0.000000000E+00  0.000000000E+00 -5.534660525E+02  5.534660525E+02  0.000000000E+00  0.00000E+00  9.000E+00
      25     1     1     2     0     0  1.511218682E+00 -8.732718013E+01 -3.790048632E+02  4.085315245E+02  1.250000000E+02  0.00000E+00  9.000E+00
      25     1     1     2     0     0  1.715181727E+01  7.743258823E+01 -4.634774983E+01  1.551228689E+02  1.250000000E+02  0.00000E+00  9.000E+00
      21     1     1     2   502   512 -1.866303595E+01  9.894591908E+00 -5.707062016E+01  6.085447844E+01  0.000000000E+00  0.00000E+00  9.000E+00
#rwgt            1           1 -0.21639655262469679                3      356669           0
</event>
<event>
      5   9999 -3.79277E-02  1.47993E+02 -1.00000E+00  1.16626E-01
       2    -1     0     0   502     0  0.000000000E+00  0.000000000E+00  2.337857439E+03  2.337857439E+03  0.000000000E+00  0.00000E+00  9.000E+00
      21    -1     0     0   501   502  0.000000000E+00  0.000000000E+00 -6.079022463E+02  6.079022463E+02  0.000000000E+00  0.00000E+00  9.000E+00
      25     1     1     2     0     0  1.722722542E+02 -1.595906149E+02 -4.069281713E+02  4.861711947E+02  1.250000000E+02  0.00000E+00  9.000E+00
      25     1     1     2     0     0 -1.757546644E+02  1.163889681E+01 -8.549209803E+01  2.322909055E+02  1.250000000E+02  0.00000E+00  9.000E+00
       2     1     1     2   501     0  3.482410202E+00  1.479517181E+02  2.222375462E+03  2.227297585E+03  3.051757812E-05  0.00000E+00  9.000E+00
#rwgt            1           1  -2.9177704699774737E-002           3      356832           0
</event>
<event>
      5   9999  3.79277E-02  3.89094E+01 -1.00000E+00  1.45589E-01
      21    -1     0     0   511   501  0.000000000E+00  0.000000000E+00  1.595886595E+03  1.595886595E+03  0.000000000E+00  0.00000E+00  9.000E+00
      21    -1     0     0   501   502  0.000000000E+00  0.000000000E+00 -1.478825605E+02  1.478825605E+02  0.000000000E+00  0.00000E+00  9.000E+00
      25     1     1     2     0     0  2.969877072E+02  1.314404955E+02  2.534902825E+02  4.305352778E+02  1.250000000E+02  0.00000E+00  9.000E+00
      25     1     1     2     0     0 -2.640832410E+02 -1.522067357E+02  4.019130191E+02  5.196786733E+02  1.250000000E+02  0.00000E+00  9.000E+00
      21     1     1     2   511   502 -3.290446622E+01  2.076624021E+01  7.926007325E+02  7.935552040E+02  1.078959322E-05  0.00000E+00  9.000E+00
#rwgt            1           1   4.0785190833820407E-002           3      356940           0
</event>
<event>
      5   9999 -3.79277E-02  7.98666E+01 -1.00000E+00  1.28385E-01
      21    -1     0     0   502   501  0.000000000E+00  0.000000000E+00  9.043353769E+01  9.043353769E+01  0.000000000E+00  0.00000E+00  9.000E+00
       2    -1     0     0   501     0  0.000000000E+00  0.000000000E+00 -1.233357531E+03  1.233357531E+03  0.000000000E+00  0.00000E+00  9.000E+00
      25     1     1     2     0     0  2.133950132E+02 -1.531942028E+02 -6.038115179E+02  6.702381998E+02  1.250000000E+02  0.00000E+00  9.000E+00
      25     1     1     2     0     0 -1.570657775E+02  9.657531323E+01 -5.278084476E+02  5.728902224E+02  1.250000000E+02  0.00000E+00  9.000E+00
       2     1     1     2   502     0 -5.632923567E+01  5.661888958E+01 -1.130402760E+01  8.066264618E+01  2.434322579E-06  0.00000E+00  9.000E+00
#rwgt            1           1 -0.15801857713457301                3      357145           0
</event>
<event>
      5   9999 -4.91327E-02  1.58433E+01 -1.00000E+00  1.75175E-01
      21    -1     0     0   502   501  0.000000000E+00  0.000000000E+00  3.901441377E+02  3.901441377E+02  0.000000000E+00  0.00000E+00  9.000E+00
      21    -1     0     0   511   502  0.000000000E+00  0.000000000E+00 -6.678224556E+02  6.678224556E+02  0.000000000E+00  0.00000E+00  9.000E+00
      25     1     1     2     0     0 -4.236869335E+02  1.692638118E+02 -2.954204420E+02  5.577267191E+02  1.250000000E+02  0.00000E+00  9.000E+00
      25     1     1     2     0     0  4.354396994E+02 -1.586391312E+02  2.888979415E+01  4.808676803E+02  1.250000000E+02  0.00000E+00  9.000E+00
      21     1     1     2   511   501 -1.175276589E+01 -1.062468066E+01 -1.114767004E+01  1.937219380E+01  0.000000000E+00  0.00000E+00  9.000E+00
#rwgt            1           1  -1.4248417305401553                3      357287           0
</event>
<event>
      5   9999  3.79277E-02  1.64982E+01 -1.00000E+00  1.73575E-01
       2    -1     0     0   502     0  0.000000000E+00  0.000000000E+00  1.007864683E+03  1.007864683E+03  0.000000000E+00  0.00000E+00  9.000E+00
      21    -1     0     0   501   502  0.000000000E+00  0.000000000E+00 -1.614755397E+02  1.614755397E+02  0.000000000E+00  0.00000E+00  9.000E+00
      25     1     1     2     0     0  1.812751956E+01 -6.040862839E+01 -1.178402169E+02  1.830003444E+02  1.250000000E+02  0.00000E+00  9.000E+00
      25     1     1     2     0     0 -3.280234891E+01  6.794784971E+01  4.773310535E+02  4.991621370E+02  1.250000000E+02  0.00000E+00  9.000E+00
       2     1     1     2   501     0  1.467482935E+01 -7.539221326E+00  4.868983071E+02  4.871777416E+02  0.000000000E+00  0.00000E+00  9.000E+00
#rwgt            1           1   4.1741089352910127E-002           3      357598           0
</event>
<event>
      5   9999  3.79277E-02  7.34697E+01 -1.00000E+00  1.30165E-01
      21    -1     0     0   502   501  0.000000000E+00  0.000000000E+00  2.072418438E+03  2.072418438E+03  0.000000000E+00  0.00000E+00  9.000E+00
      21    -1     0     0   511   502  0.000000000E+00  0.000000000E+00 -4.361097024E+01  4.361097024E+01  0.000000000E+00  0.00000E+00  9.000E+00
      25     1     1     2     0     0  4.512522983E+01 -3.184536853E+01  1.770501239E+03  1.775767454E+03  1.250000000E+02  0.00000E+00  9.000E+00
      25     1     1     2     0     0 -6.501028735E+01 -3.888216034E+01  1.919416480E+02  2.412566187E+02  1.250000000E+02  0.00000E+00  9.000E+00
      21     1     1     2   511   501  1.988505752E+01  7.072752886E+01  6.636458080E+01  9.900533540E+01  3.015782986E-06  0.00000E+00  9.000E+00
#rwgt            1           1  0.15677026226027846                3      357785           0
</event>
<event>
      5   9999  3.79277E-02  1.66558E+01 -1.00000E+00  1.73204E-01
      21    -1     0     0   502   501  0.000000000E+00  0.000000000E+00  4.995991804E+02  4.995991804E+02  0.000000000E+00  0.00000E+00  9.000E+00
      21    -1     0     0   501   512  0.000000000E+00  0.000000000E+00 -2.472291996E+02  2.472291996E+02  0.000000000E+00  0.00000E+00  9.000E+00
      25     1     1     2     0     0 -1.128188811E+02 -1.661825993E+02  3.308045988E+02  4.066957571E+02  1.250000000E+02  0.00000E+00  9.000E+00
      25     1     1     2     0     0  1.113576889E+02  1.827742220E+02  1.203098840E+01  2.481465208E+02  1.250000000E+02  0.00000E+00  9.000E+00
      21     1     1     2   502   512  1.461192220E+00 -1.659162274E+01 -9.046560642E+01  9.198610207E+01  9.536743164E-07  0.00000E+00  9.000E+00
#rwgt            1           1   4.5843086680172736E-002           3      357971           0
</event>
<event>
      5   9999  3.79277E-02  9.55673E+01 -1.00000E+00  1.24720E-01
      21    -1     0     0   502   501  0.000000000E+00  0.000000000E+00  4.204591194E+02  4.204591194E+02  0.000000000E+00  0.00000E+00  9.000E+00
      21    -1     0     0   511   502  0.000000000E+00  0.000000000E+00 -9.048465602E+02  9.048465602E+02  0.000000000E+00  0.00000E+00  9.000E+00
      25     1     1     2     0     0  1.756317026E+02  5.958625772E+01  7.275153913E+01  2.351909937E+02  1.250000000E+02  0.00000E+00  9.000E+00
      25     1     1     2     0     0 -2.440729691E+02 -1.262864010E+02  1.768790318E+02  3.499015021E+02  1.250000000E+02  0.00000E+00  9.000E+00
      21     1     1     2   511   501  6.844126648E+01  6.670014324E+01 -7.340180116E+02  7.402131838E+02  0.000000000E+00  0.00000E+00  9.000E+00
#rwgt            1           1   8.3877346077264145E-002           3      358169           0
</event>
<event>
      5   9999  3.79277E-02  1.15246E+01 -1.00000E+00  1.88893E-01
      21    -1     0     0   502   512  0.000000000E+00  0.000000000E+00  5.105574504E+01  5.105574504E+01  0.000000000E+00  0.00000E+00  9.000E+00
      21    -1     0     0   501   502  0.000000000E+00  0.000000000E+00 -8.403375611E+02  8.403375611E+02  0.000000000E+00  0.00000E+00  9.000E+00
      25     1     1     2     0     0  8.207270665E+01 -1.251782003E+02 -3.373317631E+02  3.896450044E+02  1.250000000E+02  0.00000E+00  9.000E+00
      25     1     1     2     0     0 -8.696880137E+01  1.356110780E+02 -4.409593206E+02  4.858230741E+02  1.250000000E+02  0.00000E+00  9.000E+00
      21     1     1     2   501   512  4.896094719E+00 -1.043287767E+01 -1.099073222E+01  1.592522762E+01  1.685873940E-07  0.00000E+00  9.000E+00
#rwgt            1           1   4.9778633191049242E-002           3      358334           0
</event>
<event>
      5   9999  3.79277E-02  1.16537E+02 -1.00000E+00  1.20911E-01
      21    -1     0     0   502   501  0.000000000E+00  0.000000000E+00  5.962550278E+01  5.962550278E+01  0.000000000E+00  0.00000E+00  9.000E+00
      21    -1     0     0   511   502  0.000000000E+00  0.000000000E+00 -1.421056675E+03  1.421056675E+03  0.000000000E+00  0.00000E+00  9.000E+00
      25     1     1     2     0     0  1.756103222E+02 -8.400464701E+01 -5.901685770E+02  6.338925108E+02  1.250000000E+02  0.00000E+00  9.000E+00
      25     1     1     2     0     0 -1.556540025E+02 -3.081078910E+01 -3.023867088E+02  3.636484496E+02  1.250000000E+02  0.00000E+00  9.000E+00
      21     1     1     2   511   501 -1.995631963E+01  1.148154361E+02 -4.688758859E+02  4.831412169E+02  5.394796609E-06  0.00000E+00  9.000E+00
#rwgt            2          11   1.6809970483983991E-003           3      358614           0
</event>
<event>
      5   9999 -3.79277E-02  1.67765E+02 -1.00000E+00  1.14499E-01
      21    -1     0     0   502   501  0.000000000E+00  0.000000000E+00  4.653447432E+02  4.653447432E+02  0.000000000E+00  0.00000E+00  9.000E+00
      21    -1     0     0   501   512  0.000000000E+00  0.000000000E+00 -1.399792539E+03  1.399792539E+03  0.000000000E+00  0.00000E+00  9.000E+00
      25     1     1     2     0     0  1.575575750E+02  7.246381880E+01  2.499474106E+02  3.288983164E+02  1.250000000E+02  0.00000E+00  9.000E+00
      25     1     1     2     0     0 -6.517388982E+01 -2.125003966E+02  7.492977310E+01  2.657884975E+02  1.250000000E+02  0.00000E+00  9.000E+00
      21     1     1     2   502   512 -9.238368518E+01  1.400365778E+02 -1.259324980E+03  1.270450469E+03  2.157918644E-05  0.00000E+00  9.000E+00
#rwgt            1           1 -0.17997746370369866                3      358634           0
</event>
<event>
      5   9999  3.79277E-02  7.57384E+01 -1.00000E+00  1.29511E-01
      21    -1     0     0   502   501  0.000000000E+00  0.000000000E+00  1.774772500E+02  1.774772500E+02  0.000000000E+00  0.00000E+00  9.000E+00
       5    -1     0     0   501     0  0.000000000E+00  0.000000000E+00 -5.684904205E+02  5.684904205E+02  0.000000000E+00  0.00000E+00  9.000E+00
      25     1     1     2     0     0  1.279028727E+02  7.147553507E+01 -2.829747147E+02  3.422975112E+02  1.250000000E+02  0.00000E+00  9.000E+00
      25     1     1     2     0     0 -1.258498174E+02  4.235064297E+00  8.468189698E+01  1.966014648E+02  1.250000000E+02  0.00000E+00  9.000E+00
       5     1     1     2   502     0 -2.053055337E+00 -7.571059936E+01 -1.927203527E+02  2.070686945E+02  2.697398305E-06  0.00000E+00  9.000E+00
#rwgt            1           1   3.3546956098709307E-002           3      358795           0
</event>
<event>
      5   9999  3.79277E-02  3.21876E+01 -1.00000E+00  1.50947E-01
       2    -1     0     0   502     0  0.000000000E+00  0.000000000E+00  2.020671497E+03  2.020671497E+03  0.000000000E+00  0.00000E+00  9.000E+00
      21    -1     0     0   501   502  0.000000000E+00  0.000000000E+00 -2.957920502E+01  2.957920502E+01  0.000000000E+00  0.00000E+00  9.000E+00
      25     1     1     2     0     0 -1.187003893E+02  5.092512017E+01  3.489960491E+02  3.925638707E+02  1.250000000E+02  0.00000E+00  9.000E+00
      25     1     1     2     0     0  1.209030072E+02 -8.303731032E+01  1.473184917E+03  1.485736024E+03  1.250000000E+02  0.00000E+00  9.000E+00
       2     1     1     2   501     0 -2.202617893E+00  3.211219015E+01  1.689113256E+02  1.719508075E+02  3.303624740E-06  0.00000E+00  9.000E+00
#rwgt            1           1   1.2171542493353862E-002           3      358868           0
</event>
<event>
      5   9999  3.79277E-02  3.70009E+01 -1.00000E+00  1.46971E-01
      21    -1     0     0   502   501  0.000000000E+00  0.000000000E+00  2.087935574E+03  2.087935574E+03  0.000000000E+00  0.00000E+00  9.000E+00
      21    -1     0     0   501   511  0.000000000E+00  0.000000000E+00 -4.505504881E+01  4.505504881E+01  0.000000000E+00  0.00000E+00  9.000E+00
      25     1     1     2     0     0 -1.093199004E+02 -1.761320174E+02  4.246639883E+02  4.888126748E+02  1.250000000E+02  0.00000E+00  9.000E+00
      25     1     1     2     0     0  7.234887581E+01  1.746451388E+02  1.550828637E+03  1.567300146E+03  1.250000000E+02  0.00000E+00  9.000E+00
      21     1     1     2   502   511  3.697102458E+01  1.486878548E+00  6.738789945E+01  7.687780211E+01  0.000000000E+00  0.00000E+00  9.000E+00
#rwgt            1           1   3.5392466653286471E-002           3      359012           0
</event>
<event>
      5   9999  3.79277E-02  2.01909E+01 -1.00000E+00  1.66029E-01
      21    -1     0     0   502   501  0.000000000E+00  0.000000000E+00  9.523871037E+01  9.523871037E+01  0.000000000E+00  0.00000E+00  9.000E+00
      21    -1     0     0   512   502  0.000000000E+00  0.000000000E+00 -5.681232913E+02  5.681232913E+02  0.000000000E+00  0.00000E+00  9.000E+00
      25     1     1     2     0     0 -1.306984857E+02 -4.671774345E+01 -2.857705243E+02  3.414006946E+02  1.250000000E+02  0.00000E+00  9.000E+00
      25     1     1     2     0     0  1.112012712E+02  5.196470874E+01 -4.835304494E+01  1.817390179E+02  1.250000000E+02  0.00000E+00  9.000E+00
      21     1     1     2   512   501  1.949721446E+01 -5.246965297E+00 -1.387610117E+02  1.402222892E+02  0.000000000E+00  0.00000E+00  9.000E+00
#rwgt            1           1   4.9290114231980257E-002           3      359218           0
</event>
<event>
      5   9999  3.79277E-02  2.93304E+01 -1.00000E+00  1.53724E-01
      21    -1     0     0   511   501  0.000000000E+00  0.000000000E+00  4.302547152E+02  4.302547152E+02  0.000000000E+00  0.00000E+00  9.000E+00
      21    -1     0     0   501   502  0.000000000E+00  0.000000000E+00 -1.985093184E+02  1.985093184E+02  0.000000000E+00  0.00000E+00  9.000E+00
      25     1     1     2     0     0 -1.095135956E+02 -1.718650378E+02 -4.940107411E+01  2.441235035E+02  1.250000000E+02  0.00000E+00  9.000E+00
      25     1     1     2     0     0  1.029681230E+02  1.432742851E+02  1.864789754E+02  2.855334716E+02  1.250000000E+02  0.00000E+00  9.000E+00
      21     1     1     2   511   502  6.545472638E+00  2.859075269E+01  9.466749550E+01  9.910705856E+01  1.348699152E-06  0.00000E+00  9.000E+00
#rwgt            1           1   3.5401628567679318E-002           3      359352           0
</event>
<event>
      5   9999  3.79277E-02  1.04202E+02 -1.00000E+00  1.23029E-01
      21    -1     0     0   502   501  0.000000000E+00  0.000000000E+00  4.311856625E+02  4.311856625E+02  0.000000000E+00  0.00000E+00  9.000E+00
      21    -1     0     0   512   502  0.000000000E+00  0.000000000E+00 -1.610501755E+02  1.610501755E+02  0.000000000E+00  0.00000E+00  9.000E+00
      25     1     1     2     0     0 -7.449049157E+01  1.462073941E+02  2.452601602E+02  3.204730591E+02  1.250000000E+02  0.00000E+00  9.000E+00
      25     1     1     2     0     0 -2.224851502E+01 -1.074830513E+02  1.230041097E+01  1.668049845E+02  1.250000000E+02  0.00000E+00  9.000E+00
      21     1     1     2   512   501  9.673900659E+01 -3.872434278E+01  1.257491585E+01  1.049577945E+02  3.371747881E-07  0.00000E+00  9.000E+00
#rwgt            1           1   2.8210084452639898E-002           3      359607           0
</event>
<event>
      5   9999  3.79277E-02  1.32843E+02 -1.00000E+00  1.18523E-01
      21    -1     0     0   511   501  0.000000000E+00  0.000000000E+00  3.873207908E+01  3.873207908E+01  0.000000000E+00  0.00000E+00  9.000E+00
      21    -1     0     0   501   502  0.000000000E+00  0.000000000E+00 -2.857154423E+03  2.857154423E+03  0.000000000E+00  0.00000E+00  9.000E+00
      25     1     1     2     0     0  2.567448493E+02  2.065902708E+01 -1.913345253E+03  1.934647195E+03  1.250000000E+02  0.00000E+00  9.000E+00
      25     1     1     2     0     0 -1.271326122E+02 -4.977756245E+01 -6.136766605E+02  6.409871687E+02  1.250000000E+02  0.00000E+00  9.000E+00
      21     1     1     2   511   502 -1.296122371E+02  2.911853537E+01 -2.914004308E+02  3.202521384E+02  5.394796609E-06  0.00000E+00  9.000E+00
#rwgt            1           1   8.2151811302749234E-002           3      359700           0
</event>
<event>
      5   9999  3.79277E-02  5.24627E+01 -1.00000E+00  1.37895E-01
      21    -1     0     0   502   501  0.000000000E+00  0.000000000E+00  3.212651015E+02  3.212651015E+02  0.000000000E+00  0.00000E+00  9.000E+00
      21    -1     0     0   512   502  0.000000000E+00  0.000000000E+00 -1.261905495E+03  1.261905495E+03  0.000000000E+00  0.00000E+00  9.000E+00
      25     1     1     2     0     0 -6.876426221E+01  1.060488270E+02  2.604009148E+02  3.152911573E+02  1.250000000E+02  0.00000E+00  9.000E+00
      25     1     1     2     0     0  9.344893057E+01 -5.975623712E+01 -1.804801200E+02  2.459706978E+02  1.250000000E+02  0.00000E+00  9.000E+00
      21     1     1     2   512   501 -2.468466836E+01 -4.629258989E+01 -1.020561189E+03  1.021908742E+03  1.078959322E-05  0.00000E+00  9.000E+00
#rwgt            1           1   3.5562952256722818E-002           3      359778           0
</event>
<event>
      5   9999  3.79277E-02  2.80652E+01 -1.00000E+00  1.55078E-01
      21    -1     0     0   502   511  0.000000000E+00  0.000000000E+00  4.834173366E+02  4.834173366E+02  0.000000000E+00  0.00000E+00  9.000E+00
      21    -1     0     0   501   502  0.000000000E+00  0.000000000E+00 -1.042629303E+03  1.042629303E+03  0.000000000E+00  0.00000E+00  9.000E+00
      25     1     1     2     0     0  2.389550463E+02  1.344882655E+02 -8.800834916E+02  9.302465049E+02  1.250000000E+02  0.00000E+00  9.000E+00
      25     1     1     2     0     0 -2.260059787E+02 -1.095889272E+02  6.969205994E+00  2.806456934E+02  1.250000000E+02  0.00000E+00  9.000E+00
      21     1     1     2   501   511 -1.294906753E+01 -2.489933829E+01  3.139023196E+02  3.151544409E+02  0.000000000E+00  0.00000E+00  9.000E+00
#rwgt            1           1  0.20706542408428044                3      360005           0
</event>
<event>
      5   9999  3.79277E-02  1.73142E+01 -1.00000E+00  1.71708E-01
      21    -1     0     0   512   501  0.000000000E+00  0.000000000E+00  7.717723739E+01  7.717723739E+01  0.000000000E+00  0.00000E+00  9.000E+00
      21    -1     0     0   501   502  0.000000000E+00  0.000000000E+00 -5.068244829E+02  5.068244829E+02  0.000000000E+00  0.00000E+00  9.000E+00
      25     1     1     2     0     0  1.030871203E+02  5.184956447E+01 -3.430882712E+02  3.829489438E+02  1.250000000E+02  0.00000E+00  9.000E+00
      25     1     1     2     0     0 -8.919913566E+01 -4.151001213E+01 -9.088461500E+01  1.832063868E+02  1.250000000E+02  0.00000E+00  9.000E+00
      21     1     1     2   512   502 -1.388798461E+01 -1.033955234E+01  4.325640703E+00  1.784638974E+01  4.951133646E-07  0.00000E+00  9.000E+00
#rwgt            1           1   4.9448905249667836E-002           3      360219           0
</event>
<event>
      5   9999  3.79277E-02  1.86354E+01 -1.00000E+00  1.68942E-01
      21    -1     0     0   502   511  0.000000000E+00  0.000000000E+00  1.436972550E+03  1.436972550E+03  0.000000000E+00  0.00000E+00  9.000E+00
      21    -1     0     0   501   502  0.000000000E+00  0.000000000E+00 -7.339773427E+01  7.339773427E+01  0.000000000E+00  0.00000E+00  9.000E+00
      25     1     1     2     0     0 -1.940608862E+02 -1.725620861E+02  6.032233302E+02  6.685362273E+02  1.250000000E+02  0.00000E+00  9.000E+00
      25     1     1     2     0     0  1.937172260E+02  1.911943636E+02  5.148909826E+02  5.956671657E+02  1.250000000E+02  0.00000E+00  9.000E+00
      21     1     1     2   501   511  3.436601593E-01 -1.863227748E+01  2.454605030E+02  2.461668913E+02  0.000000000E+00  0.00000E+00  9.000E+00
#rwgt            1           1   3.7838240018392456E-002           3      360402           0
</event>
<event>
      5   9999  3.79277E-02  3.33750E+01 -1.00000E+00  1.49892E-01
      21    -1     0     0   502   512  0.000000000E+00  0.000000000E+00  2.999298173E+02  2.999298173E+02  0.000000000E+00  0.00000E+00  9.000E+00
      21    -1     0     0   501   502  0.000000000E+00  0.000000000E+00 -2.659120734E+02  2.659120734E+02  0.000000000E+00  0.00000E+00  9.000E+00
      25     1     1     2     0     0 -9.217252953E+01  1.964728868E+02  9.091386747E+00  2.506093050E+02  1.250000000E+02  0.00000E+00  9.000E+00
      25     1     1     2     0     0  9.943767611E+01 -2.290475619E+02  1.218097293E+01  2.795067319E+02  1.250000000E+02  0.00000E+00  9.000E+00
      21     1     1     2   501   512 -7.265146586E+00  3.257467516E+01  1.274538422E+01  3.572585388E+01  2.384185791E-07  0.00000E+00  9.000E+00
#rwgt            1           1   3.5608036840490520E-002           3      360546           0
</event>
<event>
      5   9999  3.79277E-02  9.37525E+00 -1.00000E+00  1.99053E-01
      21    -1     0     0   502   501  0.000000000E+00  0.000000000E+00  2.902618108E+02  2.902618108E+02  0.000000000E+00  0.00000E+00  9.000E+00
      21    -1     0     0   501   511  0.000000000E+00  0.000000000E+00 -1.673055438E+02  1.673055438E+02  0.000000000E+00  0.00000E+00  9.000E+00
      25     1     1     2     0     0  1.624586594E+02  5.173557459E+01  6.468166506E+01  2.210839286E+02  1.250000000E+02  0.00000E+00  9.000E+00
      25     1     1     2     0     0 -1.715678036E+02 -4.951774882E+01  6.164148097E+01  2.265219434E+02  1.250000000E+02  0.00000E+00  9.000E+00
      21     1     1     2   502   511  9.109144203E+00 -2.217825772E+00 -3.366879104E+00  9.961482528E+00  1.632340424E-07  0.00000E+00  9.000E+00
#rwgt            1           1   4.9675838676054206E-002           3      360681           0
</event>
<event>
      5   9999  3.79277E-02  1.18930E+02 -1.00000E+00  1.20534E-01
      21    -1     0     0   512   501  0.000000000E+00  0.000000000E+00  2.624654291E+02  2.624654291E+02  0.000000000E+00  0.00000E+00  9.000E+00
      21    -1     0     0   501   502  0.000000000E+00  0.000000000E+00 -2.770337503E+02  2.770337503E+02  0.000000000E+00  0.00000E+00  9.000E+00
      25     1     1     2     0     0  1.739086652E+02 -3.872371088E+00 -1.373291712E+02  2.544474805E+02  1.250000000E+02  0.00000E+00  9.000E+00
      25     1     1     2     0     0 -5.520914433E+01  1.126764898E+01  7.952851570E+01  1.585080261E+02  1.250000000E+02  0.00000E+00  9.000E+00
      21     1     1     2   512   502 -1.186995209E+02 -7.395277897E+00  4.323233427E+01  1.265436728E+02  1.261592536E-06  0.00000E+00  9.000E+00
#rwgt            1           1   3.5596605984680639E-002           3      361001           0
</event>
<event>
      5   9999  3.79277E-02  2.16872E+01 -1.00000E+00  1.63518E-01
      21    -1     0     0   502   511  0.000000000E+00  0.000000000E+00  5.191594627E+02  5.191594627E+02  0.000000000E+00  0.00000E+00  9.000E+00
      21    -1     0     0   501   502  0.000000000E+00  0.000000000E+00 -1.791729821E+02  1.791729821E+02  0.000000000E+00  0.00000E+00  9.000E+00
      25     1     1     2     0     0 -1.533915326E+02 -3.728688924E+01  1.865427438E+01  2.022183383E+02  1.250000000E+02  0.00000E+00  9.000E+00
      25     1     1     2     0     0  1.477557734E+02  5.822903352E+01  3.040730255E+01  2.043819781E+02  1.250000000E+02  0.00000E+00  9.000E+00
      21     1     1     2   501   511  5.635759211E+00 -2.094214428E+01  2.909249036E+02  2.917321284E+02  0.000000000E+00  0.00000E+00  9.000E+00
#rwgt            1           1   3.3832815340324361E-002           3      361056           0
</event>
<event>
      5   9999 -3.79277E-02  1.09716E+01 -1.00000E+00  1.91214E-01
      21    -1     0     0   502   501  0.000000000E+00  0.000000000E+00  6.326727620E+02  6.326727620E+02  0.000000000E+00  0.00000E+00  9.000E+00
      21    -1     0     0   501   512  0.000000000E+00  0.000000000E+00 -4.370124914E+02  4.370124914E+02  0.000000000E+00  0.00000E+00  9.000E+00
      25     1     1     2     0     0 -1.287549167E+02  4.810032130E+01  2.710043509E+02  3.285724086E+02  1.250000000E+02  0.00000E+00  9.000E+00
      25     1     1     2     0     0  1.322752723E+02 -3.770880247E+01  3.068568057E+02  3.587545131E+02  1.250000000E+02  0.00000E+00  9.000E+00
      21     1     1     2   502   512 -3.520355618E+00 -1.039151883E+01 -3.822008859E+02  3.823583317E+02  5.394796609E-06  0.00000E+00  9.000E+00
#rwgt            1           1 -0.32212825760909469                3      361257           0
</event>
<event>
      5   9999  3.79277E-02  4.83894E+01 -1.00000E+00  1.39892E-01
       2    -1     0     0   502     0  0.000000000E+00  0.000000000E+00  1.931522222E+03  1.931522222E+03  0.000000000E+00  0.00000E+00  9.000E+00
      21    -1     0     0   501   502  0.000000000E+00  0.000000000E+00 -3.922388659E+02  3.922388659E+02  0.000000000E+00  0.00000E+00  9.000E+00
      25     1     1     2     0     0  1.702544349E+02 -2.607778765E+02  5.590984961E+01  3.402096189E+02  1.250000000E+02  0.00000E+00  9.000E+00
      25     1     1     2     0     0 -2.181393838E+02  2.538087881E+02 -1.219548754E+02  3.774939514E+02  1.250000000E+02  0.00000E+00  9.000E+00
       2     1     1     2   501     0  4.788494890E+01  6.969088391E+00  1.605328382E+03  1.606057518E+03  3.051757812E-05  0.00000E+00  9.000E+00
#rwgt            1           1  0.27406313456816789                3      361525           0
</event>
<event>
      5   9999  3.79277E-02  1.82666E+02 -1.00000E+00  1.13100E-01
      21    -1     0     0   502   511  0.000000000E+00  0.000000000E+00  7.205253632E+02  7.205253632E+02  0.000000000E+00  0.00000E+00  9.000E+00
      21    -1     0     0   501   502  0.000000000E+00  0.000000000E+00 -2.169373303E+02  2.169373303E+02  0.000000000E+00  0.00000E+00  9.000E+00
      25     1     1     2     0     0 -1.298517534E+02 -7.356332115E+01 -1.098410355E+02  2.235242563E+02  1.250000000E+02  0.00000E+00  9.000E+00
      25     1     1     2     0     0 -1.170173552E+01 -4.188978452E+01  4.492295043E+02  4.683202239E+02  1.250000000E+02  0.00000E+00  9.000E+00
      21     1     1     2   501   511  1.415534889E+02  1.154531057E+02  1.641995642E+02  2.456182133E+02  3.303624740E-06  0.00000E+00  9.000E+00
#rwgt            1           1   4.3384051255246220E-002           3      361654           0
</event>
<event>
      5   9999  3.79277E-02  7.68839E+01 -1.00000E+00  1.29190E-01
      21    -1     0     0   502   501  0.000000000E+00  0.000000000E+00  2.443367063E+02  2.443367063E+02  0.000000000E+00  0.00000E+00  9.000E+00
      21    -1     0     0   501   512  0.000000000E+00  0.000000000E+00 -5.167219625E+02  5.167219625E+02  0.000000000E+00  0.00000E+00  9.000E+00
      25     1     1     2     0     0  1.445174660E+02 -2.098739991E+01  1.095010447E+02  2.212266886E+02  1.250000000E+02  0.00000E+00  9.000E+00
      25     1     1     2     0     0 -1.389230436E+02  9.766748529E+01 -7.554166511E+01  2.239868141E+02  1.250000000E+02  0.00000E+00  9.000E+00
      21     1     1     2   502   512 -5.594422424E+00 -7.668008538E+01 -3.063446359E+02  3.158451662E+02  5.394796609E-06  0.00000E+00  9.000E+00
#rwgt            1           1   2.6544077415523604E-002           3      361771           0
</event>
<event>
      5   9999  3.79277E-02  6.10654E+01 -1.00000E+00  1.34296E-01
       1    -1     0     0   502     0  0.000000000E+00  0.000000000E+00  3.466936913E+02  3.466936913E+02  0.000000000E+00  0.00000E+00  9.000E+00
      21    -1     0     0   501   502  0.000000000E+00  0.000000000E+00 -4.461229859E+02  4.461229859E+02  0.000000000E+00  0.00000E+00  9.000E+00
      25     1     1     2     0     0 -6.916379037E+01  7.387638897E+01  5.166931284E+00  1.609131689E+02  1.250000000E+02  0.00000E+00  9.000E+00
      25     1     1     2     0     0  3.419010913E+01 -2.381819813E+01 -3.526407071E+02  3.764528369E+02  1.250000000E+02  0.00000E+00  9.000E+00
       1     1     1     2   501     0  3.497368124E+01 -5.005819083E+01  2.480444812E+02  2.554506713E+02  3.814697266E-06  0.00000E+00  9.000E+00
#rwgt            1           1   4.0912276272703781E-002           3      361825           0
</event>
<event>
      5   9999  3.79277E-02  2.57475E+01 -1.00000E+00  1.57798E-01
      21    -1     0     0   511   501  0.000000000E+00  0.000000000E+00  1.152442125E+02  1.152442125E+02  0.000000000E+00  0.00000E+00  9.000E+00
      21    -1     0     0   501   502  0.000000000E+00  0.000000000E+00 -3.350307916E+02  3.350307916E+02  0.000000000E+00  0.00000E+00  9.000E+00
      25     1     1     2     0     0 -9.042600072E+01 -4.866962106E+00 -9.406894173E+01  1.807609325E+02  1.250000000E+02  0.00000E+00  9.000E+00
      25     1     1     2     0     0  7.563673295E+01 -1.620936805E+01 -1.659843144E+02  2.217193082E+02  1.250000000E+02  0.00000E+00  9.000E+00
      21     1     1     2   511   502  1.478926777E+01  2.107633016E+01  4.026667700E+01  4.779476343E+01  8.259061849E-07  0.00000E+00  9.000E+00
#rwgt            1           1   5.9834046797575230E-002           3      361929           0
</event>
<event>
      5   9999  3.79277E-02  7.43028E+01 -1.00000E+00  1.29922E-01
      21    -1     0     0   502   501  0.000000000E+00  0.000000000E+00  2.373101804E+02  2.373101804E+02  0.000000000E+00  0.00000E+00  9.000E+00
      21    -1     0     0   512   502  0.000000000E+00  0.000000000E+00 -4.235683883E+02  4.235683883E+02  0.000000000E+00  0.00000E+00  9.000E+00
      25     1     1     2     0     0 -1.026034975E+02  1.474802128E+02  4.544269436E+01  2.235350741E+02  1.250000000E+02  0.00000E+00  9.000E+00
      25     1     1     2     0     0  1.613490689E+02 -1.929759056E+02 -1.253044225E+02  3.075701879E+02  1.250000000E+02  0.00000E+00  9.000E+00
      21     1     1     2   512   501 -5.874557140E+01  4.549569281E+01 -1.063964799E+02  1.297733068E+02  1.348699152E-06  0.00000E+00  9.000E+00
#rwgt            1           1   3.2180714886227799E-002           3      362091           0
</event>
<event>
      5   9999  3.79277E-02  3.70400E+01 -1.00000E+00  1.46942E-01
      21    -1     0     0   502   511  0.000000000E+00  0.000000000E+00  1.057710738E+03  1.057710738E+03  0.000000000E+00  0.00000E+00  9.000E+00
      21    -1     0     0   501   502  0.000000000E+00  0.000000000E+00 -7.192326279E+01  7.192326279E+01  0.000000000E+00  0.00000E+00  9.000E+00
      25     1     1     2     0     0 -1.617717799E+02  7.743250679E+01  7.195068341E+02  7.519846981E+02  1.250000000E+02  0.00000E+00  9.000E+00
      25     1     1     2     0     0  1.565091197E+02 -4.076823292E+01  1.444059397E+02  2.502703115E+02  1.250000000E+02  0.00000E+00  9.000E+00
      21     1     1     2   501   511  5.262660166E+00 -3.666427387E+01  1.218747018E+02  1.273789917E+02  2.336015456E-06  0.00000E+00  9.000E+00
#rwgt            1           1   3.3063535883112179E-002           3      362187           0
</event>
<event>
      5   9999  3.79277E-02  1.68806E+02 -1.00000E+00  1.14396E-01
      21    -1     0     0   502   501  0.000000000E+00  0.000000000E+00  1.913874124E+03  1.913874124E+03  0.000000000E+00  0.00000E+00  9.000E+00
       2    -1     0     0   501     0  0.000000000E+00  0.000000000E+00 -3.563892599E+02  3.563892599E+02  0.000000000E+00  0.00000E+00  9.000E+00
      25     1     1     2     0     0  4.270769963E+02 -2.725091932E+01  8.220969819E+02  9.352036254E+02  1.250000000E+02  0.00000E+00  9.000E+00
      25     1     1     2     0     0 -4.718289326E+02 -1.355152170E+02  9.412070712E+02  1.068869808E+03  1.250000000E+02  0.00000E+00  9.000E+00
       2     1     1     2   502     0  4.475193637E+01  1.627661363E+02 -2.058191892E+02  2.661899502E+02  1.044697871E-05  0.00000E+00  9.000E+00
#rwgt            1           1  0.19850529966567221                3      362298           0
</event>
<event>
      5   9999  3.79277E-02  4.01213E+00 -1.00000E+00  2.63161E-01
      21    -1     0     0   502   511  0.000000000E+00  0.000000000E+00  6.421581677E+02  6.421581677E+02  0.000000000E+00  0.00000E+00  9.000E+00
      21    -1     0     0   501   502  0.000000000E+00  0.000000000E+00 -7.976253717E+01  7.976253717E+01  0.000000000E+00  0.00000E+00  9.000E+00
      25     1     1     2     0     0  1.234064762E+02 -7.997245949E+01  9.716063131E+01  2.160785527E+02  1.250000000E+02  0.00000E+00  9.000E+00
      25     1     1     2     0     0 -1.194949936E+02  7.907943537E+01  4.273496026E+02  4.677449021E+02  1.250000000E+02  0.00000E+00  9.000E+00
      21     1     1     2   501   511 -3.911482642E+00  8.930241159E-01  3.788539669E+01  3.809725018E+01  6.743495762E-07  0.00000E+00  9.000E+00
#rwgt            1           1   2.4166545447003644E-002           3      362413           0
</event>
<event>
      5   9999  3.79277E-02  1.13259E+01 -1.00000E+00  1.89707E-01
      21    -1     0     0   502   501  0.000000000E+00  0.000000000E+00  3.860521655E+02  3.860521655E+02  0.000000000E+00  0.00000E+00  9.000E+00
      21    -1     0     0   512   502  0.000000000E+00  0.000000000E+00 -8.882759571E+01  8.882759571E+01  0.000000000E+00  0.00000E+00  9.000E+00
      25     1     1     2     0     0 -6.514877219E+01  4.268905916E+00  2.455584967E+00  1.410447304E+02  1.250000000E+02  0.00000E+00  9.000E+00
      25     1     1     2     0     0  5.615714394E+01  2.617846887E+00  2.913914138E+02  3.220162014E+02  1.250000000E+02  0.00000E+00  9.000E+00
      21     1     1     2   512   501  8.991628249E+00 -6.886752803E+00  3.377571067E+00  1.181882943E+01  1.976862425E-07  0.00000E+00  9.000E+00
#rwgt            1           1   2.9340284168914696E-002           3      362799           0
</event>
<event>
      5   9999  3.79277E-02  2.23130E+01 -1.00000E+00  1.62541E-01
      21    -1     0     0   502   511  0.000000000E+00  0.000000000E+00  1.484045699E+02  1.484045699E+02  0.000000000E+00  0.00000E+00  9.000E+00
      21    -1     0     0   501   502  0.000000000E+00  0.000000000E+00 -3.123890612E+02  3.123890612E+02  0.000000000E+00  0.00000E+00  9.000E+00
      25     1     1     2     0     0 -1.228161940E+02  2.931114721E+01 -8.606470242E+00  1.778820738E+02  1.250000000E+02  0.00000E+00  9.000E+00
      25     1     1     2     0     0  1.005106777E+02 -2.988892268E+01 -1.844544341E+02  2.462603953E+02  1.250000000E+02  0.00000E+00  9.000E+00
      21     1     1     2   501   511  2.230551626E+01  5.777754711E-01  2.907641308E+01  3.665116202E+01  3.371747881E-07  0.00000E+00  9.000E+00
#rwgt            1           1   4.2759126010706909E-002           3      363068           0
</event>
<event>
      5   9999  3.79277E-02  1.03001E+02 -1.00000E+00  1.23253E-01
      21    -1     0     0   512   501  0.000000000E+00  0.000000000E+00  2.165708361E+02  2.165708361E+02  0.000000000E+00  0.00000E+00  9.000E+00
      21    -1     0     0   501   502  0.000000000E+00  0.000000000E+00 -5.777191634E+02  5.777191634E+02  0.000000000E+00  0.00000E+00  9.000E+00
      25     1     1     2     0     0  8.980402110E+01  1.327641240E+02 -2.306937295E+02  3.074665375E+02  1.250000000E+02  0.00000E+00  9.000E+00
      25     1     1     2     0     0 -9.130061641E+01 -2.357540883E+02 -2.141381074E+02  3.541128658E+02  1.250000000E+02  0.00000E+00  9.000E+00
      21     1     1     2   512   502  1.496595304E+00  1.029899643E+02  8.368350968E+01  1.327105962E+02  1.348699152E-06  0.00000E+00  9.000E+00
#rwgt            1           1   3.2538669389591122E-002           3      363260           0
</event>
<event>
      5   9999  3.79277E-02  4.16067E+01 -1.00000E+00  1.43787E-01
      21    -1     0     0   502   501  0.000000000E+00  0.000000000E+00  1.977494278E+02  1.977494278E+02  0.000000000E+00  0.00000E+00  9.000E+00
      21    -1     0     0   511   502  0.000000000E+00  0.000000000E+00 -1.196028876E+03  1.196028876E+03  0.000000000E+00  0.00000E+00  9.000E+00
      25     1     1     2     0     0 -1.081053990E+02  1.106474201E+02  4.571601496E+01  2.040700441E+02  1.250000000E+02  0.00000E+00  9.000E+00
      25     1     1     2     0     0  6.650888314E+01 -1.097281494E+02 -3.833713589E+01  1.831896130E+02  1.250000000E+02  0.00000E+00  9.000E+00
      21     1     1     2   511   501  4.159651587E+01 -9.192706370E-01 -1.005658327E+03  1.006518646E+03  1.078959322E-05  0.00000E+00  9.000E+00
#rwgt            1           1   3.9098285056455677E-002           3      363395           0
</event>
<event>
      5   9999  3.79277E-02  7.46638E+01 -1.00000E+00  1.29818E-01
      21    -1     0     0   502   501  0.000000000E+00  0.000000000E+00  1.488892891E+02  1.488892891E+02  0.000000000E+00  0.00000E+00  9.000E+00
      21    -1     0     0   501   512  0.000000000E+00  0.000000000E+00 -7.755615038E+02  7.755615038E+02  0.000000000E+00  0.00000E+00  9.000E+00
      25     1     1     2     0     0 -5.523115854E+01 -2.210915371E+02 -4.947015600E+02  5.588260750E+02  1.250000000E+02  0.00000E+00  9.000E+00
      25     1     1     2     0     0  4.608803966E+01  1.469896362E+02  1.687987004E+01  1.990979421E+02  1.250000000E+02  0.00000E+00  9.000E+00
      21     1     1     2   502   512  9.143118876E+00  7.410190093E+01 -1.488505247E+02  1.665267757E+02  0.000000000E+00  0.00000E+00  9.000E+00
#rwgt            1           1   5.0157050214055345E-002           3      363492           0
</event>
<event>
      5   9999 -3.79277E-02  9.26743E+01 -1.00000E+00  1.25332E-01
      21    -1     0     0   502   501  0.000000000E+00  0.000000000E+00  1.223340750E+02  1.223340750E+02  0.000000000E+00  0.00000E+00  9.000E+00
      21    -1     0     0   511   502  0.000000000E+00  0.000000000E+00 -4.707072982E+02  4.707072982E+02  0.000000000E+00  0.00000E+00  9.000E+00
      25     1     1     2     0     0 -3.169278683E+00 -9.069264052E+01 -1.189864786E+02  1.949820029E+02  1.250000000E+02  0.00000E+00  9.000E+00
      25     1     1     2     0     0 -4.072411943E-01  1.832979331E+02 -1.120924009E+02  2.485719302E+02  1.250000000E+02  0.00000E+00  9.000E+00
      21     1     1     2   511   501  3.576519878E+00 -9.260529259E+01 -1.172943437E+02  1.494874402E+02  1.907348633E-06  0.00000E+00  9.000E+00
#rwgt            1           1  -2.8885072828457821E-002           3      363691           0
</event>
<event>
      5   9999  3.79277E-02  1.00886E+01 -1.00000E+00  1.95315E-01
      21    -1     0     0   512   501  0.000000000E+00  0.000000000E+00  1.371985172E+02  1.371985172E+02  0.000000000E+00  0.00000E+00  9.000E+00
      21    -1     0     0   501   502  0.000000000E+00  0.000000000E+00 -3.233065237E+02  3.233065237E+02  0.000000000E+00  0.00000E+00  9.000E+00
      25     1     1     2     0     0 -5.766151406E+01 -1.261393429E+02 -5.911839453E+01  1.958467988E+02  1.250000000E+02  0.00000E+00  9.000E+00
      25     1     1     2     0     0  5.269600276E+01  1.349213696E+02 -1.476450751E+02  2.416706703E+02  1.250000000E+02  0.00000E+00  9.000E+00
      21     1     1     2   512   502  4.965511294E+00 -8.782026692E+00  2.065546315E+01  2.298757172E+01  2.384185791E-07  0.00000E+00  9.000E+00
#rwgt            1           1   3.1783861479274367E-002           3      363824           0
</event>
<event>
      5   9999  3.79277E-02  4.78732E+01 -1.00000E+00  1.40161E-01
      21    -1     0     0   502   501  0.000000000E+00  0.000000000E+00  1.254312349E+02  1.254312349E+02  0.000000000E+00  0.00000E+00  9.000E+00
      21    -1     0     0   501   511  0.000000000E+00  0.000000000E+00 -5.245896152E+02  5.245896152E+02  0.000000000E+00  0.00000E+00  9.000E+00
      25     1     1     2     0     0 -1.198803958E+02  8.289400505E+00 -3.854216516E+02  4.226285284E+02  1.250000000E+02  0.00000E+00  9.000E+00
      25     1     1     2     0     0  7.530355446E+01  9.167676781E+00  4.371137630E+01  1.526117821E+02  1.250000000E+02  0.00000E+00  9.000E+00
      21     1     1     2   502   511  4.457684138E+01 -1.745707729E+01 -5.744810502E+01  7.478053961E+01  9.536743164E-07  0.00000E+00  9.000E+00
#rwgt            1           1   3.8766506384305566E-002           3      364233           0
</event>
<event>
      5   9999  3.79277E-02  4.50109E+01 -1.00000E+00  1.41731E-01
      21    -1     0     0   502   501  0.000000000E+00  0.000000000E+00  4.118696065E+01  4.118696065E+01  0.000000000E+00  0.00000E+00  9.000E+00
      21    -1     0     0   501   512  0.000000000E+00  0.000000000E+00 -1.440585807E+03  1.440585807E+03  0.000000000E+00  0.00000E+00  9.000E+00
      25     1     1     2     0     0 -9.711945480E+01  1.310540810E+02 -6.143524275E+02  6.478126780E+02  1.250000000E+02  0.00000E+00  9.000E+00
      25     1     1     2     0     0  5.641081691E+01 -1.118502764E+02 -3.113432701E+02  3.581232978E+02  1.250000000E+02  0.00000E+00  9.000E+00
      21     1     1     2   502   512  4.070863789E+01 -1.920380463E+01 -4.737031488E+02  4.758367919E+02  5.394796609E-06  0.00000E+00  9.000E+00
#rwgt            1           1   3.1604439480331079E-002           3      364402           0
</event>
<event>
      5   9999  3.79277E-02  6.67136E+01 -1.00000E+00  1.32287E-01
      21    -1     0     0   502   511  0.000000000E+00  0.000000000E+00  4.667360385E+01  4.667360385E+01  0.000000000E+00  0.00000E+00  9.000E+00
      21    -1     0     0   501   502  0.000000000E+00  0.000000000E+00 -7.304789874E+02  7.304789874E+02  0.000000000E+00  0.00000E+00  9.000E+00
      25     1     1     2     0     0  5.499586493E+01  5.216481627E+01 -4.451485780E+02  4.685381198E+02  1.250000000E+02  0.00000E+00  9.000E+00
      25     1     1     2     0     0  6.109002993E+00 -2.538973739E+01 -1.397001439E+02  1.892698837E+02  1.250000000E+02  0.00000E+00  9.000E+00
      21     1     1     2   501   511 -6.110486792E+01 -2.677507888E+01 -9.895666170E+01  1.193445878E+02  1.348699152E-06  0.00000E+00  9.000E+00
#rwgt            1           1   8.0748559997511918E-002           3      364618           0
</event>
<event>
      5   9999  3.79277E-02  6.87807E+00 -1.00000E+00  2.16638E-01
      21    -1     0     0   512   501  0.000000000E+00  0.000000000E+00  1.826504178E+02  1.826504178E+02  0.000000000E+00  0.00000E+00  9.000E+00
      21    -1     0     0   501   502  0.000000000E+00  0.000000000E+00 -1.855722312E+02  1.855722312E+02  0.000000000E+00  0.00000E+00  9.000E+00
      25     1     1     2     0     0  5.941364704E+00  5.159475183E+01 -1.219666621E+02  1.822036907E+02  1.250000000E+02  0.00000E+00  9.000E+00
      25     1     1     2     0     0 -2.899864509E+00 -4.542571110E+01  1.019829594E+02  1.676228757E+02  1.250000000E+02  0.00000E+00  9.000E+00
      21     1     1     2   512   502 -3.041500194E+00 -6.169040731E+00  1.706188934E+01  1.839608259E+01  2.384185791E-07  0.00000E+00  9.000E+00
#rwgt            1           1   2.6734453432592131E-002           3      364803           0
</event>
<event>
      5   9999  3.79277E-02  5.43865E+01 -1.00000E+00  1.37023E-01
      21    -1     0     0   502   501  0.000000000E+00  0.000000000E+00  1.787272895E+02  1.787272895E+02  0.000000000E+00  0.00000E+00  9.000E+00
      21    -1     0     0   511   502  0.000000000E+00  0.000000000E+00 -4.594044020E+02  4.594044020E+02  0.000000000E+00  0.00000E+00  9.000E+00
      25     1     1     2     0     0 -2.498203469E+01 -1.232729720E+02 -1.481875842E+02  2.310949757E+02  1.250000000E+02  0.00000E+00  9.000E+00
      25     1     1     2     0     0  2.991594616E+01  6.911072163E+01  9.434489325E+01  1.737734576E+02  1.250000000E+02  0.00000E+00  9.000E+00
      21     1     1     2   511   501 -4.933911474E+00  5.416225032E+01 -2.268344215E+02  2.332632582E+02  2.697398305E-06  0.00000E+00  9.000E+00
#rwgt            1           1   4.4988090741796972E-002           3      365061           0
</event>
<event>
      5   9999  3.79277E-02  1.24376E+02 -1.00000E+00  1.19712E-01
       2    -1     0     0   502     0  0.000000000E+00  0.000000000E+00  5.414724068E+02  5.414724068E+02  0.000000000E+00  0.00000E+00  9.000E+00
      21    -1     0     0   501   502  0.000000000E+00  0.000000000E+00 -2.080865358E+02  2.080865358E+02  0.000000000E+00  0.00000E+00  9.000E+00
      25     1     1     2     0     0  1.483478601E+02  1.435399321E+02 -2.371673918E+01  2.424835735E+02  1.250000000E+02  0.00000E+00  9.000E+00
      25     1     1     2     0     0 -3.148956714E+01 -1.861251183E+02  1.731723991E+02  2.850400538E+02  1.250000000E+02  0.00000E+00  9.000E+00
       2     1     1     2   501     0 -1.168582929E+02  4.258518619E+01  1.839302111E+02  2.220353154E+02  2.697398305E-06  0.00000E+00  9.000E+00
#rwgt            1           1   6.6820299185906831E-002           3      365166           0
</event>
<event>
      5   9999  3.79277E-02  1.29864E+02 -1.00000E+00  1.18930E-01
      -1    -1     0     0     0   501  0.000000000E+00  0.000000000E+00  1.200523461E+03  1.200523461E+03  0.000000000E+00  0.00000E+00  9.000E+00
      21    -1     0     0   501   502  0.000000000E+00  0.000000000E+00 -2.132974574E+02  2.132974574E+02  0.000000000E+00  0.00000E+00  9.000E+00
      25     1     1     2     0     0 -6.123157026E+01  2.067956728E+02  4.184708992E+01  2.527645830E+02  1.250000000E+02  0.00000E+00  9.000E+00
      25     1     1     2     0     0 -6.826571629E+01 -1.970496964E+02  3.998836141E+01  2.463997969E+02  1.250000000E+02  0.00000E+00  9.000E+00
      -1     1     1     2     0   502  1.294972865E+02 -9.745976353E+00  9.053905523E+02  9.146565386E+02  1.078959322E-05  0.00000E+00  9.000E+00
#rwgt            1           1   3.4181237010324050E-002           3      365209           0
</event>
<event>
      5   9999  3.79277E-02  2.64739E+01 -1.00000E+00  1.56910E-01
      21    -1     0     0   502   501  0.000000000E+00  0.000000000E+00  1.276351804E+02  1.276351804E+02  0.000000000E+00  0.00000E+00  9.000E+00
      21    -1     0     0   501   511  0.000000000E+00  0.000000000E+00 -3.700008092E+02  3.700008092E+02  0.000000000E+00  0.00000E+00  9.000E+00
      25     1     1     2     0     0 -2.041966079E+01 -1.853072775E+01  6.674929650E+01  1.443634961E+02  1.250000000E+02  0.00000E+00  9.000E+00
      25     1     1     2     0     0  4.488808573E+01  8.423224706E+00 -1.947140564E+02  2.358483723E+02  1.250000000E+02  0.00000E+00  9.000E+00
      21     1     1     2   502   511 -2.446842494E+01  1.010750304E+01 -1.144008689E+02  1.174241212E+02  1.348699152E-06  0.00000E+00  9.000E+00
#rwgt            1           1   4.7391605012441579E-002           3      365274           0
</event>
<event>
      5   9999  3.79277E-02  2.38676E+01 -1.00000E+00  1.60274E-01
      21    -1     0     0   502   501  0.000000000E+00  0.000000000E+00  1.249180898E+02  1.249180898E+02  0.000000000E+00  0.00000E+00  9.000E+00
      21    -1     0     0   512   502  0.000000000E+00  0.000000000E+00 -7.098735350E+02  7.098735350E+02  0.000000000E+00  0.00000E+00  9.000E+00
      25     1     1     2     0     0 -9.989626880E+01 -9.411078007E+01 -4.373241699E+02  4.750931835E+02  1.250000000E+02  0.00000E+00  9.000E+00
      25     1     1     2     0     0  1.152161038E+02  1.124128369E+02  6.325145132E+00  2.039029277E+02  1.250000000E+02  0.00000E+00  9.000E+00
      21     1     1     2   512   501 -1.531983501E+01 -1.830205685E+01 -1.539564205E+02  1.557955135E+02  1.907348633E-06  0.00000E+00  9.000E+00
#rwgt            1           1   4.0869005944495156E-002           3      365398           0
</event>
<event>
      5   9999  3.79277E-02  5.99274E+00 -1.00000E+00  2.25553E-01
      21    -1     0     0   511   501  0.000000000E+00  0.000000000E+00  1.320248796E+02  1.320248796E+02  0.000000000E+00  0.00000E+00  9.000E+00
      21    -1     0     0   501   502  0.000000000E+00  0.000000000E+00 -5.408388864E+02  5.408388864E+02  0.000000000E+00  0.00000E+00  9.000E+00
      25     1     1     2     0     0  5.007252981E+01 -7.389338034E+01 -1.894559932E+02  2.438976491E+02  1.250000000E+02  0.00000E+00  9.000E+00
      25     1     1     2     0     0 -4.628571451E+01  7.853804737E+01 -3.055925654E+02  3.425235879E+02  1.250000000E+02  0.00000E+00  9.000E+00
      21     1     1     2   511   502 -3.786815300E+00 -4.644667033E+00  8.623455170E+01  8.644252894E+01  9.536743164E-07  0.00000E+00  9.000E+00
#rwgt            1           1   3.7697617370881085E-002           3      365635           0
</event>
<event>
      5   9999  3.79277E-02  5.57760E+01 -1.00000E+00  1.36420E-01
       2    -1     0     0   502     0  0.000000000E+00  0.000000000E+00  2.464482392E+02  2.464482392E+02  0.000000000E+00  0.00000E+00  9.000E+00
      21    -1     0     0   501   502  0.000000000E+00  0.000000000E+00 -7.291801279E+02  7.291801279E+02  0.000000000E+00  0.00000E+00  9.000E+00
      25     1     1     2     0     0  1.372822952E+02 -9.549201193E+01 -2.505464528E+02  3.261344476E+02  1.250000000E+02  0.00000E+00  9.000E+00
      25     1     1     2     0     0 -1.624656527E+02  4.572499203E+01 -4.113406823E+02  4.618571426E+02  1.250000000E+02  0.00000E+00  9.000E+00
       2     1     1     2   501     0  2.518335756E+01  4.976701990E+01  1.791552464E+02  1.876367770E+02  2.697398305E-06  0.00000E+00  9.000E+00
#rwgt            1           1   3.2529118901755770E-002           3      365929           0
</event>
<event>
      5   9999  3.79277E-02  1.62556E+01 -1.00000E+00  1.74157E-01
      21    -1     0     0   511   501  0.000000000E+00  0.000000000E+00  1.097730508E+02  1.097730508E+02  0.000000000E+00  0.00000E+00  9.000E+00
      21    -1     0     0   501   502  0.000000000E+00  0.000000000E+00 -3.620723393E+02  3.620723393E+02  0.000000000E+00  0.00000E+00  9.000E+00
      25     1     1     2     0     0 -9.923402524E+01  9.791189551E+01 -6.595038776E+01  1.985159558E+02  1.250000000E+02  0.00000E+00  9.000E+00
      25     1     1     2     0     0  9.365813130E+01 -8.264252532E+01 -1.867038715E+02  2.570699675E+02  1.250000000E+02  0.00000E+00  9.000E+00
      21     1     1     2   511   502  5.575893944E+00 -1.526937018E+01  3.549706237E-01  1.625946688E+01  3.424836676E-07  0.00000E+00  9.000E+00
#rwgt            1           1   4.0270146493849981E-002           3      366141           0
</event>
<event>
      5   9999  3.79277E-02  4.89442E+01 -1.00000E+00  1.39606E-01
      21    -1     0     0   502   501  0.000000000E+00  0.000000000E+00  1.466030619E+02  1.466030619E+02  0.000000000E+00  0.00000E+00  9.000E+00
      21    -1     0     0   501   512  0.000000000E+00  0.000000000E+00 -3.146716006E+02  3.146716006E+02  0.000000000E+00  0.00000E+00  9.000E+00
      25     1     1     2     0     0 -1.053164386E+02  4.261874487E+01 -1.829649240E+01  1.699048889E+02  1.250000000E+02  0.00000E+00  9.000E+00
      25     1     1     2     0     0  1.080705309E+02  6.247934437E+00 -3.845898702E+01  1.697715230E+02  1.250000000E+02  0.00000E+00  9.000E+00
      21     1     1     2   502   512 -2.754092347E+00 -4.886667931E+01 -1.113130593E+02  1.215982506E+02  0.000000000E+00  0.00000E+00  9.000E+00
#rwgt            1           1   4.5141758332432350E-002           3      366356           0
</event>
<event>
      5   9999  3.79277E-02  3.63112E+01 -1.00000E+00  1.47495E-01
      21    -1     0     0   511   501  0.000000000E+00  0.000000000E+00  3.596378326E+02  3.596378326E+02  0.000000000E+00  0.00000E+00  9.000E+00
      21    -1     0     0   501   502  0.000000000E+00  0.000000000E+00 -1.963103217E+02  1.963103217E+02  0.000000000E+00  0.00000E+00  9.000E+00
      25     1     1     2     0     0 -5.569801965E+01 -1.320702556E+01  2.905659828E+02  3.214502843E+02  1.250000000E+02  0.00000E+00  9.000E+00
      25     1     1     2     0     0  2.264808951E+01 -1.833012559E+00 -1.460718998E+02  1.935931192E+02  1.250000000E+02  0.00000E+00  9.000E+00
      21     1     1     2   511   502  3.304993014E+01  1.504003812E+01  1.883342795E+01  4.090475079E+01  6.307962682E-07  0.00000E+00  9.000E+00
#rwgt            1           1   3.8654948382001605E-002           3      366507           0
</event>
<event>
      5   9999  3.79277E-02  6.44277E+01 -1.00000E+00  1.33072E-01
      21    -1     0     0   502   501  0.000000000E+00  0.000000000E+00  2.889704566E+02  2.889704566E+02  0.000000000E+00  0.00000E+00  9.000E+00
      21    -1     0     0   512   502  0.000000000E+00  0.000000000E+00 -2.129353615E+02  2.129353615E+02  0.000000000E+00  0.00000E+00  9.000E+00
      25     1     1     2     0     0 -1.584272980E+02 -4.123547531E+01  2.231503930E+01  2.071775426E+02  1.250000000E+02  0.00000E+00  9.000E+00
      25     1     1     2     0     0  1.544789913E+02  1.055420834E+02  4.781274470E+01  2.300303212E+02  1.250000000E+02  0.00000E+00  9.000E+00
      21     1     1     2   512   501  3.948306784E+00 -6.430660805E+01  5.907311058E+00  6.469795429E+01  2.001864388E-06  0.00000E+00  9.000E+00
#rwgt            1           1   4.5544284069893963E-002           3      366667           0
</event>
<event>
      5   9999  3.79277E-02  5.49904E+01 -1.00000E+00  1.36758E-01
      21    -1     0     0   511   501  0.000000000E+00  0.000000000E+00  3.769773825E+01  3.769773825E+01  0.000000000E+00  0.00000E+00  9.000E+00
      21    -1     0     0   501   502  0.000000000E+00  0.000000000E+00 -1.297013769E+03  1.297013769E+03  0.000000000E+00  0.00000E+00  9.000E+00
      25     1     1     2     0     0  1.120743981E+02  9.931678501E+01 -7.482666701E+02  7.732738869E+02  1.250000000E+02  0.00000E+00  9.000E+00
      25     1     1     2     0     0 -8.371507464E+01 -5.220316281E+01 -4.585371838E+02  4.854016202E+02  1.250000000E+02  0.00000E+00  9.000E+00
      21     1     1     2   511   502 -2.835932346E+01 -4.711362219E+01 -5.251217701E+01  7.603600040E+01  9.536743164E-07  0.00000E+00  9.000E+00
#rwgt            1           1   3.7960126943496882E-002           3      367055           0
</event>
<event>
      5   9999  3.79277E-02  1.85612E+02 -1.00000E+00  1.12841E-01
      21    -1     0     0   502   501  0.000000000E+00  0.000000000E+00  3.262721673E+02  3.262721673E+02  0.000000000E+00  0.00000E+00  9.000E+00
       2    -1     0     0   501     0  0.000000000E+00  0.000000000E+00 -7.497341086E+02  7.497341086E+02  0.000000000E+00  0.00000E+00  9.000E+00
      25     1     1     2     0     0  9.706777298E+01  2.391181886E+02  2.180930892E+01  2.875766100E+02  1.250000000E+02  0.00000E+00  9.000E+00
      25     1     1     2     0     0  8.635571555E+01 -2.107000573E+02  4.551235497E+01  2.637199238E+02  1.250000000E+02  0.00000E+00  9.000E+00
       2     1     1     2   502     0 -1.834234885E+02 -2.841813126E+01 -4.907836052E+02  5.247097421E+02  5.394796609E-06  0.00000E+00  9.000E+00
#rwgt            2          13   6.1424436028452119E-004           3      367141           0
</event>
<event>
      5   9999  3.79277E-02  7.10317E+01 -1.00000E+00  1.30900E-01
      21    -1     0     0   511   501  0.000000000E+00  0.000000000E+00  6.797679070E+02  6.797679070E+02  0.000000000E+00  0.00000E+00  9.000E+00
      21    -1     0     0   501   502  0.000000000E+00  0.000000000E+00 -1.593581609E+02  1.593581609E+02  0.000000000E+00  0.00000E+00  9.000E+00
      25     1     1     2     0     0  9.248591452E+01  1.839233281E+02  2.231744143E+02  3.283492869E+02  1.250000000E+02  0.00000E+00  9.000E+00
      25     1     1     2     0     0 -1.051550349E+02 -1.140305380E+02 -6.030323154E+00  1.993035618E+02  1.250000000E+02  0.00000E+00  9.000E+00
      21     1     1     2   511   502  1.266912040E+01 -6.989279018E+01  3.032656550E+02  3.114732191E+02  3.814697266E-06  0.00000E+00  9.000E+00
#rwgt            1           1   2.8391716079295786E-002           3      367160           0
</event>
<event>
      5   9999  3.79277E-02  1.47095E+02 -1.00000E+00  1.16731E-01
      21    -1     0     0   502   512  0.000000000E+00  0.000000000E+00  3.798916231E+02  3.798916231E+02  0.000000000E+00  0.00000E+00  9.000E+00
      21    -1     0     0   501   502  0.000000000E+00  0.000000000E+00 -3.265144876E+02  3.265144876E+02  0.000000000E+00  0.00000E+00  9.000E+00
      25     1     1     2     0     0 -2.120140508E+02  9.054919229E+00 -2.349458543E+00  2.462975218E+02  1.250000000E+02  0.00000E+00  9.000E+00
      25     1     1     2     0     0  1.716478049E+02  1.323931833E+02 -7.717951382E+01  2.618637074E+02  1.250000000E+02  0.00000E+00  9.000E+00
      21     1     1     2   501   512  4.036624589E+01 -1.414481025E+02  1.329061078E+02  1.982448814E+02  4.264961200E-06  0.00000E+00  9.000E+00
#rwgt            1           1   3.3372602209898961E-002           3      367313           0
</event>
<event>
      5   9999  3.79277E-02  6.72238E+00 -1.00000E+00  2.18068E-01
      21    -1     0     0   502   501  0.000000000E+00  0.000000000E+00  8.783249101E+01  8.783249101E+01  0.000000000E+00  0.00000E+00  9.000E+00
      21    -1     0     0   501   511  0.000000000E+00  0.000000000E+00 -3.752529728E+02  3.752529728E+02  0.000000000E+00  0.00000E+00  9.000E+00
      25     1     1     2     0     0  5.106053816E+01 -4.230812809E+01 -2.693948731E+02  3.042955043E+02  1.250000000E+02  0.00000E+00  9.000E+00
      25     1     1     2     0     0 -5.370267970E+01  3.612674575E+01 -1.305084788E+00  1.407686855E+02  1.250000000E+02  0.00000E+00  9.000E+00
      21     1     1     2   502   511  2.642141543E+00  6.181382347E+00 -1.672052394E+01  1.802127411E+01  2.384185791E-07  0.00000E+00  9.000E+00
#rwgt            1           1   3.7455715498321863E-002           3      367370           0
</event>
<event>
      5   9999  3.79277E-02  5.44713E+01 -1.00000E+00  1.36986E-01
      21    -1     0     0   502   501  0.000000000E+00  0.000000000E+00  5.449393761E+02  5.449393761E+02  0.000000000E+00  0.00000E+00  9.000E+00
       1    -1     0     0   501     0  0.000000000E+00  0.000000000E+00 -2.760305797E+02  2.760305797E+02  0.000000000E+00  0.00000E+00  9.000E+00
      25     1     1     2     0     0  1.625793976E+02  3.656956630E+01  1.949169565E+02  2.852840929E+02  1.250000000E+02  0.00000E+00  9.000E+00
      25     1     1     2     0     0 -1.314051851E+02 -8.123822860E+01  2.683031068E+02  3.338840062E+02  1.250000000E+02  0.00000E+00  9.000E+00
       1     1     1     2   502     0 -3.117421256E+01  4.466866230E+01 -1.943112670E+02  2.018018567E+02  4.672030912E-06  0.00000E+00  9.000E+00
#rwgt            1           1   2.8345882065095682E-002           3      367659           0
</event>
<event>
      5   9999  3.79277E-02  2.81270E+01 -1.00000E+00  1.55010E-01
      21    -1     0     0   511   501  0.000000000E+00  0.000000000E+00  1.068137690E+03  1.068137690E+03  0.000000000E+00  0.00000E+00  9.000E+00
      21    -1     0     0   501   502  0.000000000E+00  0.000000000E+00 -1.194406731E+02  1.194406731E+02  0.000000000E+00  0.00000E+00  9.000E+00
      25     1     1     2     0     0 -1.644067915E+02 -1.757185367E+01  2.281424180E+02  3.082406950E+02  1.250000000E+02  0.00000E+00  9.000E+00
      25     1     1     2     0     0  1.921641450E+02  1.302680858E+01  8.759465211E+01  2.457530863E+02  1.250000000E+02  0.00000E+00  9.000E+00
      21     1     1     2   511   502 -2.775735348E+01  4.545045091E+00  6.329599467E+02  6.335845817E+02  1.078959322E-05  0.00000E+00  9.000E+00
#rwgt            1           1   1.9188670038497290E-002           3      367796           0
</event>
<event>
      5   9999  3.79277E-02  4.97878E+01 -1.00000E+00  1.39181E-01
      21    -1     0     0   502   501  0.000000000E+00  0.000000000E+00  1.301368315E+03  1.301368315E+03  0.000000000E+00  0.00000E+00  9.000E+00
      21    -1     0     0   512   502  0.000000000E+00  0.000000000E+00 -1.016475932E+02  1.016475932E+02  0.000000000E+00  0.00000E+00  9.000E+00
      25     1     1     2     0     0 -2.655409515E+02  1.292734745E+02  4.546376424E+02  5.563667981E+02  1.250000000E+02  0.00000E+00  9.000E+00
      25     1     1     2     0     0  2.594041698E+02 -1.786816402E+02  7.068071660E+02  7.838488513E+02  1.250000000E+02  0.00000E+00  9.000E+00
      21     1     1     2   512   501  6.136781699E+00  4.940816570E+01  3.827591298E+01  6.280025829E+01  6.743495762E-07  0.00000E+00  9.000E+00
#rwgt            1           1   3.1309735082625939E-002           3      368093           0
</event>
<event>
      5   9999  3.79277E-02  9.06398E+01 -1.00000E+00  1.25779E-01
      21    -1     0     0   502   501  0.000000000E+00  0.000000000E+00  6.513982551E+01  6.513982551E+01  0.000000000E+00  0.00000E+00  9.000E+00
      21    -1     0     0   511   502  0.000000000E+00  0.000000000E+00 -9.293577592E+02  9.293577592E+02  0.000000000E+00  0.00000E+00  9.000E+00
      25     1     1     2     0     0  1.021323346E+02  8.688954380E+01 -2.156589634E+02  2.830452174E+02  1.250000000E+02  0.00000E+00  9.000E+00
      25     1     1     2     0     0 -2.254844872E+01 -1.302713049E+02 -2.961668315E+02  3.475900423E+02  1.250000000E+02  0.00000E+00  9.000E+00
      21     1     1     2   511   501 -7.958388591E+01  4.338176112E+01 -3.523921387E+02  3.638623250E+02  5.394796609E-06  0.00000E+00  9.000E+00
#rwgt            1           1   4.0148468857972942E-002           3      368262           0
</event>
<event>
      5   9999  3.79277E-02  8.93214E+00 -1.00000E+00  2.01603E-01
      21    -1     0     0   502   501  0.000000000E+00  0.000000000E+00  2.355131684E+03  2.355131684E+03  0.000000000E+00  0.00000E+00  9.000E+00
      21    -1     0     0   512   502  0.000000000E+00  0.000000000E+00 -1.554368278E+01  1.554368278E+01  0.000000000E+00  0.00000E+00  9.000E+00
      25     1     1     2     0     0 -1.481288986E+01  1.257699945E+02  1.152823568E+03  1.166475328E+03  1.250000000E+02  0.00000E+00  9.000E+00
      25     1     1     2     0     0  2.345237788E+01 -1.235023235E+02  1.179326439E+03  1.192576492E+03  1.250000000E+02  0.00000E+00  9.000E+00
      21     1     1     2   512   501 -8.639488015E+00 -2.267671029E+00  7.437994279E+00  1.162354696E+01  6.690604782E-07  0.00000E+00  9.000E+00
#rwgt            1           1   7.4920757182148731E-002           3      368306           0
</event>
<event>
      5   9999  3.79277E-02  4.19480E+01 -1.00000E+00  1.43571E-01
      21    -1     0     0   511   501  0.000000000E+00  0.000000000E+00  7.575782028E+01  7.575782028E+01  0.000000000E+00  0.00000E+00  9.000E+00
      21    -1     0     0   501   502  0.000000000E+00  0.000000000E+00 -7.998366646E+02  7.998366646E+02  0.000000000E+00  0.00000E+00  9.000E+00
      25     1     1     2     0     0 -9.337374151E+01 -4.695509880E+01 -6.795312562E+01  1.765391293E+02  1.250000000E+02  0.00000E+00  9.000E+00
      25     1     1     2     0     0  1.090493178E+02  8.586413471E+01 -6.035681029E+02  6.318099858E+02  1.250000000E+02  0.00000E+00  9.000E+00
      21     1     1     2   511   502 -1.567557634E+01 -3.890903591E+01 -5.255761579E+01  6.724536970E+01  6.743495762E-07  0.00000E+00  9.000E+00
#rwgt            1           1   2.8021625256042307E-002           3      368559           0
</event>
<event>
      5   9999  3.79277E-02  6.34066E+01 -1.00000E+00  1.33434E-01
      21    -1     0     0   502   501  0.000000000E+00  0.000000000E+00  3.740371856E+02  3.740371856E+02  0.000000000E+00  0.00000E+00  9.000E+00
      21    -1     0     0   501   512  0.000000000E+00  0.000000000E+00 -3.117164869E+02  3.117164869E+02  0.000000000E+00  0.00000E+00  9.000E+00
      25     1     1     2     0     0  6.093010392E+01  1.447502898E+02 -1.235586005E+02  2.357050099E+02  1.250000000E+02  0.00000E+00  9.000E+00
      25     1     1     2     0     0 -4.093241983E+01 -2.049208100E+02  2.574956501E+02  3.543966862E+02  1.250000000E+02  0.00000E+00  9.000E+00
      21     1     1     2   502   512 -1.999768408E+01  6.017052027E+01 -7.161635093E+01  9.565197645E+01  1.651812370E-06  0.00000E+00  9.000E+00
#rwgt            1           1   2.8318958842528760E-002           3      368703           0
</event>
<event>
      5   9999  3.79277E-02  2.57385E+01 -1.00000E+00  1.57810E-01
       2    -1     0     0   502     0  0.000000000E+00  0.000000000E+00  2.002455632E+03  2.002455632E+03  0.000000000E+00  0.00000E+00  9.000E+00
      21    -1     0     0   501   502  0.000000000E+00  0.000000000E+00 -6.416701476E+01  6.416701476E+01  0.000000000E+00  0.00000E+00  9.000E+00
      25     1     1     2     0     0 -1.093970900E+02 -2.399044456E+01  6.197777352E+02  6.421002303E+02  1.250000000E+02  0.00000E+00  9.000E+00
      25     1     1     2     0     0  1.349751298E+02  2.112077919E+01  1.092748178E+02  2.150124619E+02  1.250000000E+02  0.00000E+00  9.000E+00
       2     1     1     2   501     0 -2.557803982E+01  2.869665374E+00  1.209236065E+03  1.209509955E+03  0.000000000E+00  0.00000E+00  9.000E+00
#rwgt            1           1   4.1757319453614168E-002           3      368813           0
</event>
<event>
      5   9999  3.79277E-02  1.05695E+02 -1.00000E+00  1.22756E-01
      21    -1     0     0   502   501  0.000000000E+00  0.000000000E+00  1.255013932E+02  1.255013932E+02  0.000000000E+00  0.00000E+00  9.000E+00
       1    -1     0     0   501     0  0.000000000E+00  0.000000000E+00 -1.841664868E+03  1.841664868E+03  0.000000000E+00  0.00000E+00  9.000E+00
      25     1     1     2     0     0  2.900952039E+01 -1.344043831E+02 -9.596171814E+00  1.860730421E+02  1.250000000E+02  0.00000E+00  9.000E+00
      25     1     1     2     0     0 -8.564283348E+01  4.516234405E+01 -1.406623112E+02  2.116251829E+02  1.250000000E+02  0.00000E+00  9.000E+00
       1     1     1     2   502     0  5.663331309E+01  8.924203906E+01 -1.565904992E+03  1.569468036E+03  0.000000000E+00  0.00000E+00  9.000E+00
#rwgt            1           1   3.8945847755048932E-002           3      369180           0
</event>
<event>
      5   9999  3.79277E-02  7.84920E+01 -1.00000E+00  1.28751E-01
      21    -1     0     0   502   501  0.000000000E+00  0.000000000E+00  2.248175877E+02  2.248175877E+02  0.000000000E+00  0.00000E+00  9.000E+00
      21    -1     0     0   501   511  0.000000000E+00  0.000000000E+00 -3.797655113E+02  3.797655113E+02  0.000000000E+00  0.00000E+00  9.000E+00
      25     1     1     2     0     0 -1.114234744E+02  7.140205717E+01  1.155238980E+02  2.156019838E+02  1.250000000E+02  0.00000E+00  9.000E+00
      25     1     1     2     0     0  7.221906351E+01 -1.394021011E+02 -1.851373402E+02  2.730373118E+02  1.250000000E+02  0.00000E+00  9.000E+00
      21     1     1     2   502   511  3.920441089E+01  6.800004388E+01 -8.533448148E+01  1.159438033E+02  1.907348633E-06  0.00000E+00  9.000E+00
#rwgt            1           1   4.1016700666307006E-002           3      369315           0
</event>
<event>
      5   9999  3.79277E-02  8.92145E+01 -1.00000E+00  1.26099E-01
      21    -1     0     0   502   512  0.000000000E+00  0.000000000E+00  3.564973519E+02  3.564973519E+02  0.000000000E+00  0.00000E+00  9.000E+00
      21    -1     0     0   501   502  0.000000000E+00  0.000000000E+00 -3.501340407E+02  3.501340407E+02  0.000000000E+00  0.00000E+00  9.000E+00
      25     1     1     2     0     0  1.623265427E+02 -1.514850654E+02  3.729738744E+01  2.575145173E+02  1.250000000E+02  0.00000E+00  9.000E+00
      25     1     1     2     0     0 -1.042838635E+02  2.192366435E+02 -1.410927725E+02  3.073629784E+02  1.250000000E+02  0.00000E+00  9.000E+00
      21     1     1     2   501   512 -5.804267921E+01 -6.775157806E+01  1.101586962E+02  1.417538969E+02  1.348699152E-06  0.00000E+00  9.000E+00
#rwgt            1           1   4.2388746977122922E-002           3      369548           0
</event>
<event>
      5   9999  3.79277E-02  2.73822E+02 -1.00000E+00  1.06897E-01
      21    -1     0     0   502   511  0.000000000E+00  0.000000000E+00  1.294893372E+03  1.294893372E+03  0.000000000E+00  0.00000E+00  9.000E+00
      21    -1     0     0   501   502  0.000000000E+00  0.000000000E+00 -1.724515897E+02  1.724515897E+02  0.000000000E+00  0.00000E+00  9.000E+00
      25     1     1     2     0     0  1.747533381E+02  9.978558463E+01  3.086438827E+02  3.890783191E+02  1.250000000E+02  0.00000E+00  9.000E+00
      25     1     1     2     0     0  8.964759513E+01 -1.709955724E+02  1.123443652E+01  2.302767675E+02  1.250000000E+02  0.00000E+00  9.000E+00
      21     1     1     2   501   511 -2.644009333E+02  7.120998775E+01  8.025634632E+02  8.479898751E+02  1.078959322E-05  0.00000E+00  9.000E+00
#rwgt            1           1   3.1547266202576703E-002           3      369673           0
</event>
<event>
      5   9999  3.79277E-02  4.71615E+01 -1.00000E+00  1.40539E-01
      21    -1     0     0   502   512  0.000000000E+00  0.000000000E+00  4.016870288E+01  4.016870288E+01  0.000000000E+00  0.00000E+00  9.000E+00
      21    -1     0     0   501   502  0.000000000E+00  0.000000000E+00 -1.489923568E+03  1.489923568E+03  0.000000000E+00  0.00000E+00  9.000E+00
      25     1     1     2     0     0  1.786115682E+02 -1.319863643E+00 -6.375604228E+02  6.738042201E+02  1.250000000E+02  0.00000E+00  9.000E+00
      25     1     1     2     0     0 -1.526377146E+02 -3.804466884E+01 -7.592427469E+02  7.853790279E+02  1.250000000E+02  0.00000E+00  9.000E+00
      21     1     1     2   501   512 -2.597385360E+01  3.936453248E+01 -5.295169579E+01  7.090902323E+01  9.536743164E-07  0.00000E+00  9.000E+00
#rwgt            1           1   5.4752980650447605E-002           3      369786           0
</event>
<event>
      5   9999  3.79277E-02  4.60835E+01 -1.00000E+00  1.41127E-01
      21    -1     0     0   502   511  0.000000000E+00  0.000000000E+00  3.256596718E+02  3.256596718E+02  0.000000000E+00  0.00000E+00  9.000E+00
      21    -1     0     0   501   502  0.000000000E+00  0.000000000E+00 -6.977283837E+02  6.977283837E+02  0.000000000E+00  0.00000E+00  9.000E+00
      25     1     1     2     0     0  5.636605937E+00 -1.446879605E+02 -3.612130859E+02  4.087374104E+02  1.250000000E+02  0.00000E+00  9.000E+00
      25     1     1     2     0     0  3.466077637E+01  1.223314897E+02 -2.852621973E+02  3.364013734E+02  1.250000000E+02  0.00000E+00  9.000E+00
      21     1     1     2   501   511 -4.029738231E+01  2.235647075E+01  2.744065714E+02  2.782492717E+02  3.814697266E-06  0.00000E+00  9.000E+00
#rwgt            1           1   3.9332502701137563E-002           3      369845           0
</event>
<event>
      5   9999  3.79277E-02  9.55642E+01 -1.00000E+00  1.24721E-01
      21    -1     0     0   512   501  0.000000000E+00  0.000000000E+00  2.655911616E+03  2.655911616E+03  0.000000000E+00  0.00000E+00  9.000E+00
      21    -1     0     0   501   502  0.000000000E+00  0.000000000E+00 -4.577116353E+01  4.577116353E+01  0.000000000E+00  0.00000E+00  9.000E+00
      25     1     1     2     0     0 -4.576248439E+00  1.837249182E+02  4.266563036E+02  4.810783606E+02  1.250000000E+02  0.00000E+00  9.000E+00
      25     1     1     2     0     0  9.947484880E+01 -1.724656376E+02  8.000434223E+02  8.338669674E+02  1.250000000E+02  0.00000E+00  9.000E+00
      21     1     1     2   512   502 -9.489860036E+01 -1.125928055E+01  1.383440726E+03  1.386737452E+03  2.642899792E-05  0.00000E+00  9.000E+00
#rwgt            1           1   3.0484488329529318E-002           3      369958           0
</event>
<event>
      5   9999  3.79277E-02  4.14544E+01 -1.00000E+00  1.43885E-01
      21    -1     0     0   502   501  0.000000000E+00  0.000000000E+00  1.574907225E+02  1.574907225E+02  0.000000000E+00  0.00000E+00  9.000E+00
      21    -1     0     0   511   502  0.000000000E+00  0.000000000E+00 -3.345186613E+02  3.345186613E+02  0.000000000E+00  0.00000E+00  9.000E+00
      25     1     1     2     0     0  9.962527186E+01 -8.251907854E+01 -4.835847456E+01  1.862743546E+02  1.250000000E+02  0.00000E+00  9.000E+00
      25     1     1     2     0     0 -1.000911570E+02  1.239709061E+02 -3.801410229E+01  2.060512005E+02  1.250000000E+02  0.00000E+00  9.000E+00
      21     1     1     2   511   501  4.658851339E-01 -4.145182754E+01 -9.065536190E+01  9.968382866E+01  1.907348633E-06  0.00000E+00  9.000E+00
#rwgt            1           1   3.1446790108712382E-002           3      370051           0
</event>
<event>
      5   9999  3.79277E-02  1.64377E+01 -1.00000E+00  1.73719E-01
      21    -1     0     0   502   501  0.000000000E+00  0.000000000E+00  8.780569974E+02  8.780569974E+02  0.000000000E+00  0.00000E+00  9.000E+00
      21    -1     0     0   512   502  0.000000000E+00  0.000000000E+00 -9.276165763E+01  9.276165763E+01  0.000000000E+00  0.00000E+00  9.000E+00
      25     1     1     2     0     0  5.504577625E+01 -1.329253203E+01  7.963819011E+02  8.081187174E+02  1.250000000E+02  0.00000E+00  9.000E+00
      25     1     1     2     0     0 -7.094099168E+01  1.748052122E+01 -1.567795007E+01  1.456330699E+02  1.250000000E+02  0.00000E+00  9.000E+00
      21     1     1     2   512   501  1.589521543E+01 -4.187989185E+00  4.591388733E+00  1.706686783E+01  1.332800375E-07  0.00000E+00  9.000E+00
#rwgt            1           1   3.6365677545788108E-002           3      370249           0
</event>
<event>
      5   9999  3.79277E-02  6.68460E+00 -1.00000E+00  2.18423E-01
      21    -1     0     0   511   501  0.000000000E+00  0.000000000E+00  9.058967559E+02  9.058967559E+02  0.000000000E+00  0.00000E+00  9.000E+00
      21    -1     0     0   501   502  0.000000000E+00  0.000000000E+00 -1.124984543E+02  1.124984543E+02  0.000000000E+00  0.00000E+00  9.000E+00
      25     1     1     2     0     0 -8.082342588E+01 -1.048027692E+02  4.578784202E+01  1.877167363E+02  1.250000000E+02  0.00000E+00  9.000E+00
      25     1     1     2     0     0  8.723879610E+01  1.029247798E+02  1.622016743E+02  2.452315253E+02  1.250000000E+02  0.00000E+00  9.000E+00
      21     1     1     2   511   502 -6.415370221E+00  1.877989423E+00  5.854087853E+02  5.854469486E+02  0.000000000E+00  0.00000E+00  9.000E+00
#rwgt            1           1   3.8212592065816391E-002           3      370538           0
</event>
<event>
      5   9999  3.79277E-02  4.05018E+01 -1.00000E+00  1.44505E-01
      21    -1     0     0   502   501  0.000000000E+00  0.000000000E+00  1.046937462E+02  1.046937462E+02  0.000000000E+00  0.00000E+00  9.000E+00
      21    -1     0     0   512   502  0.000000000E+00  0.000000000E+00 -1.393862678E+03  1.393862678E+03  0.000000000E+00  0.00000E+00  9.000E+00
      25     1     1     2     0     0 -1.929246489E+02  8.461573923E+01 -8.693077129E+01  2.599263405E+02  1.250000000E+02  0.00000E+00  9.000E+00
      25     1     1     2     0     0  1.530674181E+02 -7.741885269E+01 -6.266382625E+02  6.616070021E+02  1.250000000E+02  0.00000E+00  9.000E+00
      21     1     1     2   512   501  3.985723088E+01 -7.196886539E+00 -5.755998982E+02  5.770230818E+02  0.000000000E+00  0.00000E+00  9.000E+00
#rwgt            1           1   2.8282543226622242E-002           3      370914           0
</event>
<event>
      5   9999  3.79277E-02  1.08807E+02 -1.00000E+00  1.22201E-01
      21    -1     0     0   502   501  0.000000000E+00  0.000000000E+00  4.811699766E+02  4.811699766E+02  0.000000000E+00  0.00000E+00  9.000E+00
      21    -1     0     0   511   502  0.000000000E+00  0.000000000E+00 -1.893813910E+02  1.893813910E+02  0.000000000E+00  0.00000E+00  9.000E+00
      25     1     1     2     0     0  3.734711574E+01  3.540122241E+01 -7.700748721E+01  1.555737982E+02  1.250000000E+02  0.00000E+00  9.000E+00
      25     1     1     2     0     0 -7.846526934E+01 -1.361396355E+02  3.514977606E+02  4.048042422E+02  1.250000000E+02  0.00000E+00  9.000E+00
      21     1     1     2   511   501  4.111815361E+01  1.007384130E+02  1.729831216E+01  1.101733272E+02  9.830249847E-07  0.00000E+00  9.000E+00
#rwgt            1           1   4.4897302650419219E-002           3      371036           0
</event>
<event>
      5   9999  3.79277E-02  5.72377E+01 -1.00000E+00  1.35806E-01
      21    -1     0     0   502   512  0.000000000E+00  0.000000000E+00  1.579945690E+02  1.579945690E+02  0.000000000E+00  0.00000E+00  9.000E+00
      21    -1     0     0   501   502  0.000000000E+00  0.000000000E+00 -6.064888015E+02  6.064888015E+02  0.000000000E+00  0.00000E+00  9.000E+00
      25     1     1     2     0     0 -1.403215805E+01 -1.742249046E+01 -5.377969930E+02  5.525857854E+02  1.250000000E+02  0.00000E+00  9.000E+00
      25     1     1     2     0     0  3.083381080E+01 -3.729364677E+01  5.311380782E+01  1.441791128E+02  1.250000000E+02  0.00000E+00  9.000E+00
      21     1     1     2   501   512 -1.680165275E+01  5.471613723E+01  3.618895259E+01  6.771847236E+01  1.784161275E-06  0.00000E+00  9.000E+00
#rwgt            1           1   3.6422268775200946E-002           3      371189           0
</event>
<event>
      5   9999  3.79277E-02  1.24768E+02 -1.00000E+00  1.19654E-01
      21    -1     0     0   502   511  0.000000000E+00  0.000000000E+00  1.481401976E+03  1.481401976E+03  0.000000000E+00  0.00000E+00  9.000E+00
      21    -1     0     0   501   502  0.000000000E+00  0.000000000E+00 -1.150855366E+02  1.150855366E+02  0.000000000E+00  0.00000E+00  9.000E+00
      25     1     1     2     0     0 -1.560420881E+02 -2.905839063E+01  8.315437005E+02  8.557356187E+02  1.250000000E+02  0.00000E+00  9.000E+00
      25     1     1     2     0     0  3.411164948E+01  2.602584881E+00 -5.290202940E+01  1.399785798E+02  1.250000000E+02  0.00000E+00  9.000E+00
      21     1     1     2   501   511  1.219304387E+02  2.645580575E+01  5.876747681E+02  6.007733138E+02  1.078959322E-05  0.00000E+00  9.000E+00
#rwgt            1           1   3.9702422792515561E-002           3      371313           0
</event>
<event>
      5   9999  3.79277E-02  7.82509E+01 -1.00000E+00  1.28816E-01
      21    -1     0     0   502   512  0.000000000E+00  0.000000000E+00  8.752876920E+01  8.752876920E+01  0.000000000E+00  0.00000E+00  9.000E+00
      21    -1     0     0   501   502  0.000000000E+00  0.000000000E+00 -1.254344749E+03  1.254344749E+03  0.000000000E+00  0.00000E+00  9.000E+00
      25     1     1     2     0     0  2.001330522E+02 -1.184508423E+02 -3.310342411E+02  4.234294621E+02  1.250000000E+02  0.00000E+00  9.000E+00
      25     1     1     2     0     0 -1.650326315E+02  4.851402495E+01 -8.078368191E+02  8.353530430E+02  1.250000000E+02  0.00000E+00  9.000E+00
      21     1     1     2   501   512 -3.510042074E+01  6.993681735E+01 -2.794491991E+01  8.309101339E+01  1.118282261E-06  0.00000E+00  9.000E+00
#rwgt            1           1   4.1586037141760387E-002           3      371417           0
</event>
<event>
      5   9999  3.79277E-02  5.48138E+00 -1.00000E+00  2.31747E-01
      -2    -1     0     0     0   501  0.000000000E+00  0.000000000E+00  8.366044766E+02  8.366044766E+02  0.000000000E+00  0.00000E+00  9.000E+00
      21    -1     0     0   501   502  0.000000000E+00  0.000000000E+00 -1.157792686E+03  1.157792686E+03  0.000000000E+00  0.00000E+00  9.000E+00
      25     1     1     2     0     0  8.323988791E+01  1.251162729E+02 -6.026490865E+02  6.335565343E+02  1.250000000E+02  0.00000E+00  9.000E+00
      25     1     1     2     0     0 -7.799619401E+01 -1.267129061E+02 -5.221865842E+02  5.571744750E+02  1.250000000E+02  0.00000E+00  9.000E+00
      -2     1     1     2     0   502 -5.243693900E+00  1.596633235E+00  8.036474608E+02  8.036661538E+02  1.078959322E-05  0.00000E+00  9.000E+00
#rwgt            1           1   3.7723330770548194E-002           3      371519           0
</event>
<event>
      5   9999  3.79277E-02  8.62214E+01 -1.00000E+00  1.26795E-01
      21    -1     0     0   502   501  0.000000000E+00  0.000000000E+00  1.048649376E+03  1.048649376E+03  0.000000000E+00  0.00000E+00  9.000E+00
      21    -1     0     0   501   511  0.000000000E+00  0.000000000E+00 -3.673048886E+02  3.673048886E+02  0.000000000E+00  0.00000E+00  9.000E+00
      25     1     1     2     0     0 -5.281517548E+00 -1.068565429E+02  5.488323440E+01  1.734456244E+02  1.250000000E+02  0.00000E+00  9.000E+00
      25     1     1     2     0     0 -7.565993584E+01  1.365654110E+02  9.174594951E+02  9.390055711E+02  1.250000000E+02  0.00000E+00  9.000E+00
      21     1     1     2   502   511  8.094145339E+01 -2.970886812E+01 -2.909982424E+02  3.035030689E+02  3.814697266E-06  0.00000E+00  9.000E+00
#rwgt            1           1   3.8410879976090231E-002           3      371921           0
</event>
<event>
      5   9999  3.79277E-02  9.25968E+00 -1.00000E+00  1.99700E-01
      21    -1     0     0   502   501  0.000000000E+00  0.000000000E+00  1.573633056E+02  1.573633056E+02  0.000000000E+00  0.00000E+00  9.000E+00
      21    -1     0     0   512   502  0.000000000E+00  0.000000000E+00 -1.852281384E+02  1.852281384E+02  0.000000000E+00  0.00000E+00  9.000E+00
      25     1     1     2     0     0 -1.971613500E+01  1.815811993E+01  9.437376658E+01  1.589020173E+02  1.250000000E+02  0.00000E+00  9.000E+00
      25     1     1     2     0     0  2.459970828E+01 -1.029095204E+01 -1.128482936E+02  1.705015739E+02  1.250000000E+02  0.00000E+00  9.000E+00
      21     1     1     2   512   501 -4.883573281E+00 -7.867167894E+00 -9.390305809E+00  1.318785281E+01  1.192092896E-07  0.00000E+00  9.000E+00
#rwgt            1           1   3.8120319678265693E-002           3      372185           0
</event>
<event>
      5   9999  3.79277E-02  7.13859E+01 -1.00000E+00  1.30791E-01
      21    -1     0     0   502   501  0.000000000E+00  0.000000000E+00  8.922226703E+01  8.922226703E+01  0.000000000E+00  0.00000E+00  9.000E+00
      21    -1     0     0   511   502  0.000000000E+00  0.000000000E+00 -2.786057528E+03  2.786057528E+03  0.000000000E+00  0.00000E+00  9.000E+00
      25     1     1     2     0     0 -1.526252733E+02  5.436901398E+01 -1.892813292E+02  2.787523728E+02  1.250000000E+02  0.00000E+00  9.000E+00
      25     1     1     2     0     0  9.592388494E+01 -9.773832157E+01 -1.516296214E+02  2.395218430E+02  1.250000000E+02  0.00000E+00  9.000E+00
      21     1     1     2   511   501  5.670138841E+01  4.336930759E+01 -2.355924310E+03  2.357005579E+03  0.000000000E+00  0.00000E+00  9.000E+00
#rwgt            1           1   3.2179873907916469E-002           3      372409           0
</event>
<event>
      5   9999  3.79277E-02  1.60424E+02 -1.00000E+00  1.15249E-01
      21    -1     0     0   502   501  0.000000000E+00  0.000000000E+00  1.010894714E+02  1.010894714E+02  0.000000000E+00  0.00000E+00  9.000E+00
       1    -1     0     0   501     0  0.000000000E+00  0.000000000E+00 -3.598972970E+03  3.598972970E+03  0.000000000E+00  0.00000E+00  9.000E+00
      25     1     1     2     0     0 -1.369131726E+02  1.097034631E+01 -3.086059767E+02  3.601780312E+02  1.250000000E+02  0.00000E+00  9.000E+00
      25     1     1     2     0     0  9.989880216E+01 -1.670661546E+02 -1.095177558E+02  2.559492323E+02  1.250000000E+02  0.00000E+00  9.000E+00
       1     1     1     2   502     0  3.701437039E+01  1.560958083E+02 -3.079759766E+03  3.083935177E+03  0.000000000E+00  0.00000E+00  9.000E+00
#rwgt            1           1   3.8545860377569068E-002           3      372512           0
</event>
<event>
      5   9999  3.79277E-02  8.31184E+01 -1.00000E+00  1.27551E-01
      21    -1     0     0   502   501  0.000000000E+00  0.000000000E+00  1.078819133E+03  1.078819133E+03  0.000000000E+00  0.00000E+00  9.000E+00
      21    -1     0     0   511   502  0.000000000E+00  0.000000000E+00 -7.699368801E+01  7.699368801E+01  0.000000000E+00  0.00000E+00  9.000E+00
      25     1     1     2     0     0 -6.947883736E+00  1.353745470E+01  1.935613695E+01  1.274017104E+02  1.250000000E+02  0.00000E+00  9.000E+00
      25     1     1     2     0     0 -6.238457106E+01  3.230652910E+01  8.998979106E+02  9.112501282E+02  1.250000000E+02  0.00000E+00  9.000E+00
      21     1     1     2   511   501  6.933245480E+01 -4.584398380E+01  8.257139731E+01  1.171609824E+02  1.907348633E-06  0.00000E+00  9.000E+00
#rwgt            1           1   5.0529101145110042E-002           3      372585           0
</event>
<event>
      5   9999  3.79277E-02  2.81698E+01 -1.00000E+00  1.54963E-01
      21    -1     0     0   502   512  0.000000000E+00  0.000000000E+00  1.076981514E+02  1.076981514E+02  0.000000000E+00  0.00000E+00  9.000E+00
      21    -1     0     0   501   502  0.000000000E+00  0.000000000E+00 -7.532705684E+02  7.532705684E+02  0.000000000E+00  0.00000E+00  9.000E+00
      25     1     1     2     0     0 -4.378346899E+01  1.223861728E+02 -6.034105399E+02  6.297814281E+02  1.250000000E+02  0.00000E+00  9.000E+00
      25     1     1     2     0     0  7.151864032E+01 -1.273157133E+02 -1.624154379E+01  1.929066990E+02  1.250000000E+02  0.00000E+00  9.000E+00
      21     1     1     2   501   512 -2.773517134E+01  4.929540489E+00 -2.592033327E+01  3.828059268E+01  3.371747881E-07  0.00000E+00  9.000E+00
#rwgt            1           1   3.5049216718111946E-002           3      372673           0
</event>
<event>
      5   9999  3.79277E-02  3.10305E+01 -1.00000E+00  1.52028E-01
       5    -1     0     0   502     0  0.000000000E+00  0.000000000E+00  2.726461558E+02  2.726461558E+02  0.000000000E+00  0.00000E+00  9.000E+00
      21    -1     0     0   501   502  0.000000000E+00  0.000000000E+00 -1.971603392E+02  1.971603392E+02  0.000000000E+00  0.00000E+00  9.000E+00
      25     1     1     2     0     0  1.258410121E+02  6.074250074E+01 -4.722994494E+01  1.933423891E+02  1.250000000E+02  0.00000E+00  9.000E+00
      25     1     1     2     0     0 -9.498589095E+01 -6.403679525E+01  2.187588844E+01  1.709578460E+02  1.250000000E+02  0.00000E+00  9.000E+00
       5     1     1     2   501     0 -3.085512119E+01  3.294294511E+00  1.008398731E+02  1.055062599E+02  1.907348633E-06  0.00000E+00  9.000E+00
#rwgt            1           1   4.2721273483812515E-002           3      372793           0
</event>
<event>
      5   9999  3.79277E-02  2.20849E+01 -1.00000E+00  1.62892E-01
      21    -1     0     0   502   501  0.000000000E+00  0.000000000E+00  2.911814298E+02  2.911814298E+02  0.000000000E+00  0.00000E+00  9.000E+00
      21    -1     0     0   511   502  0.000000000E+00  0.000000000E+00 -2.010937995E+02  2.010937995E+02  0.000000000E+00  0.00000E+00  9.000E+00
      25     1     1     2     0     0 -1.077228003E+02  1.054521549E+02  1.414913117E+02  2.415970819E+02  1.250000000E+02  0.00000E+00  9.000E+00
      25     1     1     2     0     0  1.249664392E+02 -1.192507657E+02 -2.264541341E+01  2.144182147E+02  1.250000000E+02  0.00000E+00  9.000E+00
      21     1     1     2   511   501 -1.724363892E+01  1.379861081E+01 -2.875826801E+01  3.625993274E+01  3.371747881E-07  0.00000E+00  9.000E+00
#rwgt            1           1   2.6179065975353188E-002           3      373087           0
</event>
<event>
      5   9999  3.79277E-02  1.42898E+02 -1.00000E+00  1.17235E-01
      21    -1     0     0   502   501  0.000000000E+00  0.000000000E+00  7.347119581E+01  7.347119581E+01  0.000000000E+00  0.00000E+00  9.000E+00
       1    -1     0     0   501     0  0.000000000E+00  0.000000000E+00 -1.453960523E+03  1.453960523E+03  0.000000000E+00  0.00000E+00  9.000E+00
      25     1     1     2     0     0 -8.454898855E+01 -9.425209149E+01 -3.822108883E+02  4.215947715E+02  1.250000000E+02  0.00000E+00  9.000E+00
      25     1     1     2     0     0 -4.722827123E+01  1.495212024E+02 -1.629919789E+02  2.584153338E+02  1.250000000E+02  0.00000E+00  9.000E+00
       1     1     1     2   502     0  1.317772598E+02 -5.526911090E+01 -8.352864600E+02  8.474216135E+02  0.000000000E+00  0.00000E+00  9.000E+00
#rwgt            1           1   1.6514986245588715E-002           3      373257           0
</event>
<event>
      5   9999  3.79277E-02  5.24621E+01 -1.00000E+00  1.37895E-01
      21    -1     0     0   502   511  0.000000000E+00  0.000000000E+00  1.216362725E+03  1.216362725E+03  0.000000000E+00  0.00000E+00  9.000E+00
      21    -1     0     0   501   502  0.000000000E+00  0.000000000E+00 -6.726776328E+01  6.726776328E+01  0.000000000E+00  0.00000E+00  9.000E+00
      25     1     1     2     0     0 -1.105585140E+02  1.724906057E+02  6.756237065E+02  7.169857647E+02  1.250000000E+02  0.00000E+00  9.000E+00
      25     1     1     2     0     0  1.585578836E+02 -1.513168248E+02  3.412694419E+02  4.244139675E+02  1.250000000E+02  0.00000E+00  9.000E+00
      21     1     1     2   501   511 -4.799936956E+01 -2.117378099E+01  1.322018129E+02  1.422307555E+02  1.907348633E-06  0.00000E+00  9.000E+00
#rwgt            1           1   3.0896714252340470E-002           3      373342           0
</event>
<event>
      5   9999  3.79277E-02  3.66983E+01 -1.00000E+00  1.47199E-01
      21    -1     0     0   512   501  0.000000000E+00  0.000000000E+00  9.316461354E+02  9.316461354E+02  0.000000000E+00  0.00000E+00  9.000E+00
      21    -1     0     0   501   502  0.000000000E+00  0.000000000E+00 -8.801781239E+02  8.801781239E+02  0.000000000E+00  0.00000E+00  9.000E+00
      25     1     1     2     0     0  1.483678284E+02 -5.714341313E+01 -6.173513847E+02  6.496353703E+02  1.250000000E+02  0.00000E+00  9.000E+00
      25     1     1     2     0     0 -1.420086494E+02  9.328650405E+01 -2.011352827E+02  2.914605124E+02  1.250000000E+02  0.00000E+00  9.000E+00
      21     1     1     2   512   502 -6.359178992E+00 -3.614309092E+01  8.699546790E+02  8.707283765E+02  0.000000000E+00  0.00000E+00  9.000E+00
#rwgt            1           1   3.3110644806488232E-002           3      373463           0
</event>
<event>
      5   9999  3.79277E-02  1.35972E+01 -1.00000E+00  1.81497E-01
      21    -1     0     0   502   501  0.000000000E+00  0.000000000E+00  4.713040165E+02  4.713040165E+02  0.000000000E+00  0.00000E+00  9.000E+00
      21    -1     0     0   511   502  0.000000000E+00  0.000000000E+00 -1.032958335E+02  1.032958335E+02  0.000000000E+00  0.00000E+00  9.000E+00
      25     1     1     2     0     0  1.827678850E+01 -8.082833020E+01  3.804978891E+02  4.089876570E+02  1.250000000E+02  0.00000E+00  9.000E+00
      25     1     1     2     0     0 -5.407311651E+00  8.521684695E+01 -1.347519062E+01  1.519793762E+02  1.250000000E+02  0.00000E+00  9.000E+00
      21     1     1     2   511   501 -1.286947685E+01 -4.388516741E+00  9.854844217E-01  1.363281677E+01  1.353465179E-07  0.00000E+00  9.000E+00
#rwgt            1           1   4.2851192681357758E-002           3      373643           0
</event>
<event>
      5   9999  3.79277E-02  1.55441E+01 -1.00000E+00  1.75938E-01
      21    -1     0     0   512   501  0.000000000E+00  0.000000000E+00  1.526112348E+02  1.526112348E+02  0.000000000E+00  0.00000E+00  9.000E+00
      21    -1     0     0   501   502  0.000000000E+00  0.000000000E+00 -8.729344045E+02  8.729344045E+02  0.000000000E+00  0.00000E+00  9.000E+00
      25     1     1     2     0     0 -4.666727630E+01 -4.136276420E+01 -8.073034161E+02  8.193000174E+02  1.250000000E+02  0.00000E+00  9.000E+00
      25     1     1     2     0     0  3.246265224E+01  4.767520085E+01  2.197555741E+01  1.394082985E+02  1.250000000E+02  0.00000E+00  9.000E+00
      21     1     1     2   512   502  1.420462406E+01 -6.312436655E+00  6.500468900E+01  6.683732335E+01  1.907348633E-06  0.00000E+00  9.000E+00
#rwgt            1           1   5.8090086418745926E-002           3      373884           0
</event>
<event>
      5   9999  3.79277E-02  6.39755E+01 -1.00000E+00  1.33231E-01
      21    -1     0     0   502   501  0.000000000E+00  0.000000000E+00  6.160635005E+02  6.160635005E+02  0.000000000E+00  0.00000E+00  9.000E+00
      21    -1     0     0   501   511  0.000000000E+00  0.000000000E+00 -1.468939010E+03  1.468939010E+03  0.000000000E+00  0.00000E+00  9.000E+00
      25     1     1     2     0     0  3.301376489E+02  2.578235591E+01  1.371143565E+02  3.795799571E+02  1.250000000E+02  0.00000E+00  9.000E+00
      25     1     1     2     0     0 -3.010460570E+02  3.119612932E+01  2.818049725E+02  4.320196401E+02  1.250000000E+02  0.00000E+00  9.000E+00
      21     1     1     2   502   511 -2.909159190E+01 -5.697848524E+01 -1.271794838E+03  1.273402913E+03  0.000000000E+00  0.00000E+00  9.000E+00
#rwgt            1           1   4.5905168537750778E-002           3      374203           0
</event>
<event>
      5   9999  3.79277E-02  4.85784E+01 -1.00000E+00  1.39794E-01
      -1    -1     0     0     0   501  0.000000000E+00  0.000000000E+00  6.023776280E+01  6.023776280E+01  0.000000000E+00  0.00000E+00  9.000E+00
      21    -1     0     0   501   502  0.000000000E+00  0.000000000E+00 -1.172864245E+03  1.172864245E+03  0.000000000E+00  0.00000E+00  9.000E+00
      25     1     1     2     0     0 -1.381875906E+01  1.217324341E+02 -8.135104503E+02  8.321261901E+02  1.250000000E+02  0.00000E+00  9.000E+00
      25     1     1     2     0     0  2.758944595E+01 -1.683181492E+02 -2.745267319E+02  3.465286473E+02  1.250000000E+02  0.00000E+00  9.000E+00
      -1     1     1     2     0   502 -1.377068689E+01  4.658571502E+01 -2.458929963E+01  5.444716997E+01  4.768371582E-07  0.00000E+00  9.000E+00
#rwgt            1           1   3.6293394463853490E-002           3      374294           0
</event>
<event>
      5   9999  3.79277E-02  4.38877E+01 -1.00000E+00  1.42385E-01
      21    -1     0     0   511   501  0.000000000E+00  0.000000000E+00  1.277817699E+03  1.277817699E+03  0.000000000E+00  0.00000E+00  9.000E+00
      21    -1     0     0   501   502  0.000000000E+00  0.000000000E+00 -1.281136611E+02  1.281136611E+02  0.000000000E+00  0.00000E+00  9.000E+00
      25     1     1     2     0     0  4.613888288E+00  1.595449683E+02  2.095529822E+02  2.915704670E+02  1.250000000E+02  0.00000E+00  9.000E+00
      25     1     1     2     0     0 -4.848343949E+01 -1.582843622E+02  3.768835859E+01  2.108316760E+02  1.250000000E+02  0.00000E+00  9.000E+00
      21     1     1     2   511   502  4.386955120E+01 -1.260606073E+00  9.024626974E+02  9.035292175E+02  2.157918644E-05  0.00000E+00  9.000E+00
#rwgt            1           1   3.6719805987117424E-002           3      374582           0
</event>
<event>
      5   9999  3.79277E-02  2.89798E+01 -1.00000E+00  1.54091E-01
      21    -1     0     0   502   512  0.000000000E+00  0.000000000E+00  2.007862236E+02  2.007862236E+02  0.000000000E+00  0.00000E+00  9.000E+00
      21    -1     0     0   501   502  0.000000000E+00  0.000000000E+00 -3.633623089E+02  3.633623089E+02  0.000000000E+00  0.00000E+00  9.000E+00
      25     1     1     2     0     0  4.398660380E+01 -1.655501598E+02  7.442195633E+01  2.247338522E+02  1.250000000E+02  0.00000E+00  9.000E+00
      25     1     1     2     0     0 -6.877740597E+01  1.505419302E+02 -2.297923199E+02  3.095524424E+02  1.250000000E+02  0.00000E+00  9.000E+00
      21     1     1     2   501   512  2.479080216E+01  1.500822962E+01 -7.205721814E+00  2.986223795E+01  1.192092896E-07  0.00000E+00  9.000E+00
#rwgt            1           1   3.9218898113374444E-002           3      374682           0
</event>
<event>
      5   9999  3.79277E-02  5.02578E+01 -1.00000E+00  1.38948E-01
      21    -1     0     0   502   511  0.000000000E+00  0.000000000E+00  3.114805225E+02  3.114805225E+02  0.000000000E+00  0.00000E+00  9.000E+00
      21    -1     0     0   501   502  0.000000000E+00  0.000000000E+00 -4.892259113E+02  4.892259113E+02  0.000000000E+00  0.00000E+00  9.000E+00
      25     1     1     2     0     0  1.444607335E+02  1.435691835E+02 -3.734427691E+02  4.433570974E+02  1.250000000E+02  0.00000E+00  9.000E+00
      25     1     1     2     0     0 -1.821961308E+02 -1.103745301E+02  1.764064613E+02  3.035164024E+02  1.250000000E+02  0.00000E+00  9.000E+00
      21     1     1     2   501   511  3.773539724E+01 -3.319465342E+01  1.929091903E+01  5.383293395E+01  9.536743164E-07  0.00000E+00  9.000E+00
#rwgt            1           1   4.8458046339617776E-002           3      374859           0
</event>
<event>
      5   9999 -3.79277E-02  1.09418E+01 -1.00000E+00  1.91344E-01
      21    -1     0     0   502   501  0.000000000E+00  0.000000000E+00  8.532963117E+02  8.532963117E+02  0.000000000E+00  0.00000E+00  9.000E+00
      21    -1     0     0   501   512  0.000000000E+00  0.000000000E+00 -1.156151210E+02  1.156151210E+02  0.000000000E+00  0.00000E+00  9.000E+00
      25     1     1     2     0     0 -7.984071124E+01 -2.366453973E+02  5.781780072E+02  6.420984280E+02  1.250000000E+02  0.00000E+00  9.000E+00
      25     1     1     2     0     0  8.506604888E+01  2.270319236E+02  1.592745454E+02  3.158688143E+02  1.250000000E+02  0.00000E+00  9.000E+00
      21     1     1     2   502   512 -5.225337633E+00  9.613473661E+00  2.286381075E-01  1.094419045E+01  1.932488732E-07  0.00000E+00  9.000E+00
#rwgt            1           1 -0.33485651478865924                3      374968           0
</event>
<event>
      5   9999  3.79277E-02  1.99737E+01 -1.00000E+00  1.66416E-01
      21    -1     0     0   502   501  0.000000000E+00  0.000000000E+00  6.001258019E+02  6.001258019E+02  0.000000000E+00  0.00000E+00  9.000E+00
      21    -1     0     0   511   502  0.000000000E+00  0.000000000E+00 -1.115600425E+02  1.115600425E+02  0.000000000E+00  0.00000E+00  9.000E+00
      25     1     1     2     0     0 -2.015818368E+02 -3.177478392E+01  2.615856611E+02  3.545376311E+02  1.250000000E+02  0.00000E+00  9.000E+00
      25     1     1     2     0     0  2.185725285E+02  4.227542918E+01  2.155341639E+02  3.341274277E+02  1.250000000E+02  0.00000E+00  9.000E+00
      21     1     1     2   511   501 -1.699069169E+01 -1.050064526E+01  1.144593441E+01  2.302078560E+01  3.371747881E-07  0.00000E+00  9.000E+00
#rwgt            1           1   3.7234136789025964E-002           3      375290           0
</event>
<event>
      5   9999  3.79277E-02  1.25149E+02 -1.00000E+00  1.19599E-01
      21    -1     0     0   502   501  0.000000000E+00  0.000000000E+00  1.552028304E+03  1.552028304E+03  0.000000000E+00  0.00000E+00  9.000E+00
      -2    -1     0     0     0   502  0.000000000E+00  0.000000000E+00 -4.407279791E+01  4.407279791E+01  0.000000000E+00  0.00000E+00  9.000E+00
      25     1     1     2     0     0 -1.659188372E+02  1.243590375E+01  6.240665015E+02  6.578508270E+02  1.250000000E+02  0.00000E+00  9.000E+00
      25     1     1     2     0     0  6.493722740E+01 -8.636106727E+01  3.144013075E+02  3.551735626E+02  1.250000000E+02  0.00000E+00  9.000E+00
      -2     1     1     2     0   501  1.009816098E+02  7.392516352E+01  5.694876974E+02  5.830767126E+02  0.000000000E+00  0.00000E+00  9.000E+00
#rwgt            1           1   3.3790840984488986E-002           3      375537           0
</event>
<event>
      5   9999  3.79277E-02  5.53696E+01 -1.00000E+00  1.36594E-01
      21    -1     0     0   502   501  0.000000000E+00  0.000000000E+00  4.559315351E+02  4.559315351E+02  0.000000000E+00  0.00000E+00  9.000E+00
      21    -1     0     0   511   502  0.000000000E+00  0.000000000E+00 -1.078804140E+02  1.078804140E+02  0.000000000E+00  0.00000E+00  9.000E+00
      25     1     1     2     0     0  1.069714920E+02  9.326743817E+01  1.426175926E+02  2.368680916E+02  1.250000000E+02  0.00000E+00  9.000E+00
      25     1     1     2     0     0 -1.408886933E+02 -4.950196522E+01  1.828968019E+02  2.671634493E+02  1.250000000E+02  0.00000E+00  9.000E+00
      21     1     1     2   511   501  3.391720135E+01 -4.376547294E+01  2.253672661E+01  5.978040830E+01  1.118282261E-06  0.00000E+00  9.000E+00
#rwgt            1           1   3.6846649027560914E-002           3      375608           0
</event>
<event>
      5   9999  3.79277E-02  1.73632E+01 -1.00000E+00  1.71600E-01
      21    -1     0     0   502   512  0.000000000E+00  0.000000000E+00  1.744448186E+02  1.744448186E+02  0.000000000E+00  0.00000E+00  9.000E+00
      21    -1     0     0   501   502  0.000000000E+00  0.000000000E+00 -4.549655364E+02  4.549655364E+02  0.000000000E+00  0.00000E+00  9.000E+00
      25     1     1     2     0     0 -9.509674223E+01  7.973175417E+01 -2.837377334E+02  3.339650347E+02  1.250000000E+02  0.00000E+00  9.000E+00
      25     1     1     2     0     0  8.366073520E+01 -9.279689230E+01 -9.159235084E+01  1.990591384E+02  1.250000000E+02  0.00000E+00  9.000E+00
      21     1     1     2   501   512  1.143600703E+01  1.306513813E+01  9.480936649E+01  9.638618193E+01  1.907348633E-06  0.00000E+00  9.000E+00
#rwgt            1           1   3.6553196540948678E-002           3      375761           0
</event>
<event>
      5   9999 -3.79277E-02  1.75429E+01 -1.00000E+00  1.71207E-01
      21    -1     0     0   502   501  0.000000000E+00  0.000000000E+00  2.898983611E+02  2.898983611E+02  0.000000000E+00  0.00000E+00  9.000E+00
       1    -1     0     0   501     0  0.000000000E+00  0.000000000E+00 -4.721543507E+02  4.721543507E+02  0.000000000E+00  0.00000E+00  9.000E+00
      25     1     1     2     0     0 -2.697448598E+02  1.344600310E+02 -1.427090984E+02  3.561357551E+02  1.250000000E+02  0.00000E+00  9.000E+00
      25     1     1     2     0     0  2.526375356E+02 -1.383447626E+02  4.710762737E+01  3.175045295E+02  1.250000000E+02  0.00000E+00  9.000E+00
       1     1     1     2   502     0  1.710732422E+01  3.884731538E+00 -8.665451860E+01  8.841242715E+01  0.000000000E+00  0.00000E+00  9.000E+00
#rwgt            1           1 -0.15557384274723857                3      375989           0
</event>
<event>
      5   9999  3.79277E-02  2.79985E+01 -1.00000E+00  1.55152E-01
      21    -1     0     0   502   511  0.000000000E+00  0.000000000E+00  4.607827067E+02  4.607827067E+02  0.000000000E+00  0.00000E+00  9.000E+00
      21    -1     0     0   501   502  0.000000000E+00  0.000000000E+00 -9.017149505E+01  9.017149505E+01  0.000000000E+00  0.00000E+00  9.000E+00
      25     1     1     2     0     0 -8.652552972E+01 -4.063994660E+01  2.905366581E+02  3.304161350E+02  1.250000000E+02  0.00000E+00  9.000E+00
      25     1     1     2     0     0  1.024289458E+02  6.368334999E+01  5.304314818E+01  1.816200252E+02  1.250000000E+02  0.00000E+00  9.000E+00
      21     1     1     2   501   511 -1.590341606E+01 -2.304340339E+01  2.703140540E+01  3.891804157E+01  4.768371582E-07  0.00000E+00  9.000E+00
#rwgt            1           1   3.9745523741335713E-002           3      376181           0
</event>
<event>
      5   9999  3.79277E-02  5.93073E+00 -1.00000E+00  2.26258E-01
      21    -1     0     0   502   501  0.000000000E+00  0.000000000E+00  2.849458103E+02  2.849458103E+02  0.000000000E+00  0.00000E+00  9.000E+00
      21    -1     0     0   501   512  0.000000000E+00  0.000000000E+00 -1.743040208E+02  1.743040208E+02  0.000000000E+00  0.00000E+00  9.000E+00
      25     1     1     2     0     0  3.705546957E+00  1.794784823E+02  4.149879827E+01  2.226508634E+02  1.250000000E+02  0.00000E+00  9.000E+00
      25     1     1     2     0     0  1.935814772E+00 -1.813083879E+02  6.847774197E+01  2.306310474E+02  1.250000000E+02  0.00000E+00  9.000E+00
      21     1     1     2   502   512 -5.641361729E+00  1.829905514E+00  6.652493297E-01  5.967920326E+00  6.365778852E-08  0.00000E+00  9.000E+00
#rwgt            1           1   3.3601935806074922E-002           3      376403           0
</event>
<event>
      5   9999  3.79277E-02  1.39913E+01 -1.00000E+00  1.80280E-01
      21    -1     0     0   502   501  0.000000000E+00  0.000000000E+00  2.369421724E+02  2.369421724E+02  0.000000000E+00  0.00000E+00  9.000E+00
       2    -1     0     0   501     0  0.000000000E+00  0.000000000E+00 -6.250199046E+02  6.250199046E+02  0.000000000E+00  0.00000E+00  9.000E+00
      25     1     1     2     0     0 -3.412918242E+01  1.193965247E+02 -3.692889506E+01  1.800252051E+02  1.250000000E+02  0.00000E+00  9.000E+00
      25     1     1     2     0     0  3.011822090E+01 -1.328005400E+02  1.136093436E+02  2.169681396E+02  1.250000000E+02  0.00000E+00  9.000E+00
       2     1     1     2   502     0  4.010961524E+00  1.340401528E+01 -4.647581807E+02  4.649687322E+02  5.394796609E-06  0.00000E+00  9.000E+00
#rwgt            1           1  0.10839299713017615                3      376810           0
</event>
<event>
      5   9999  3.79277E-02  9.52522E+00 -1.00000E+00  1.98231E-01
      21    -1     0     0   502   501  0.000000000E+00  0.000000000E+00  3.276997604E+02  3.276997604E+02  0.000000000E+00  0.00000E+00  9.000E+00
      21    -1     0     0   501   511  0.000000000E+00  0.000000000E+00 -1.082129017E+02  1.082129017E+02  0.000000000E+00  0.00000E+00  9.000E+00
      25     1     1     2     0     0  1.227113175E+02 -4.582718812E+01  1.013021911E+02  2.074736912E+02  1.250000000E+02  0.00000E+00  9.000E+00
      25     1     1     2     0     0 -1.310316421E+02  4.119017115E+01  1.147776748E+02  2.183227795E+02  1.250000000E+02  0.00000E+00  9.000E+00
      21     1     1     2   502   511  8.320324607E+00  4.637016969E+00  3.406992830E+00  1.011619138E+01  1.032382731E-07  0.00000E+00  9.000E+00
#rwgt            1           1  0.21807655480057578                3      377156           0
</event>
<event>
      5   9999  3.79277E-02  1.25572E+02 -1.00000E+00  1.19538E-01
       2    -1     0     0   502     0  0.000000000E+00  0.000000000E+00  2.493533562E+03  2.493533562E+03  0.000000000E+00  0.00000E+00  9.000E+00
      21    -1     0     0   501   502  0.000000000E+00  0.000000000E+00 -2.533166497E+01  2.533166497E+01  0.000000000E+00  0.00000E+00  9.000E+00
      25     1     1     2     0     0  5.793762258E+01  1.702272717E-01  1.033836744E+03  1.042976611E+03  1.250000000E+02  0.00000E+00  9.000E+00
      25     1     1     2     0     0  2.174454672E+01 -9.722197023E+01  3.560176191E+02  3.902543811E+02  1.250000000E+02  0.00000E+00  9.000E+00
       2     1     1     2   501     0 -7.968216931E+01  9.705174296E+01  1.078347534E+03  1.085634236E+03  1.525878906E-05  0.00000E+00  9.000E+00
#rwgt            1           1   3.1052613347782396E-002           3      377509           0
</event>
<event>
      5   9999  3.79277E-02  1.96760E+02 -1.00000E+00  1.11907E-01
      21    -1     0     0   502   511  0.000000000E+00  0.000000000E+00  1.920454169E+02  1.920454169E+02  0.000000000E+00  0.00000E+00  9.000E+00
      21    -1     0     0   501   502  0.000000000E+00  0.000000000E+00 -7.348415578E+02  7.348415578E+02  0.000000000E+00  0.00000E+00  9.000E+00
      25     1     1     2     0     0  1.020456105E+02  9.642357199E+01 -2.707580784E+01  1.899181698E+02  1.250000000E+02  0.00000E+00  9.000E+00
      25     1     1     2     0     0  2.980130212E+01 -2.424742473E+02 -4.544711404E+02  5.308963135E+02  1.250000000E+02  0.00000E+00  9.000E+00
      21     1     1     2   501   511 -1.318469126E+02  1.460506753E+02 -6.124919257E+01  2.060724914E+02  2.431401974E-06  0.00000E+00  9.000E+00
#rwgt            1           1   3.1811755583612919E-002           3      377578           0
</event>
<event>
      5   9999  3.79277E-02  8.28852E+01 -1.00000E+00  1.27609E-01
      21    -1     0     0   502   501  0.000000000E+00  0.000000000E+00  4.741188600E+02  4.741188600E+02  0.000000000E+00  0.00000E+00  9.000E+00
      21    -1     0     0   512   502  0.000000000E+00  0.000000000E+00 -3.799280055E+02  3.799280055E+02  0.000000000E+00  0.00000E+00  9.000E+00
      25     1     1     2     0     0 -2.493451297E+02 -4.729324602E+01 -1.353259762E+02  3.136044717E+02  1.250000000E+02  0.00000E+00  9.000E+00
      25     1     1     2     0     0  2.363613390E+02  1.291552330E+02  3.069085799E+02  4.270428939E+02  1.250000000E+02  0.00000E+00  9.000E+00
      21     1     1     2   512   501  1.298379070E+01 -8.186198696E+01 -7.739174926E+01  1.133994999E+02  9.536743164E-07  0.00000E+00  9.000E+00
#rwgt            1           1   4.1420416753541280E-002           3      377740           0
</event>
<event>
      5   9999  3.79277E-02  4.77637E+01 -1.00000E+00  1.40219E-01
      21    -1     0     0   511   501  0.000000000E+00  0.000000000E+00  2.386666035E+03  2.386666035E+03  0.000000000E+00  0.00000E+00  9.000E+00
      21    -1     0     0   501   502  0.000000000E+00  0.000000000E+00 -1.600879802E+02  1.600879802E+02  0.000000000E+00  0.00000E+00  9.000E+00
      25     1     1     2     0     0  7.090710054E+01 -6.188112207E+01 -5.678567732E+01  1.664533067E+02  1.250000000E+02  0.00000E+00  9.000E+00
      25     1     1     2     0     0 -1.114983434E+02  3.670728152E+01  1.042837091E+02  2.006972772E+02  1.250000000E+02  0.00000E+00  9.000E+00
      21     1     1     2   511   502  4.059124288E+01  2.517384056E+01  2.179080023E+03  2.179603431E+03  0.000000000E+00  0.00000E+00  9.000E+00
#rwgt            1           1   3.7653130800535846E-002           3      377836           0
</event>
<event>
      5   9999  3.79277E-02  8.75184E+01 -1.00000E+00  1.26489E-01
      21    -1     0     0   502   512  0.000000000E+00  0.000000000E+00  1.601746098E+02  1.601746098E+02  0.000000000E+00  0.00000E+00  9.000E+00
      21    -1     0     0   501   502  0.000000000E+00  0.000000000E+00 -2.164877934E+03  2.164877934E+03  0.000000000E+00  0.00000E+00  9.000E+00
      25     1     1     2     0     0  4.163707908E+01  2.313946123E+02 -4.112049427E+02  4.898893935E+02  1.250000000E+02  0.00000E+00  9.000E+00
      25     1     1     2     0     0 -5.119577546E+01 -1.443998235E+02 -1.691933182E+03  1.703448035E+03  1.250000000E+02  0.00000E+00  9.000E+00
      21     1     1     2   501   512  9.558696379E+00 -8.699478874E+01  9.843479969E+01  1.317151158E+02  4.473129043E-06  0.00000E+00  9.000E+00
#rwgt            1           1   9.5540875404969236E-002           3      377957           0
</event>
<event>
      5   9999  3.79277E-02  1.56224E+01 -1.00000E+00  1.75736E-01
      21    -1     0     0   502   501  0.000000000E+00  0.000000000E+00  7.828676820E+01  7.828676820E+01  0.000000000E+00  0.00000E+00  9.000E+00
       1    -1     0     0   501     0  0.000000000E+00  0.000000000E+00 -9.902132630E+02  9.902132630E+02  0.000000000E+00  0.00000E+00  9.000E+00
      25     1     1     2     0     0 -1.402890359E+02  9.667697242E+01 -2.134501163E+02  3.003554606E+02  1.250000000E+02  0.00000E+00  9.000E+00
      25     1     1     2     0     0  1.256746350E+02 -1.021977618E+02 -2.669805913E+02  3.363660693E+02  1.250000000E+02  0.00000E+00  9.000E+00
       1     1     1     2   502     0  1.461440087E+01  5.520789425E+00 -4.314957871E+02  4.317785012E+02  5.394796609E-06  0.00000E+00  9.000E+00
#rwgt            1           1   3.2487949433109779E-002           3      378027           0
</event>
<event>
      5   9999  3.79277E-02  2.34211E+02 -1.00000E+00  1.09207E-01
      21    -1     0     0   502   501  0.000000000E+00  0.000000000E+00  3.561112049E+02  3.561112049E+02  0.000000000E+00  0.00000E+00  9.000E+00
      -3    -1     0     0     0   502  0.000000000E+00  0.000000000E+00 -7.431524493E+02  7.431524493E+02  0.000000000E+00  0.00000E+00  9.000E+00
      25     1     1     2     0     0 -7.905597127E+01  8.456101539E+01  1.623484087E+02  2.353346930E+02  1.250000000E+02  0.00000E+00  9.000E+00
      25     1     1     2     0     0  1.974953799E+02 -2.866180497E+02 -1.462731212E+02  3.977124055E+02  1.250000000E+02  0.00000E+00  9.000E+00
      -3     1     1     2     0   501 -1.184394087E+02  2.020570343E+02 -4.031165318E+02  4.662165558E+02  5.394796609E-06  0.00000E+00  9.000E+00
#rwgt            1           1   3.1196582323263264E-002           3      378364           0
</event>
<event>
      5   9999  3.79277E-02  4.23200E+01 -1.00000E+00  1.43338E-01
      21    -1     0     0   502   501  0.000000000E+00  0.000000000E+00  2.677568528E+02  2.677568528E+02  0.000000000E+00  0.00000E+00  9.000E+00
      21    -1     0     0   501   511  0.000000000E+00  0.000000000E+00 -3.320433660E+02  3.320433660E+02  0.000000000E+00  0.00000E+00  9.000E+00
      25     1     1     2     0     0  9.230519776E+01 -1.784821893E+02 -8.590850088E+00  2.368014868E+02  1.250000000E+02  0.00000E+00  9.000E+00
      25     1     1     2     0     0 -5.301285222E+01  1.942015102E+02  5.605857288E+01  2.434998002E+02  1.250000000E+02  0.00000E+00  9.000E+00
      21     1     1     2   502   511 -3.929234554E+01 -1.571932093E+01 -1.117542360E+02  1.194989319E+02  1.348699152E-06  0.00000E+00  9.000E+00
#rwgt            1           1   1.7989215945286709E-002           3      378424           0
</event>
<event>
      5   9999  3.79277E-02  2.75578E+01 -1.00000E+00  1.55646E-01
      21    -1     0     0   502   501  0.000000000E+00  0.000000000E+00  4.312300295E+02  4.312300295E+02  0.000000000E+00  0.00000E+00  9.000E+00
      21    -1     0     0   512   502  0.000000000E+00  0.000000000E+00 -1.550202637E+02  1.550202637E+02  0.000000000E+00  0.00000E+00  9.000E+00
      25     1     1     2     0     0  1.960901888E+02 -5.133919018E+00  1.126451121E+02  2.584407873E+02  1.250000000E+02  0.00000E+00  9.000E+00
      25     1     1     2     0     0 -1.970587845E+02  3.267468854E+01  1.792808933E+02  2.960851880E+02  1.250000000E+02  0.00000E+00  9.000E+00
      21     1     1     2   512   501  9.685957509E-01 -2.754076952E+01 -1.571623960E+01  3.172431797E+01  7.725644944E-07  0.00000E+00  9.000E+00
#rwgt            1           1   2.4989537529487443E-002           3      378523           0
</event>
<event>
      5   9999  3.79277E-02  5.22379E+01 -1.00000E+00  1.37999E-01
       1    -1     0     0   502     0  0.000000000E+00  0.000000000E+00  2.223160352E+02  2.223160352E+02  0.000000000E+00  0.00000E+00  9.000E+00
      21    -1     0     0   501   502  0.000000000E+00  0.000000000E+00 -2.420481671E+02  2.420481671E+02  0.000000000E+00  0.00000E+00  9.000E+00
      25     1     1     2     0     0 -1.454111553E+02 -8.837386809E+01 -2.221518903E+01  2.123036958E+02  1.250000000E+02  0.00000E+00  9.000E+00
      25     1     1     2     0     0  9.347846794E+01  8.273515679E+01 -4.408808116E+01  1.820771513E+02  1.250000000E+02  0.00000E+00  9.000E+00
       1     1     1     2   501     0  5.193268732E+01  5.638711302E+00  4.657113829E+01  6.998335516E+01  9.536743164E-07  0.00000E+00  9.000E+00
#rwgt            1           1   2.6444085084190015E-002           3      378798           0
</event>
<event>
      5   9999  3.79277E-02  5.54582E+01 -1.00000E+00  1.36556E-01
      21    -1     0     0   502   501  0.000000000E+00  0.000000000E+00  7.925476255E+01  7.925476255E+01  0.000000000E+00  0.00000E+00  9.000E+00
      21    -1     0     0   501   511  0.000000000E+00  0.000000000E+00 -1.228025173E+03  1.228025173E+03  0.000000000E+00  0.00000E+00  9.000E+00
      25     1     1     2     0     0  6.724382329E+01  1.903800802E+02 -3.650392380E+02  4.354824359E+02  1.250000000E+02  0.00000E+00  9.000E+00
      25     1     1     2     0     0 -1.141151839E+02 -1.607373622E+02 -2.778408132E+02  3.628764146E+02  1.250000000E+02  0.00000E+00  9.000E+00
      21     1     1     2   502   511  4.687136061E+01 -2.964271805E+01 -5.058903588E+02  5.089210846E+02  0.000000000E+00  0.00000E+00  9.000E+00
#rwgt            1           1   3.8775625378549290E-002           3      378867           0
</event>
<event>
      5   9999  3.79277E-02  3.69353E+01 -1.00000E+00  1.47020E-01
      21    -1     0     0   502   512  0.000000000E+00  0.000000000E+00  9.472985232E+01  9.472985232E+01  0.000000000E+00  0.00000E+00  9.000E+00
      21    -1     0     0   501   502  0.000000000E+00  0.000000000E+00 -8.065835813E+02  8.065835813E+02  0.000000000E+00  0.00000E+00  9.000E+00
      25     1     1     2     0     0 -3.106828608E+01 -2.482081534E+01  2.713707330E+01  1.339504835E+02  1.250000000E+02  0.00000E+00  9.000E+00
      25     1     1     2     0     0  6.713382724E+01  1.685237136E+01 -6.967563689E+02  7.112562062E+02  1.250000000E+02  0.00000E+00  9.000E+00
      21     1     1     2   501   512 -3.606554116E+01  7.968443984E+00 -4.223443332E+01  5.610674395E+01  8.259061849E-07  0.00000E+00  9.000E+00
#rwgt            1           1   4.1727390136800560E-002           3      378994           0
</event>
<event>
      5   9999  3.79277E-02  3.08552E+01 -1.00000E+00  1.52197E-01
      21    -1     0     0   511   501  0.000000000E+00  0.000000000E+00  1.184664481E+03  1.184664481E+03  0.000000000E+00  0.00000E+00  9.000E+00
      21    -1     0     0   501   502  0.000000000E+00  0.000000000E+00 -6.938338709E+01  6.938338709E+01  0.000000000E+00  0.00000E+00  9.000E+00
      25     1     1     2     0     0  1.015842427E+01  6.782138184E+01  2.438364925E+01  1.446461053E+02  1.250000000E+02  0.00000E+00  9.000E+00
      25     1     1     2     0     0  1.868620738E+01 -5.686558667E+01  5.353667545E+02  5.530148561E+02  1.250000000E+02  0.00000E+00  9.000E+00
      21     1     1     2   511   502 -2.884463165E+01 -1.095579517E+01  5.555306903E+02  5.563869068E+02  1.078959322E-05  0.00000E+00  9.000E+00
#rwgt            1           1   4.1632798306869036E-002           3      379225           0
</event>
<event>
      5   9999  3.79277E-02  2.86985E+01 -1.00000E+00  1.54390E-01
      21    -1     0     0   502   501  0.000000000E+00  0.000000000E+00  1.924832914E+01  1.924832914E+01  0.000000000E+00  0.00000E+00  9.000E+00
       2    -1     0     0   501     0  0.000000000E+00  0.000000000E+00 -2.034753533E+03  2.034753533E+03  0.000000000E+00  0.00000E+00  9.000E+00
      25     1     1     2     0     0 -2.536721015E+01 -8.000028466E+01 -9.731265752E+02  9.847049672E+02  1.250000000E+02  0.00000E+00  9.000E+00
      25     1     1     2     0     0  2.191425594E+00  9.692627102E+01 -4.643493118E+02  4.905555909E+02  1.250000000E+02  0.00000E+00  9.000E+00
       2     1     1     2   502     0  2.317578455E+01 -1.692598635E+01 -5.780293166E+02  5.787413039E+02  0.000000000E+00  0.00000E+00  9.000E+00
#rwgt            1           1   2.7728895941907972E-002           3      379552           0
</event>
<event>
      5   9999  3.79277E-02  1.58271E+01 -1.00000E+00  1.75215E-01
       2    -1     0     0   502     0  0.000000000E+00  0.000000000E+00  1.101205537E+03  1.101205537E+03  0.000000000E+00  0.00000E+00  9.000E+00
      21    -1     0     0   501   502  0.000000000E+00  0.000000000E+00 -1.619756855E+02  1.619756855E+02  0.000000000E+00  0.00000E+00  9.000E+00
      25     1     1     2     0     0 -4.398375515E+01 -1.354480362E+02  3.283533461E+02  3.791063982E+02  1.250000000E+02  0.00000E+00  9.000E+00
      25     1     1     2     0     0  3.007816659E+01  1.430066547E+02 -6.878048332E+01  2.042335778E+02  1.250000000E+02  0.00000E+00  9.000E+00
       2     1     1     2   501     0  1.390558856E+01 -7.558618478E+00  6.796569885E+02  6.798412463E+02  7.629394531E-06  0.00000E+00  9.000E+00
#rwgt            1           1   4.4076136681554051E-002           3      379858           0
</event>
<event>
      5   9999  3.79277E-02  4.03686E+01 -1.00000E+00  1.44594E-01
      21    -1     0     0   502   501  0.000000000E+00  0.000000000E+00  5.783647647E+01  5.783647647E+01  0.000000000E+00  0.00000E+00  9.000E+00
      21    -1     0     0   501   511  0.000000000E+00  0.000000000E+00 -8.849505209E+02  8.849505209E+02  0.000000000E+00  0.00000E+00  9.000E+00
      25     1     1     2     0     0  7.128576513E+01  1.368766413E+02 -3.928726198E+02  4.402167314E+02  1.250000000E+02  0.00000E+00  9.000E+00
      25     1     1     2     0     0 -9.238405669E+01 -1.024602582E+02 -2.376995895E+02  3.019255095E+02  1.250000000E+02  0.00000E+00  9.000E+00
      21     1     1     2   502   511  2.109829156E+01 -3.441638309E+01 -1.965418351E+02  2.006447564E+02  2.697398305E-06  0.00000E+00  9.000E+00
#rwgt            1           1   1.7709749838396852E-002           3      380021           0
</event>
<event>
      5   9999  6.08337E-02  5.86963E+01 -1.00000E+00  1.35215E-01
      21    -1     0     0   502   501  0.000000000E+00  0.000000000E+00  1.718500149E+03  1.718500149E+03  0.000000000E+00  0.00000E+00  9.000E+00
      21    -1     0     0   512   502  0.000000000E+00  0.000000000E+00 -3.989115066E+02  3.989115066E+02  0.000000000E+00  0.00000E+00  9.000E+00
      25     1     1     2     0     0  1.137364658E+02  1.542380347E+02  5.880367085E+02  6.309813987E+02  1.250000000E+02  0.00000E+00  9.000E+00
      25     1     1     2     0     0 -7.674512125E+01 -1.998110390E+02  1.092742065E+03  1.120501890E+03  1.250000000E+02  0.00000E+00  9.000E+00
      21     1     1     2   512   501 -3.699134452E+01  4.557300425E+01 -3.611901315E+02  3.659283665E+02  6.607249480E-06  0.00000E+00  9.000E+00
#rwgt            1           1  0.36708381848675120                3      380246           0
</event>
<event>
      5   9999  3.79277E-02  1.52426E+02 -1.00000E+00  1.16118E-01
      21    -1     0     0   502   501  0.000000000E+00  0.000000000E+00  8.430222397E+02  8.430222397E+02  0.000000000E+00  0.00000E+00  9.000E+00
      21    -1     0     0   511   502  0.000000000E+00  0.000000000E+00 -1.820510039E+02  1.820510039E+02  0.000000000E+00  0.00000E+00  9.000E+00
      25     1     1     2     0     0 -1.010110192E+02 -1.183996588E+02  8.938766407E+01  2.187163910E+02  1.250000000E+02  0.00000E+00  9.000E+00
      25     1     1     2     0     0  2.532447039E+02  1.260592421E+02  5.760980800E+02  6.538637551E+02  1.250000000E+02  0.00000E+00  9.000E+00
      21     1     1     2   511   501 -1.522336847E+02 -7.659583276E+00 -4.514508217E+00  1.524930974E+02  1.538215625E-06  0.00000E+00  9.000E+00
#rwgt            2          11   2.3643618334291175E-003           3      380393           0
</event>
<event>
      5   9999  3.79277E-02  2.11023E+01 -1.00000E+00  1.64469E-01
      21    -1     0     0   502   501  0.000000000E+00  0.000000000E+00  1.080505914E+02  1.080505914E+02  0.000000000E+00  0.00000E+00  9.000E+00
      21    -1     0     0   512   502  0.000000000E+00  0.000000000E+00 -6.793423240E+02  6.793423240E+02  0.000000000E+00  0.00000E+00  9.000E+00
      25     1     1     2     0     0 -1.429508363E+01 -2.211649382E+02 -2.575095271E+02  3.620144138E+02  1.250000000E+02  0.00000E+00  9.000E+00
      25     1     1     2     0     0 -6.454949780E+00  2.250046478E+02 -2.527435833E+02  3.607950621E+02  1.250000000E+02  0.00000E+00  9.000E+00
      21     1     1     2   512   501  2.075003341E+01 -3.839709669E+00 -6.103862226E+01  6.458343955E+01  6.743495762E-07  0.00000E+00  9.000E+00
#rwgt            1           1   2.8524580118748387E-002           3      380428           0
</event>
<event>
      5   9999  3.79277E-02  1.34526E+02 -1.00000E+00  1.18299E-01
      21    -1     0     0   511   501  0.000000000E+00  0.000000000E+00  1.232783521E+03  1.232783521E+03  0.000000000E+00  0.00000E+00  9.000E+00
      21    -1     0     0   501   502  0.000000000E+00  0.000000000E+00 -6.764059410E+01  6.764059410E+01  0.000000000E+00  0.00000E+00  9.000E+00
      25     1     1     2     0     0 -7.301210321E+01  2.202205837E+01  6.410933954E+01  1.598460062E+02  1.250000000E+02  0.00000E+00  9.000E+00
      25     1     1     2     0     0 -4.092834643E+01 -9.353919476E+01  5.374478879E+02  5.611594628E+02  1.250000000E+02  0.00000E+00  9.000E+00
      21     1     1     2   511   502  1.139404496E+02  7.151713639E+01  5.635856998E+02  5.794186465E+02  1.078959322E-05  0.00000E+00  9.000E+00
#rwgt            1           1   3.9629475175079587E-002           3      380642           0
</event>
<event>
      5   9999  3.79277E-02  3.60959E+01 -1.00000E+00  1.47662E-01
      21    -1     0     0   512   501  0.000000000E+00  0.000000000E+00  3.199866104E+02  3.199866104E+02  0.000000000E+00  0.00000E+00  9.000E+00
      21    -1     0     0   501   502  0.000000000E+00  0.000000000E+00 -2.363517464E+02  2.363517464E+02  0.000000000E+00  0.00000E+00  9.000E+00
      25     1     1     2     0     0 -3.627018124E+00  1.035721350E+02  1.476937614E+02  2.194966733E+02  1.250000000E+02  0.00000E+00  9.000E+00
      25     1     1     2     0     0  3.480532200E+01 -8.538354522E+01 -1.668125599E+02  2.279324250E+02  1.250000000E+02  0.00000E+00  9.000E+00
      21     1     1     2   512   502 -3.117830388E+01 -1.818858979E+01  1.027536625E+02  1.089092585E+02  0.000000000E+00  0.00000E+00  9.000E+00
#rwgt            1           1   4.7840799405182287E-002           3      380735           0
</event>
<event>
      5   9999  3.79277E-02  4.45094E+01 -1.00000E+00  1.42021E-01
      21    -1     0     0   502   501  0.000000000E+00  0.000000000E+00  7.225999728E+01  7.225999728E+01  0.000000000E+00  0.00000E+00  9.000E+00
       1    -1     0     0   501     0  0.000000000E+00  0.000000000E+00 -1.471537377E+03  1.471537377E+03  0.000000000E+00  0.00000E+00  9.000E+00
      25     1     1     2     0     0  1.095058321E+02  4.905370555E+01 -4.582159681E+02  4.898822988E+02  1.250000000E+02  0.00000E+00  9.000E+00
      25     1     1     2     0     0 -7.088783965E+01 -7.118373839E+01 -5.921971551E+01  1.709508266E+02  1.250000000E+02  0.00000E+00  9.000E+00
       1     1     1     2   502     0 -3.861799241E+01  2.213003283E+01 -8.818416965E+02  8.829642492E+02  1.078959322E-05  0.00000E+00  9.000E+00
#rwgt            1           1   3.1916221798072852E-002           3      380951           0
</event>
<event>
      5   9999  3.79277E-02  9.98735E+01 -1.00000E+00  1.23853E-01
      21    -1     0     0   502   501  0.000000000E+00  0.000000000E+00  1.137604364E+02  1.137604364E+02  0.000000000E+00  0.00000E+00  9.000E+00
       1    -1     0     0   501     0  0.000000000E+00  0.000000000E+00 -7.283464797E+02  7.283464797E+02  0.000000000E+00  0.00000E+00  9.000E+00
      25     1     1     2     0     0 -1.257849555E+02  1.643956055E+02 -3.242794863E+02  4.045119966E+02  1.250000000E+02  0.00000E+00  9.000E+00
      25     1     1     2     0     0  1.084667382E+02 -6.603507591E+01 -6.245446753E+01  1.888153200E+02  1.250000000E+02  0.00000E+00  9.000E+00
       1     1     1     2   502     0  1.731821735E+01 -9.836052961E+01 -2.278520895E+02  2.487795995E+02  3.814697266E-06  0.00000E+00  9.000E+00
#rwgt            2          12   8.9596576857082353E-005           3      381018           0
</event>
<event>
      5   9999  3.79277E-02  1.73144E+01 -1.00000E+00  1.71707E-01
      21    -1     0     0   502   511  0.000000000E+00  0.000000000E+00  2.916048813E+01  2.916048813E+01  0.000000000E+00  0.00000E+00  9.000E+00
      21    -1     0     0   501   502  0.000000000E+00  0.000000000E+00 -1.918874022E+03  1.918874022E+03  0.000000000E+00  0.00000E+00  9.000E+00
      25     1     1     2     0     0  6.165969510E+01  1.498362877E+02 -1.162384263E+03  1.180260567E+03  1.250000000E+02  0.00000E+00  9.000E+00
      25     1     1     2     0     0 -5.789452015E+01 -1.667363165E+02 -7.136622956E+02  7.457155268E+02  1.250000000E+02  0.00000E+00  9.000E+00
      21     1     1     2   501   511 -3.765174952E+00  1.690002877E+01 -1.366697499E+01  2.205841609E+01  2.384185791E-07  0.00000E+00  9.000E+00
#rwgt            1           1  0.13278983751874471                3      381067           0
</event>
<event>
      5   9999  3.79277E-02  8.51817E+01 -1.00000E+00  1.27044E-01
      -1    -1     0     0     0   501  0.000000000E+00  0.000000000E+00  1.634835403E+03  1.634835403E+03  0.000000000E+00  0.00000E+00  9.000E+00
      21    -1     0     0   501   502  0.000000000E+00  0.000000000E+00 -2.678229749E+02  2.678229749E+02  0.000000000E+00  0.00000E+00  9.000E+00
      25     1     1     2     0     0 -9.761158716E+01  5.230028589E+01 -1.944499936E+02  2.563184384E+02  1.250000000E+02  0.00000E+00  9.000E+00
      25     1     1     2     0     0  1.475356445E+01 -3.254012846E+01  6.125115784E+01  1.437123236E+02  1.250000000E+02  0.00000E+00  9.000E+00
      -1     1     1     2     0   502  8.285802271E+01 -1.976015743E+01  1.500211263E+03  1.502627615E+03  2.157918644E-05  0.00000E+00  9.000E+00
#rwgt            1           1   2.5658379028928556E-002           3      381393           0
</event>
<event>
      5   9999  3.79277E-02  1.24304E+02 -1.00000E+00  1.19722E-01
      21    -1     0     0   502   501  0.000000000E+00  0.000000000E+00  7.732799547E+02  7.732799547E+02  0.000000000E+00  0.00000E+00  9.000E+00
      21    -1     0     0   511   502  0.000000000E+00  0.000000000E+00 -1.622424485E+02  1.622424485E+02  0.000000000E+00  0.00000E+00  9.000E+00
      25     1     1     2     0     0 -1.009186793E+02  1.123855468E+02  5.140681541E+02  5.501873845E+02  1.250000000E+02  0.00000E+00  9.000E+00
      25     1     1     2     0     0  1.162590961E+02  1.096778098E+01  1.699988592E+02  2.411660875E+02  1.250000000E+02  0.00000E+00  9.000E+00
      21     1     1     2   511   501 -1.534041673E+01 -1.233533278E+02 -7.302950705E+01  1.441689313E+02  1.651812370E-06  0.00000E+00  9.000E+00
#rwgt            1           1   3.8029389973187167E-002           3      381477           0
</event>
<event>
      5   9999  3.79277E-02  3.16243E+01 -1.00000E+00  1.51466E-01
      21    -1     0     0   502   501  0.000000000E+00  0.000000000E+00  1.443340319E+02  1.443340319E+02  0.000000000E+00  0.00000E+00  9.000E+00
      21    -1     0     0   501   512  0.000000000E+00  0.000000000E+00 -3.995818509E+02  3.995818509E+02  0.000000000E+00  0.00000E+00  9.000E+00
      25     1     1     2     0     0 -1.212578256E+02  1.108737233E+02 -1.297909271E+02  2.438588271E+02  1.250000000E+02  0.00000E+00  9.000E+00
      25     1     1     2     0     0  9.031255013E+01 -1.173921103E+02 -2.582044747E+01  1.955222744E+02  1.250000000E+02  0.00000E+00  9.000E+00
      21     1     1     2   502   512  3.094527549E+01  6.518386985E+00 -9.963644438E+01  1.045347813E+02  0.000000000E+00  0.00000E+00  9.000E+00
#rwgt            1           1   3.7903134262550792E-002           3      381577           0
</event>
<event>
      5   9999  3.79277E-02  1.54887E+01 -1.00000E+00  1.76082E-01
      21    -1     0     0   502   501  0.000000000E+00  0.000000000E+00  2.379511796E+02  2.379511796E+02  0.000000000E+00  0.00000E+00  9.000E+00
      21    -1     0     0   511   502  0.000000000E+00  0.000000000E+00 -2.230274576E+02  2.230274576E+02  0.000000000E+00  0.00000E+00  9.000E+00
      25     1     1     2     0     0  1.449321028E+02 -7.810782037E+01  1.035833915E+01  2.069744941E+02  1.250000000E+02  0.00000E+00  9.000E+00
      25     1     1     2     0     0 -1.443168543E+02  9.358425584E+01  3.906596967E+01  2.161863024E+02  1.250000000E+02  0.00000E+00  9.000E+00
      21     1     1     2   511   501 -6.152484885E-01 -1.547643547E+01 -3.450058684E+01  3.781784074E+01  4.768371582E-07  0.00000E+00  9.000E+00
#rwgt            1           1   4.0449236476952054E-002           3      381671           0
</event>
<event>
      5   9999  3.79277E-02  6.72058E+01 -1.00000E+00  1.32123E-01
      21    -1     0     0   502   501  0.000000000E+00  0.000000000E+00  1.974908075E+02  1.974908075E+02  0.000000000E+00  0.00000E+00  9.000E+00
      21    -1     0     0   501   512  0.000000000E+00  0.000000000E+00 -4.920142840E+02  4.920142840E+02  0.000000000E+00  0.00000E+00  9.000E+00
      25     1     1     2     0     0  1.569386050E+02 -4.939003028E+01 -3.119173112E+02  3.741477113E+02  1.250000000E+02  0.00000E+00  9.000E+00
      25     1     1     2     0     0 -1.883166139E+02 -1.004090344E+01  6.212776199E+01  2.346248615E+02  1.250000000E+02  0.00000E+00  9.000E+00
      21     1     1     2   502   512  3.137800890E+01  5.943093372E+01 -4.473392737E+01  8.073251875E+01  1.784161275E-06  0.00000E+00  9.000E+00
#rwgt            1           1   2.2347119007094771E-002           3      381962           0
</event>
<event>
      5   9999  3.79277E-02  3.53524E+01 -1.00000E+00  1.48247E-01
      21    -1     0     0   502   501  0.000000000E+00  0.000000000E+00  5.140616682E+01  5.140616682E+01  0.000000000E+00  0.00000E+00  9.000E+00
       2    -1     0     0   501     0  0.000000000E+00  0.000000000E+00 -2.744005807E+03  2.744005807E+03  0.000000000E+00  0.00000E+00  9.000E+00
      25     1     1     2     0     0  1.882655670E+02 -1.570117177E+02 -6.464850474E+02  7.026126385E+02  1.250000000E+02  0.00000E+00  9.000E+00
      25     1     1     2     0     0 -1.731478721E+02  1.889686413E+02 -8.577269335E+02  9.038859582E+02  1.250000000E+02  0.00000E+00  9.000E+00
       2     1     1     2   502     0 -1.511769493E+01 -3.195692359E+01 -1.188387659E+03  1.188913377E+03  1.525878906E-05  0.00000E+00  9.000E+00
#rwgt            1           1   3.6200990265983536E-002           3      382070           0
</event>
<event>
      5   9999  3.79277E-02  2.90500E+01 -1.00000E+00  1.54017E-01
      21    -1     0     0   502   511  0.000000000E+00  0.000000000E+00  2.573560477E+02  2.573560477E+02  0.000000000E+00  0.00000E+00  9.000E+00
      21    -1     0     0   501   502  0.000000000E+00  0.000000000E+00 -1.201415080E+02  1.201415080E+02  0.000000000E+00  0.00000E+00  9.000E+00
      25     1     1     2     0     0 -1.841842467E+01  9.081091370E+01  6.726782003E+01  1.695164300E+02  1.250000000E+02  0.00000E+00  9.000E+00
      25     1     1     2     0     0  4.739923922E+01 -9.281488293E+01  4.293735859E+01  1.683149047E+02  1.250000000E+02  0.00000E+00  9.000E+00
      21     1     1     2   501   511 -2.898081455E+01  2.003969235E+00  2.700936107E+01  3.966622102E+01  7.539457465E-07  0.00000E+00  9.000E+00
#rwgt            1           1   4.7928742788586561E-002           3      382252           0
</event>
<event>
      5   9999  3.79277E-02  4.37004E+01 -1.00000E+00  1.42497E-01
      21    -1     0     0   502   501  0.000000000E+00  0.000000000E+00  2.695981799E+02  2.695981799E+02  0.000000000E+00  0.00000E+00  9.000E+00
      21    -1     0     0   512   502  0.000000000E+00  0.000000000E+00 -2.082819111E+02  2.082819111E+02  0.000000000E+00  0.00000E+00  9.000E+00
      25     1     1     2     0     0 -1.845023676E+01 -1.594553162E+01 -1.237857741E+02  1.776023341E+02  1.250000000E+02  0.00000E+00  9.000E+00
      25     1     1     2     0     0 -1.201943267E+01  4.727158140E+01  2.105776758E+02  2.496938660E+02  1.250000000E+02  0.00000E+00  9.000E+00
      21     1     1     2   512   501  3.046966943E+01 -3.132604978E+01 -2.547563295E+01  5.058389096E+01  8.920806376E-07  0.00000E+00  9.000E+00
#rwgt            1           1   4.9118617090049693E-002           3      382338           0
</event>
<event>
      5   9999  3.79277E-02  2.23540E+01 -1.00000E+00  1.62478E-01
      21    -1     0     0   502   511  0.000000000E+00  0.000000000E+00  2.115794361E+01  2.115794361E+01  0.000000000E+00  0.00000E+00  9.000E+00
      21    -1     0     0   501   502  0.000000000E+00  0.000000000E+00 -2.564445388E+03  2.564445388E+03  0.000000000E+00  0.00000E+00  9.000E+00
      25     1     1     2     0     0  1.617158523E+02 -4.983772220E+01 -1.242362868E+03  1.260050122E+03  1.250000000E+02  0.00000E+00  9.000E+00
      25     1     1     2     0     0 -1.669238558E+02  7.157660540E+01 -1.257813415E+03  1.276991140E+03  1.250000000E+02  0.00000E+00  9.000E+00
      21     1     1     2   501   511  5.208003471E+00 -2.173888320E+01 -4.311116158E+01  4.856206952E+01  8.259061849E-07  0.00000E+00  9.000E+00
#rwgt            1           1   3.9541745251704057E-002           3      382437           0
</event>
<event>
      5   9999  3.79277E-02  6.79551E+01 -1.00000E+00  1.31876E-01
      21    -1     0     0   512   501  0.000000000E+00  0.000000000E+00  1.903392457E+02  1.903392457E+02  0.000000000E+00  0.00000E+00  9.000E+00
      21    -1     0     0   501   502  0.000000000E+00  0.000000000E+00 -6.802315989E+02  6.802315989E+02  0.000000000E+00  0.00000E+00  9.000E+00
      25     1     1     2     0     0 -1.581265487E+02 -2.101395060E+02 -1.261407480E+02  3.173312240E+02  1.250000000E+02  0.00000E+00  9.000E+00
      25     1     1     2     0     0  1.384250581E+02  2.751760046E+02 -3.522050022E+02  4.843105344E+02  1.250000000E+02  0.00000E+00  9.000E+00
      21     1     1     2   512   502  1.970149060E+01 -6.503649857E+01 -1.154660301E+01  6.892908617E+01  1.079486029E-06  0.00000E+00  9.000E+00
#rwgt            1           1   2.4062041167559712E-002           3      382647           0
</event>
<event>
      5   9999  3.79277E-02  1.11812E+02 -1.00000E+00  1.21686E-01
      21    -1     0     0   511   501  0.000000000E+00  0.000000000E+00  8.073033861E+02  8.073033861E+02  0.000000000E+00  0.00000E+00  9.000E+00
      21    -1     0     0   501   502  0.000000000E+00  0.000000000E+00 -1.637820449E+02  1.637820449E+02  0.000000000E+00  0.00000E+00  9.000E+00
      25     1     1     2     0     0 -1.054445114E+02  1.537441365E+02  3.608918683E+02  4.249985237E+02  1.250000000E+02  0.00000E+00  9.000E+00
      25     1     1     2     0     0  2.102799139E+02 -1.148668608E+02  3.262210809E+01  2.722154291E+02  1.250000000E+02  0.00000E+00  9.000E+00
      21     1     1     2   511   502 -1.048354025E+02 -3.887727563E+01  2.500073648E+02  2.738714783E+02  2.697398305E-06  0.00000E+00  9.000E+00
#rwgt            1           1   3.8265289447932761E-002           3      382701           0
</event>
<event>
      5   9999  3.79277E-02  1.68958E+02 -1.00000E+00  1.14381E-01
      21    -1     0     0   502   501  0.000000000E+00  0.000000000E+00  4.233167237E+02  4.233167237E+02  0.000000000E+00  0.00000E+00  9.000E+00
      21    -1     0     0   501   512  0.000000000E+00  0.000000000E+00 -3.866939389E+02  3.866939389E+02  0.000000000E+00  0.00000E+00  9.000E+00
      25     1     1     2     0     0 -2.717039610E+02  4.271166017E+01  2.457058501E+02  3.894145518E+02  1.250000000E+02  0.00000E+00  9.000E+00
      25     1     1     2     0     0  1.330226737E+02  5.379944405E+01 -7.364357899E+01  2.040533965E+02  1.250000000E+02  0.00000E+00  9.000E+00
      21     1     1     2   502   512  1.386812873E+02 -9.651110421E+01 -1.354394863E+02  2.165427143E+02  3.814697266E-06  0.00000E+00  9.000E+00
#rwgt            1           1   3.4572600418754221E-002           3      382779           0
</event>
<event>
      5   9999  3.79277E-02  3.21045E+01 -1.00000E+00  1.51023E-01
      21    -1     0     0   502   511  0.000000000E+00  0.000000000E+00  9.409668173E+01  9.409668173E+01  0.000000000E+00  0.00000E+00  9.000E+00
      21    -1     0     0   501   502  0.000000000E+00  0.000000000E+00 -3.202238106E+02  3.202238106E+02  0.000000000E+00  0.00000E+00  9.000E+00
      25     1     1     2     0     0  3.130662931E+01  8.516251226E+00 -2.090581225E+02  2.457293840E+02  1.250000000E+02  0.00000E+00  9.000E+00
      25     1     1     2     0     0 -5.578355842E-01  7.145460124E-01 -3.753630149E+01  1.305174153E+02  1.250000000E+02  0.00000E+00  9.000E+00
      21     1     1     2   501   511 -3.074879372E+01 -9.230797239E+00  2.046729514E+01  3.807369306E+01  7.539457465E-07  0.00000E+00  9.000E+00
#rwgt            1           1   5.5430729175312339E-002           3      382903           0
</event>
<event>
      5   9999  3.79277E-02  1.33337E+02 -1.00000E+00  1.18457E-01
      21    -1     0     0   502   501  0.000000000E+00  0.000000000E+00  6.871323899E+02  6.871323899E+02  0.000000000E+00  0.00000E+00  9.000E+00
      21    -1     0     0   501   512  0.000000000E+00  0.000000000E+00 -3.144846394E+02  3.144846394E+02  0.000000000E+00  0.00000E+00  9.000E+00
      25     1     1     2     0     0  4.182192283E+01  1.684082422E+02  4.005372503E+02  4.540545102E+02  1.250000000E+02  0.00000E+00  9.000E+00
      25     1     1     2     0     0  5.336451944E+01 -7.503614220E+01  2.181269335E+02  2.677359776E+02  1.250000000E+02  0.00000E+00  9.000E+00
      21     1     1     2   502   512 -9.518644228E+01 -9.337210003E+01 -2.460164334E+02  2.798265415E+02  2.697398305E-06  0.00000E+00  9.000E+00
#rwgt            1           1   1.8352393012350220E-002           3      383032           0
</event>
<event>
      5   9999  3.79277E-02  3.97408E+01 -1.00000E+00  1.45015E-01
      21    -1     0     0   511   501  0.000000000E+00  0.000000000E+00  9.192978910E+01  9.192978910E+01  0.000000000E+00  0.00000E+00  9.000E+00
      21    -1     0     0   501   502  0.000000000E+00  0.000000000E+00 -9.292492371E+02  9.292492371E+02  0.000000000E+00  0.00000E+00  9.000E+00
      25     1     1     2     0     0  9.786477551E+01 -2.138382493E+00 -7.224150007E+02  7.396556768E+02  1.250000000E+02  0.00000E+00  9.000E+00
      25     1     1     2     0     0 -1.351250600E+02  1.595871261E+01 -1.423365400E+02  2.332341162E+02  1.250000000E+02  0.00000E+00  9.000E+00
      21     1     1     2   511   502  3.726028451E+01 -1.382033012E+01  2.743209273E+01  4.828923315E+01  1.752011592E-06  0.00000E+00  9.000E+00
#rwgt            1           1   4.3592928517728134E-002           3      383447           0
</event>
<event>
      5   9999  3.79277E-02  5.36229E+01 -1.00000E+00  1.37364E-01
      21    -1     0     0   512   501  0.000000000E+00  0.000000000E+00  3.989073678E+02  3.989073678E+02  0.000000000E+00  0.00000E+00  9.000E+00
      21    -1     0     0   501   502  0.000000000E+00  0.000000000E+00 -1.182914988E+03  1.182914988E+03  0.000000000E+00  0.00000E+00  9.000E+00
      25     1     1     2     0     0 -2.866349527E+02 -1.327613235E+02 -7.723685530E+02  8.437792050E+02  1.250000000E+02  0.00000E+00  9.000E+00
      25     1     1     2     0     0  2.417806880E+02  1.621468332E+02 -3.050295583E+02  4.397925966E+02  1.250000000E+02  0.00000E+00  9.000E+00
      21     1     1     2   512   502  4.485426473E+01 -2.938550962E+01  2.933904907E+02  2.982505545E+02  5.394796609E-06  0.00000E+00  9.000E+00
#rwgt            1           1   8.2359880010350245E-002           3      383725           0
</event>
<event>
      5   9999  3.79277E-02  3.65598E+01 -1.00000E+00  1.47305E-01
      21    -1     0     0   511   501  0.000000000E+00  0.000000000E+00  2.438157467E+02  2.438157467E+02  0.000000000E+00  0.00000E+00  9.000E+00
      21    -1     0     0   501   502  0.000000000E+00  0.000000000E+00 -2.186867548E+02  2.186867548E+02  0.000000000E+00  0.00000E+00  9.000E+00
      25     1     1     2     0     0 -1.015981372E+02 -4.277623688E+01 -1.277354321E+02  2.099841149E+02  1.250000000E+02  0.00000E+00  9.000E+00
      25     1     1     2     0     0  1.046382878E+02  6.343106872E+00  1.131481267E+02  1.985369106E+02  1.250000000E+02  0.00000E+00  9.000E+00
      21     1     1     2   511   502 -3.040150661E+00  3.643313001E+01  3.971629733E+01  5.398147601E+01  4.768371582E-07  0.00000E+00  9.000E+00
#rwgt            1           1   1.2502611853150311E-002           3      383905           0
</event>
<event>
      5   9999  3.79277E-02  1.84746E+01 -1.00000E+00  1.69263E-01
      21    -1     0     0   512   501  0.000000000E+00  0.000000000E+00  2.098489727E+02  2.098489727E+02  0.000000000E+00  0.00000E+00  9.000E+00
      21    -1     0     0   501   502  0.000000000E+00  0.000000000E+00 -3.700970987E+02  3.700970987E+02  0.000000000E+00  0.00000E+00  9.000E+00
      25     1     1     2     0     0 -1.339806307E+02 -1.443874025E+01  1.091683682E+02  2.137803060E+02  1.250000000E+02  0.00000E+00  9.000E+00
      25     1     1     2     0     0  1.255968689E+02 -2.024066014E+00 -2.891503702E+02  3.391336122E+02  1.250000000E+02  0.00000E+00  9.000E+00
      21     1     1     2   512   502  8.383761728E+00  1.646280627E+01  1.973387593E+01  2.703215327E+01  2.384185791E-07  0.00000E+00  9.000E+00
#rwgt            1           1   2.9451769798948473E-002           3      384001           0
</event>
<event>
      5   9999  3.79277E-02  3.54722E+01 -1.00000E+00  1.48152E-01
      21    -1     0     0   502   501  0.000000000E+00  0.000000000E+00  8.565807916E+02  8.565807916E+02  0.000000000E+00  0.00000E+00  9.000E+00
      21    -1     0     0   511   502  0.000000000E+00  0.000000000E+00 -1.275983429E+03  1.275983429E+03  0.000000000E+00  0.00000E+00  9.000E+00
      25     1     1     2     0     0 -2.732220034E+01  1.062849815E+02  8.133780710E+02  8.302119527E+02  1.250000000E+02  0.00000E+00  9.000E+00
      25     1     1     2     0     0  4.358634410E+01 -7.476110177E+01 -1.329937090E+02  2.019933621E+02  1.250000000E+02  0.00000E+00  9.000E+00
      21     1     1     2   511   501 -1.626414375E+01 -3.152387968E+01 -1.099787000E+03  1.100358906E+03  1.525878906E-05  0.00000E+00  9.000E+00
#rwgt            1           1   6.8815104728083470E-002           3      384175           0
</event>
<event>
      5   9999  3.79277E-02  3.04676E+01 -1.00000E+00  1.52575E-01
      21    -1     0     0   512   501  0.000000000E+00  0.000000000E+00  4.704527233E+01  4.704527233E+01  0.000000000E+00  0.00000E+00  9.000E+00
      21    -1     0     0   501   502  0.000000000E+00  0.000000000E+00 -9.080678247E+02  9.080678247E+02  0.000000000E+00  0.00000E+00  9.000E+00
      25     1     1     2     0     0  8.273108662E+00 -1.310436539E+02 -5.648907889E+02  5.932684780E+02  1.250000000E+02  0.00000E+00  9.000E+00
      25     1     1     2     0     0  1.869977196E+01  1.168754563E+02 -2.761383490E+02  3.254027375E+02  1.250000000E+02  0.00000E+00  9.000E+00
      21     1     1     2   512   502 -2.697288062E+01  1.416819757E+01 -1.999341441E+01  3.644188155E+01  2.384185791E-07  0.00000E+00  9.000E+00
#rwgt            1           1   1.9252974373616196E-002           3      384344           0
</event>
<event>
      5   9999  3.79277E-02  8.32753E+01 -1.00000E+00  1.27512E-01
      21    -1     0     0   502   501  0.000000000E+00  0.000000000E+00  2.544990557E+03  2.544990557E+03  0.000000000E+00  0.00000E+00  9.000E+00
      21    -1     0     0   511   502  0.000000000E+00  0.000000000E+00 -8.765406071E+01  8.765406071E+01  0.000000000E+00  0.00000E+00  9.000E+00
      25     1     1     2     0     0  1.699109239E+02 -1.018206171E+02  1.109563322E+02  2.591784478E+02  1.250000000E+02  0.00000E+00  9.000E+00
      25     1     1     2     0     0 -1.729738140E+02  1.860164598E+01  2.143243002E+03  2.153922359E+03  1.250000000E+02  0.00000E+00  9.000E+00
      21     1     1     2   511   501  3.062890086E+00  8.321897111E+01  2.031371622E+02  2.195438114E+02  2.697398305E-06  0.00000E+00  9.000E+00
#rwgt            1           1   3.1914209326513440E-002           3      384490           0
</event>
<event>
      5   9999  3.79277E-02  7.17591E+01 -1.00000E+00  1.30677E-01
      21    -1     0     0   502   512  0.000000000E+00  0.000000000E+00  2.275636112E+02  2.275636112E+02  0.000000000E+00  0.00000E+00  9.000E+00
      21    -1     0     0   501   502  0.000000000E+00  0.000000000E+00 -4.334778259E+02  4.334778259E+02  0.000000000E+00  0.00000E+00  9.000E+00
      25     1     1     2     0     0  1.006409894E+02  4.089602650E+01  6.387272932E+01  1.774987867E+02  1.250000000E+02  0.00000E+00  9.000E+00
      25     1     1     2     0     0 -8.186771398E+01 -1.101559094E+02 -3.373040388E+02  3.850138459E+02  1.250000000E+02  0.00000E+00  9.000E+00
      21     1     1     2   501   512 -1.877327542E+01  6.925988288E+01  6.751709472E+01  9.852880455E+01  0.000000000E+00  0.00000E+00  9.000E+00
#rwgt            2          11   1.6995762428396390E-003           3      384680           0
</event>
<event>
      5   9999 -3.79277E-02  7.25439E+01 -1.00000E+00  1.30440E-01
      21    -1     0     0   502   511  0.000000000E+00  0.000000000E+00  6.879383390E+01  6.879383390E+01  0.000000000E+00  0.00000E+00  9.000E+00
      21    -1     0     0   501   502  0.000000000E+00  0.000000000E+00 -5.319195953E+02  5.319195953E+02  0.000000000E+00  0.00000E+00  9.000E+00
      25     1     1     2     0     0 -4.836514028E+01 -4.682964966E+01 -1.910535331E+02  2.380307867E+02  1.250000000E+02  0.00000E+00  9.000E+00
      25     1     1     2     0     0  1.094024537E+02  7.624227654E+00 -2.041484504E+02  2.633032767E+02  1.250000000E+02  0.00000E+00  9.000E+00
      21     1     1     2   501   511 -6.103731345E+01  3.920542200E+01 -6.792377790E+01  9.937936583E+01  0.000000000E+00  0.00000E+00  9.000E+00
#rwgt            1           1 -0.18540294254420356                3      384730           0
</event>
<event>
      5   9999  3.79277E-02  5.86617E+00 -1.00000E+00  2.27004E-01
      21    -1     0     0   512   501  0.000000000E+00  0.000000000E+00  1.741807275E+02  1.741807275E+02  0.000000000E+00  0.00000E+00  9.000E+00
      21    -1     0     0   501   502  0.000000000E+00  0.000000000E+00 -4.683187399E+02  4.683187399E+02  0.000000000E+00  0.00000E+00  9.000E+00
      25     1     1     2     0     0 -1.895015171E+02  2.349638350E+00 -3.264018683E+02  3.975921596E+02  1.250000000E+02  0.00000E+00  9.000E+00
      25     1     1     2     0     0  1.854920426E+02 -6.631707301E+00  1.231729236E+01  2.241160260E+02  1.250000000E+02  0.00000E+00  9.000E+00
      21     1     1     2   512   502  4.009474469E+00  4.282068951E+00  1.994656355E+01  2.079128176E+01  2.384185791E-07  0.00000E+00  9.000E+00
#rwgt            1           1   4.5957239822125663E-002           3      384901           0
</event>
<event>
      5   9999  3.79277E-02  6.48071E+01 -1.00000E+00  1.32939E-01
      21    -1     0     0   502   501  0.000000000E+00  0.000000000E+00  2.883977676E+02  2.883977676E+02  0.000000000E+00  0.00000E+00  9.000E+00
       2    -1     0     0   501     0  0.000000000E+00  0.000000000E+00 -9.835366931E+02  9.835366931E+02  0.000000000E+00  0.00000E+00  9.000E+00
      25     1     1     2     0     0  1.100593464E+02  1.679627137E+02 -9.388256106E+01  2.544866759E+02  1.250000000E+02  0.00000E+00  9.000E+00
      25     1     1     2     0     0 -1.068731083E+02 -2.326914578E+02  1.083802435E+02  3.048580867E+02  1.250000000E+02  0.00000E+00  9.000E+00
       2     1     1     2   502     0 -3.186238153E+00  6.472874417E+01 -7.096366080E+02  7.125896981E+02  0.000000000E+00  0.00000E+00  9.000E+00
#rwgt            2          13   4.3132479428892876E-004           3      385377           0
</event>
<event>
      5   9999  3.79277E-02  1.01080E+02 -1.00000E+00  1.23618E-01
      21    -1     0     0   502   501  0.000000000E+00  0.000000000E+00  3.676898596E+02  3.676898596E+02  0.000000000E+00  0.00000E+00  9.000E+00
      21    -1     0     0   501   511  0.000000000E+00  0.000000000E+00 -2.197418873E+02  2.197418873E+02  0.000000000E+00  0.00000E+00  9.000E+00
      25     1     1     2     0     0  4.164124796E+01 -2.065601936E+02  1.288137566E+02  2.768015372E+02  1.250000000E+02  0.00000E+00  9.000E+00
      25     1     1     2     0     0 -1.957599871E+01  1.079179246E+02  8.817022063E+01  1.882245627E+02  1.250000000E+02  0.00000E+00  9.000E+00
      21     1     1     2   502   511 -2.206524925E+01  9.864226900E+01 -6.903600485E+01  1.224056470E+02  1.348699152E-06  0.00000E+00  9.000E+00
#rwgt            1           1  0.15029914445676842                3      385396           0
</event>
<event>
      5   9999  3.79277E-02  8.16695E+01 -1.00000E+00  1.27917E-01
      21    -1     0     0   502   501  0.000000000E+00  0.000000000E+00  3.055230246E+02  3.055230246E+02  0.000000000E+00  0.00000E+00  9.000E+00
      21    -1     0     0   501   512  0.000000000E+00  0.000000000E+00 -2.958888917E+02  2.958888917E+02  0.000000000E+00  0.00000E+00  9.000E+00
      25     1     1     2     0     0 -5.706515100E+01 -1.066946091E+02  1.283116820E+02  2.161690515E+02  1.250000000E+02  0.00000E+00  9.000E+00
      25     1     1     2     0     0 -5.759881579E+00  1.588762622E+02  4.057754769E+01  2.062677394E+02  1.250000000E+02  0.00000E+00  9.000E+00
      21     1     1     2   502   512  6.282503258E+01 -5.218165315E+01 -1.592550968E+02  1.789751254E+02  0.000000000E+00  0.00000E+00  9.000E+00
#rwgt            2          11   1.7013911446863989E-003           3      385483           0
</event>
<event>
      5   9999  3.79277E-02  1.61146E+01 -1.00000E+00  1.74500E-01
      21    -1     0     0   502   511  0.000000000E+00  0.000000000E+00  6.102328120E+02  6.102328120E+02  0.000000000E+00  0.00000E+00  9.000E+00
      21    -1     0     0   501   502  0.000000000E+00  0.000000000E+00 -1.365471572E+02  1.365471572E+02  0.000000000E+00  0.00000E+00  9.000E+00
      25     1     1     2     0     0  1.131269222E+02 -2.953972354E+01  2.635040676E+02  3.142128092E+02  1.250000000E+02  0.00000E+00  9.000E+00
      25     1     1     2     0     0 -1.019630277E+02  4.116069785E+01 -4.848678496E+01  1.733973194E+02  1.250000000E+02  0.00000E+00  9.000E+00
      21     1     1     2   501   511 -1.116389455E+01 -1.162097431E+01  2.586683722E+02  2.591698407E+02  0.000000000E+00  0.00000E+00  9.000E+00
#rwgt            1           1   4.3619728139288980E-002           3      385548           0
</event>
<event>
      5   9999 -5.95638E-02  2.34271E+01 -1.00000E+00  1.60894E-01
      21    -1     0     0   502   501  0.000000000E+00  0.000000000E+00  4.583482418E+02  4.583482418E+02  0.000000000E+00  0.00000E+00  9.000E+00
      21    -1     0     0   512   502  0.000000000E+00  0.000000000E+00 -2.831434214E+02  2.831434214E+02  0.000000000E+00  0.00000E+00  9.000E+00
      25     1     1     2     0     0  6.691397037E+01  6.122526451E+01  3.521275055E+02  3.845059071E+02  1.250000000E+02  0.00000E+00  9.000E+00
      25     1     1     2     0     0 -6.573502447E+01 -8.462271694E+01  1.343717219E+01  1.651897553E+02  1.250000000E+02  0.00000E+00  9.000E+00
      21     1     1     2   512   501 -1.178945897E+00  2.339745244E+01 -1.903598573E+02  1.917960009E+02  2.697398305E-06  0.00000E+00  9.000E+00
#rwgt            1           1 -0.29089140851826162                3      385764           0
</event>
<event>
      5   9999  3.79277E-02  1.41075E+02 -1.00000E+00  1.17459E-01
      21    -1     0     0   502   501  0.000000000E+00  0.000000000E+00  5.917541277E+01  5.917541277E+01  0.000000000E+00  0.00000E+00  9.000E+00
      21    -1     0     0   511   502  0.000000000E+00  0.000000000E+00 -1.860446019E+03  1.860446019E+03  0.000000000E+00  0.00000E+00  9.000E+00
      25     1     1     2     0     0 -1.001987957E+02 -2.380781304E+02 -5.305059508E+02  6.031438955E+02  1.250000000E+02  0.00000E+00  9.000E+00
      25     1     1     2     0     0  3.775114121E+01  1.115776529E+02 -4.146043500E+02  4.487722009E+02  1.250000000E+02  0.00000E+00  9.000E+00
      21     1     1     2   511   501  6.244765445E+01  1.265004775E+02 -8.561603055E+02  8.677053354E+02  1.078959322E-05  0.00000E+00  9.000E+00
#rwgt            1           1   4.3062006570858874E-002           3      385995           0
</event>
<event>
      5   9999  3.79277E-02  5.88802E+01 -1.00000E+00  1.35142E-01
      21    -1     0     0   512   501  0.000000000E+00  0.000000000E+00  4.554134627E+01  4.554134627E+01  0.000000000E+00  0.00000E+00  9.000E+00
      21    -1     0     0   501   502  0.000000000E+00  0.000000000E+00 -1.112068974E+03  1.112068974E+03  0.000000000E+00  0.00000E+00  9.000E+00
      25     1     1     2     0     0 -2.241986494E+01  1.313903340E+02 -4.798538460E+02  5.134693601E+02  1.250000000E+02  0.00000E+00  9.000E+00
      25     1     1     2     0     0  7.986167648E+01 -1.443255677E+02 -4.488018914E+02  4.942225153E+02  1.250000000E+02  0.00000E+00  9.000E+00
      21     1     1     2   512   502 -5.744181154E+01  1.293523375E+01 -1.378718901E+02  1.499184447E+02  3.303624740E-06  0.00000E+00  9.000E+00
#rwgt            1           1   2.8388013189614709E-002           3      386132           0
</event>
<event>
      5   9999  3.79277E-02  1.44484E+01 -1.00000E+00  1.78930E-01
      21    -1     0     0   511   501  0.000000000E+00  0.000000000E+00  5.477281717E+02  5.477281717E+02  0.000000000E+00  0.00000E+00  9.000E+00
      21    -1     0     0   501   502  0.000000000E+00  0.000000000E+00 -1.302061190E+02  1.302061190E+02  0.000000000E+00  0.00000E+00  9.000E+00
      25     1     1     2     0     0  1.215076467E+02  1.986365266E+01  3.785476947E+01  1.794899899E+02  1.250000000E+02  0.00000E+00  9.000E+00
      25     1     1     2     0     0 -1.155010712E+02 -6.722959047E+00  6.323877185E+01  1.816860972E+02  1.250000000E+02  0.00000E+00  9.000E+00
      21     1     1     2   511   502 -6.006575497E+00 -1.314069361E+01  3.164285114E+02  3.167582037E+02  3.814697266E-06  0.00000E+00  9.000E+00
#rwgt            1           1   3.3828694831608157E-002           3      386298           0
</event>
<event>
      5   9999  3.79277E-02  4.03025E+01 -1.00000E+00  1.44638E-01
      21    -1     0     0   512   501  0.000000000E+00  0.000000000E+00  1.608741082E+02  1.608741082E+02  0.000000000E+00  0.00000E+00  9.000E+00
      21    -1     0     0   501   502  0.000000000E+00  0.000000000E+00 -3.803027323E+02  3.803027323E+02  0.000000000E+00  0.00000E+00  9.000E+00
      25     1     1     2     0     0 -7.896247300E+01 -1.140344211E+02 -1.485934628E+02  2.386292910E+02  1.250000000E+02  0.00000E+00  9.000E+00
      25     1     1     2     0     0  1.186631977E+02  1.070957293E+02 -1.224966163E+02  2.370250424E+02  1.250000000E+02  0.00000E+00  9.000E+00
      21     1     1     2   512   502 -3.970072474E+01  6.938691790E+00  5.166145510E+01  6.552250706E+01  6.743495762E-07  0.00000E+00  9.000E+00
#rwgt            1           1   3.1723695835434954E-002           3      386466           0
</event>
<event>
      5   9999  3.79277E-02  6.72057E+01 -1.00000E+00  1.32123E-01
      21    -1     0     0   502   511  0.000000000E+00  0.000000000E+00  1.166960914E+02  1.166960914E+02  0.000000000E+00  0.00000E+00  9.000E+00
      21    -1     0     0   501   502  0.000000000E+00  0.000000000E+00 -8.562480352E+02  8.562480352E+02  0.000000000E+00  0.00000E+00  9.000E+00
      25     1     1     2     0     0 -5.111942535E+01  9.567660273E+01 -3.524282095E+01  1.692166197E+02  1.250000000E+02  0.00000E+00  9.000E+00
      25     1     1     2     0     0  9.633895819E+01 -1.453937933E+02 -7.045694356E+02  7.365213096E+02  1.250000000E+02  0.00000E+00  9.000E+00
      21     1     1     2   501   511 -4.521953284E+01  4.971719060E+01  2.603126642E-01  6.720619729E+01  1.016697176E-06  0.00000E+00  9.000E+00
#rwgt            1           1   4.1117926096344751E-002           3      386696           0
</event>
<event>
      5   9999  3.79277E-02  2.88507E+01 -1.00000E+00  1.54228E-01
      21    -1     0     0   502   512  0.000000000E+00  0.000000000E+00  1.699552233E+02  1.699552233E+02  0.000000000E+00  0.00000E+00  9.000E+00
      21    -1     0     0   501   502  0.000000000E+00  0.000000000E+00 -7.681665760E+02  7.681665760E+02  0.000000000E+00  0.00000E+00  9.000E+00
      25     1     1     2     0     0  9.065952871E+01  1.352287223E+02 -3.206429760E+02  3.807136398E+02  1.250000000E+02  0.00000E+00  9.000E+00
      25     1     1     2     0     0 -1.080690191E+02 -1.582346805E+02 -3.840809532E+02  4.470573851E+02  1.250000000E+02  0.00000E+00  9.000E+00
      21     1     1     2   501   512  1.740949042E+01  2.300595825E+01  1.065125765E+02  1.103507744E+02  0.000000000E+00  0.00000E+00  9.000E+00
#rwgt            1           1   3.6195286922254113E-002           3      386791           0
</event>
<event>
      5   9999  3.79277E-02  1.23070E+02 -1.00000E+00  1.19904E-01
      21    -1     0     0   502   501  0.000000000E+00  0.000000000E+00  8.965971971E+02  8.965971971E+02  0.000000000E+00  0.00000E+00  9.000E+00
      21    -1     0     0   501   511  0.000000000E+00  0.000000000E+00 -2.636752188E+02  2.636752188E+02  0.000000000E+00  0.00000E+00  9.000E+00
      25     1     1     2     0     0  4.078036539E+01 -2.055138188E+02  3.504592214E+02  4.270194771E+02  1.250000000E+02  0.00000E+00  9.000E+00
      25     1     1     2     0     0  7.466586462E+01  1.628707919E+02  4.646195114E+02  5.134181304E+02  1.250000000E+02  0.00000E+00  9.000E+00
      21     1     1     2   502   511 -1.154462300E+02  4.264302691E+01 -1.821567546E+02  2.198348085E+02  5.394796609E-06  0.00000E+00  9.000E+00
#rwgt            1           1   5.2527190758199414E-002           3      386902           0
</event>
<event>
      5   9999  3.79277E-02  5.07813E+01 -1.00000E+00  1.38692E-01
      21    -1     0     0   512   501  0.000000000E+00  0.000000000E+00  3.356519414E+02  3.356519414E+02  0.000000000E+00  0.00000E+00  9.000E+00
      21    -1     0     0   501   502  0.000000000E+00  0.000000000E+00 -2.735668864E+02  2.735668864E+02  0.000000000E+00  0.00000E+00  9.000E+00
      25     1     1     2     0     0 -6.042507085E+01 -1.408347238E+02  2.253139080E+02  2.997948728E+02  1.250000000E+02  0.00000E+00  9.000E+00
      25     1     1     2     0     0  3.914356444E+01  9.472794208E+01 -1.920566844E+02  2.510306190E+02  1.250000000E+02  0.00000E+00  9.000E+00
      21     1     1     2   512   502  2.128150640E+01  4.610678175E+01  2.882783142E+01  5.839333612E+01  8.259061849E-07  0.00000E+00  9.000E+00
#rwgt            1           1   2.4547411957308266E-002           3      387029           0
</event>
<event>
      5   9999  3.79277E-02  1.87564E+01 -1.00000E+00  1.68703E-01
      21    -1     0     0   511   501  0.000000000E+00  0.000000000E+00  1.168764904E+02  1.168764904E+02  0.000000000E+00  0.00000E+00  9.000E+00
      21    -1     0     0   501   502  0.000000000E+00  0.000000000E+00 -3.638407189E+02  3.638407189E+02  0.000000000E+00  0.00000E+00  9.000E+00
      25     1     1     2     0     0  1.369235116E+02  5.939262735E+01 -1.490042197E+02  2.451587031E+02  1.250000000E+02  0.00000E+00  9.000E+00
      25     1     1     2     0     0 -1.296032024E+02 -4.212372058E+01 -1.081364874E+02  2.142192751E+02  1.250000000E+02  0.00000E+00  9.000E+00
      21     1     1     2   511   502 -7.320309234E+00 -1.726890677E+01  1.017647864E+01  2.133923115E+01  4.915124924E-07  0.00000E+00  9.000E+00
#rwgt            1           1   3.6415126787487040E-002           3      387164           0
</event>
<event>
      5   9999  3.93173E-02  1.73181E+01 -1.00000E+00  1.71699E-01
      21    -1     0     0   502   501  0.000000000E+00  0.000000000E+00  2.659413168E+02  2.659413168E+02  0.000000000E+00  0.00000E+00  9.000E+00
      -1    -1     0     0     0   502  0.000000000E+00  0.000000000E+00 -1.242278860E+03  1.242278860E+03  0.000000000E+00  0.00000E+00  9.000E+00
      25     1     1     2     0     0  4.103262868E+01  3.597226777E+02 -5.163043723E+02  6.428680163E+02  1.250000000E+02  0.00000E+00  9.000E+00
      25     1     1     2     0     0 -2.430470417E+01 -3.552400939E+02  2.669391784E+01  3.783170736E+02  1.250000000E+02  0.00000E+00  9.000E+00
      -1     1     1     2     0   501 -1.672792451E+01 -4.482583846E+00 -4.867270890E+02  4.870350872E+02  7.629394531E-06  0.00000E+00  9.000E+00
#rwgt            1           1  0.21210605536933874                3      387336           0
</event>
<event>
      5   9999  3.79277E-02  2.32085E+02 -1.00000E+00  1.09345E-01
      21    -1     0     0   502   511  0.000000000E+00  0.000000000E+00  1.862574692E+02  1.862574692E+02  0.000000000E+00  0.00000E+00  9.000E+00
      21    -1     0     0   501   502  0.000000000E+00  0.000000000E+00 -8.136132908E+02  8.136132908E+02  0.000000000E+00  0.00000E+00  9.000E+00
      25     1     1     2     0     0  2.776299976E+02  5.055411952E+01 -5.157994837E+02  6.010892130E+02  1.250000000E+02  0.00000E+00  9.000E+00
      25     1     1     2     0     0 -6.618449076E+01  4.512389863E+01 -6.501622942E+01  1.620761029E+02  1.250000000E+02  0.00000E+00  9.000E+00
      21     1     1     2   501   511 -2.114455069E+02 -9.567801816E+01 -4.654010845E+01  2.367054440E+02  5.560829062E-06  0.00000E+00  9.000E+00
#rwgt            1           1   3.3384849870603507E-002           3      387580           0
</event>
<event>
      5   9999  3.79277E-02  2.90557E+01 -1.00000E+00  1.54011E-01
      21    -1     0     0   502   501  0.000000000E+00  0.000000000E+00  1.172053180E+02  1.172053180E+02  0.000000000E+00  0.00000E+00  9.000E+00
      21    -1     0     0   512   502  0.000000000E+00  0.000000000E+00 -9.572920128E+02  9.572920128E+02  0.000000000E+00  0.00000E+00  9.000E+00
      25     1     1     2     0     0 -1.933053696E+01 -1.154855305E+02 -1.524649743E+02  2.293057910E+02  1.250000000E+02  0.00000E+00  9.000E+00
      25     1     1     2     0     0  7.868044262E+00  1.421846802E+02 -3.593733670E+01  1.928597458E+02  1.250000000E+02  0.00000E+00  9.000E+00
      21     1     1     2   512   501  1.146249269E+01 -2.669914968E+01 -6.516843838E+02  6.523317940E+02  7.629394531E-06  0.00000E+00  9.000E+00
#rwgt            1           1   4.2478666225554837E-002           3      387655           0
</event>
<event>
      5   9999  3.79277E-02  7.71143E+00 -1.00000E+00  2.09779E-01
      21    -1     0     0   502   501  0.000000000E+00  0.000000000E+00  1.566608754E+02  1.566608754E+02  0.000000000E+00  0.00000E+00  9.000E+00
      21    -1     0     0   501   511  0.000000000E+00  0.000000000E+00 -4.245438965E+02  4.245438965E+02  0.000000000E+00  0.00000E+00  9.000E+00
      25     1     1     2     0     0 -9.406278580E+01  9.465988256E+01 -2.102620726E+02  2.786457253E+02  1.250000000E+02  0.00000E+00  9.000E+00
      25     1     1     2     0     0  9.917067764E+01 -1.004370417E+02  4.968451315E+01  1.949768538E+02  1.250000000E+02  0.00000E+00  9.000E+00
      21     1     1     2   502   511 -5.107891834E+00  5.777159169E+00 -1.073054617E+02  1.075821930E+02  1.348699152E-06  0.00000E+00  9.000E+00
#rwgt            1           1   4.4595168136262915E-002           3      387792           0
</event>
<event>
      5   9999  3.79277E-02  2.53719E+01 -1.00000E+00  1.58272E-01
      21    -1     0     0   502   501  0.000000000E+00  0.000000000E+00  1.871287343E+02  1.871287343E+02  0.000000000E+00  0.00000E+00  9.000E+00
      -4    -1     0     0     0   502  0.000000000E+00  0.000000000E+00 -7.699707990E+02  7.699707990E+02  0.000000000E+00  0.00000E+00  9.000E+00
      25     1     1     2     0     0  3.603118631E+01  1.256620801E+02 -1.427702045E+02  2.304290261E+02  1.250000000E+02  0.00000E+00  9.000E+00
      25     1     1     2     0     0 -6.128312971E+01 -1.281260316E+02  8.040406342E+01  2.055765438E+02  1.250000000E+02  0.00000E+00  9.000E+00
      -4     1     1     2     0   501  2.525194339E+01  2.463951503E+00 -5.204759236E+02  5.210939634E+02  0.000000000E+00  0.00000E+00  9.000E+00
#rwgt            1           1   3.5301057390715859E-002           3      388054           0
</event>
<event>
      5   9999  3.79277E-02  3.51058E+01 -1.00000E+00  1.48445E-01
      21    -1     0     0   502   501  0.000000000E+00  0.000000000E+00  1.427999405E+02  1.427999405E+02  0.000000000E+00  0.00000E+00  9.000E+00
      21    -1     0     0   501   511  0.000000000E+00  0.000000000E+00 -7.674087180E+02  7.674087180E+02  0.000000000E+00  0.00000E+00  9.000E+00
      25     1     1     2     0     0  1.160727244E+01  1.511847807E+02  1.745386874E+01  1.972845767E+02  1.250000000E+02  0.00000E+00  9.000E+00
      25     1     1     2     0     0 -1.716560455E+01 -1.858477365E+02 -3.318337683E+02  4.007152217E+02  1.250000000E+02  0.00000E+00  9.000E+00
      21     1     1     2   502   511  5.558332107E+00  3.466295579E+01 -3.102288780E+02  3.122088601E+02  3.814697266E-06  0.00000E+00  9.000E+00
#rwgt            1           1   3.5825480395608011E-002           3      388387           0
</event>
<event>
      5   9999  3.79277E-02  1.21562E+02 -1.00000E+00  1.20130E-01
      21    -1     0     0   502   501  0.000000000E+00  0.000000000E+00  3.393808384E+02  3.393808384E+02  0.000000000E+00  0.00000E+00  9.000E+00
      21    -1     0     0   501   512  0.000000000E+00  0.000000000E+00 -3.683657285E+02  3.683657285E+02  0.000000000E+00  0.00000E+00  9.000E+00
      25     1     1     2     0     0  1.215218043E+02  1.477544106E+02 -3.653969428E+01  2.314283129E+02  1.250000000E+02  0.00000E+00  9.000E+00
      25     1     1     2     0     0 -1.782485959E+02 -4.023974110E+01  1.659246541E+02  2.766727120E+02  1.250000000E+02  0.00000E+00  9.000E+00
      21     1     1     2   502   512  5.672679165E+01 -1.075146695E+02 -1.583698499E+02  1.996455419E+02  2.697398305E-06  0.00000E+00  9.000E+00
#rwgt            2          11   2.1924793163552907E-003           3      388568           0
</event>
<event>
      5   9999 -3.79277E-02  1.85063E+02 -1.00000E+00  1.12889E-01
      21    -1     0     0   502   501  0.000000000E+00  0.000000000E+00  2.370097911E+02  2.370097911E+02  0.000000000E+00  0.00000E+00  9.000E+00
      21    -1     0     0   511   502  0.000000000E+00  0.000000000E+00 -2.875184822E+03  2.875184822E+03  0.000000000E+00  0.00000E+00  9.000E+00
      25     1     1     2     0     0  1.369773673E+02 -1.446452142E+01 -9.933954234E+00  1.862678313E+02  1.250000000E+02  0.00000E+00  9.000E+00
      25     1     1     2     0     0 -2.855793251E+02  1.247632948E+02 -4.815576476E+01  3.392129248E+02  1.250000000E+02  0.00000E+00  9.000E+00
      21     1     1     2   511   501  1.486019578E+02 -1.102987734E+02 -2.580085311E+03  2.586713857E+03  3.051757812E-05  0.00000E+00  9.000E+00
#rwgt            1           1 -0.17524700200806198                3      388603           0
</event>
<event>
      5   9999  3.79277E-02  7.77953E+01 -1.00000E+00  1.28940E-01
      21    -1     0     0   502   501  0.000000000E+00  0.000000000E+00  7.381654748E+01  7.381654748E+01  0.000000000E+00  0.00000E+00  9.000E+00
      21    -1     0     0   512   502  0.000000000E+00  0.000000000E+00 -8.756068833E+02  8.756068833E+02  0.000000000E+00  0.00000E+00  9.000E+00
      25     1     1     2     0     0  3.975241716E+01 -7.576712187E+00 -6.024671117E+02  6.166273444E+02  1.250000000E+02  0.00000E+00  9.000E+00
      25     1     1     2     0     0 -4.514058019E+01  8.518520823E+01 -5.201439684E+01  1.662067663E+02  1.250000000E+02  0.00000E+00  9.000E+00
      21     1     1     2   512   501  5.388163028E+00 -7.760849604E+01 -1.473088273E+02  1.665893201E+02  3.814697266E-06  0.00000E+00  9.000E+00
#rwgt            1           1   4.5841452994766337E-002           3      388652           0
</event>
<event>
      5   9999  3.79277E-02  3.43157E+01 -1.00000E+00  1.49093E-01
       2    -1     0     0   502     0  0.000000000E+00  0.000000000E+00  2.420633635E+02  2.420633635E+02  0.000000000E+00  0.00000E+00  9.000E+00
      21    -1     0     0   501   502  0.000000000E+00  0.000000000E+00 -7.118663796E+02  7.118663796E+02  0.000000000E+00  0.00000E+00  9.000E+00
      25     1     1     2     0     0 -1.201177647E+02 -4.713774797E+01 -2.941270939E+02  3.446534376E+02  1.250000000E+02  0.00000E+00  9.000E+00
      25     1     1     2     0     0  9.420858689E+01  6.963843712E+01 -3.722232022E+02  4.097558810E+02  1.250000000E+02  0.00000E+00  9.000E+00
       2     1     1     2   501     0  2.590917783E+01 -2.250068915E+01  1.965472800E+02  1.995204245E+02  5.394796609E-06  0.00000E+00  9.000E+00
#rwgt            1           1   4.6116683238901390E-002           3      388790           0
</event>
<event>
      5   9999  3.79277E-02  8.25425E+00 -1.00000E+00  2.05910E-01
      21    -1     0     0   502   501  0.000000000E+00  0.000000000E+00  4.527029806E+01  4.527029806E+01  0.000000000E+00  0.00000E+00  9.000E+00
      21    -1     0     0   511   502  0.000000000E+00  0.000000000E+00 -6.801033017E+02  6.801033017E+02  0.000000000E+00  0.00000E+00  9.000E+00
      25     1     1     2     0     0 -2.775791856E+01  1.009504554E+02 -4.180468336E+02  4.487200147E+02  1.250000000E+02  0.00000E+00  9.000E+00
      25     1     1     2     0     0  3.454192534E+01 -9.624834129E+01 -1.940325370E+02  2.524490310E+02  1.250000000E+02  0.00000E+00  9.000E+00
      21     1     1     2   511   501 -6.784006775E+00 -4.702114119E+00 -2.275363294E+01  2.420455405E+01  3.371747881E-07  0.00000E+00  9.000E+00
#rwgt            1           1   5.1311726079368326E-002           3      389025           0
</event>
<event>
      5   9999 -5.36070E-02  2.76933E+01 -1.00000E+00  1.55493E-01
      21    -1     0     0   512   501  0.000000000E+00  0.000000000E+00  1.273092481E+02  1.273092481E+02  0.000000000E+00  0.00000E+00  9.000E+00
      21    -1     0     0   501   502  0.000000000E+00  0.000000000E+00 -8.461805694E+02  8.461805694E+02  0.000000000E+00  0.00000E+00  9.000E+00
      25     1     1     2     0     0 -3.976258291E+01  1.985700804E+02 -3.540798830E+02  4.266247806E+02  1.250000000E+02  0.00000E+00  9.000E+00
      25     1     1     2     0     0  1.356087729E+01 -1.896041816E+02 -4.241788573E+02  4.813380787E+02  1.250000000E+02  0.00000E+00  9.000E+00
      21     1     1     2   512   502  2.620170562E+01 -8.965898827E+00  5.938741905E+01  6.552695827E+01  1.168007728E-06  0.00000E+00  9.000E+00
#rwgt            1           1 -0.63821257137927534                3      389348           0
</event>
<event>
      5   9999  3.79277E-02  5.25691E+01 -1.00000E+00  1.37845E-01
      21    -1     0     0   502   501  0.000000000E+00  0.000000000E+00  4.330734126E+02  4.330734126E+02  0.000000000E+00  0.00000E+00  9.000E+00
      21    -1     0     0   501   511  0.000000000E+00  0.000000000E+00 -1.024152158E+02  1.024152158E+02  0.000000000E+00  0.00000E+00  9.000E+00
      25     1     1     2     0     0 -6.370135067E+00 -6.120776018E+01  2.724736748E+02  3.060292012E+02  1.250000000E+02  0.00000E+00  9.000E+00
      25     1     1     2     0     0  9.202356785E+00  1.137005111E+02  4.812980276E+01  1.759373966E+02  1.250000000E+02  0.00000E+00  9.000E+00
      21     1     1     2   502   511 -2.832221718E+00 -5.249275095E+01  1.005471922E+01  5.352203061E+01  0.000000000E+00  0.00000E+00  9.000E+00
#rwgt            1           1   3.6167840748698596E-002           3      389550           0
</event>
<event>
      5   9999  3.79277E-02  3.36473E+02 -1.00000E+00  1.03998E-01
      21    -1     0     0   502   512  0.000000000E+00  0.000000000E+00  1.082417399E+03  1.082417399E+03  0.000000000E+00  0.00000E+00  9.000E+00
      21    -1     0     0   501   502  0.000000000E+00  0.000000000E+00 -2.256013660E+02  2.256013660E+02  0.000000000E+00  0.00000E+00  9.000E+00
      25     1     1     2     0     0 -6.519876539E+01  2.301842214E+02  1.805490363E+02  3.247439134E+02  1.250000000E+02  0.00000E+00  9.000E+00
      25     1     1     2     0     0  3.152919812E+02 -5.090207883E+00  1.808640298E+02  3.844109011E+02  1.250000000E+02  0.00000E+00  9.000E+00
      21     1     1     2   501   512 -2.500932158E+02 -2.250940135E+02  4.954029667E+02  5.988639502E+02  9.344061824E-06  0.00000E+00  9.000E+00
#rwgt            2          11   8.8621515680680852E-004           3      389736           0
</event>
<event>
      5   9999 -3.79277E-02  2.98278E+01 -1.00000E+00  1.53214E-01
      21    -1     0     0   502   511  0.000000000E+00  0.000000000E+00  2.986522040E+02  2.986522040E+02  0.000000000E+00  0.00000E+00  9.000E+00
      21    -1     0     0   501   502  0.000000000E+00  0.000000000E+00 -3.108609278E+02  3.108609278E+02  0.000000000E+00  0.00000E+00  9.000E+00
      25     1     1     2     0     0 -7.258254056E+01  1.934570745E+02 -1.612192341E+02  2.903627151E+02  1.250000000E+02  0.00000E+00  9.000E+00
      25     1     1     2     0     0  1.024051054E+02 -1.928972805E+02  1.256488057E+02  2.812628465E+02  1.250000000E+02  0.00000E+00  9.000E+00
      21     1     1     2   501   511 -2.982256484E+01 -5.597940196E-01  2.336170459E+01  3.788757031E+01  4.768371582E-07  0.00000E+00  9.000E+00
#rwgt            1           1 -0.12911818393107374                3      389831           0
</event>
<event>
      5   9999  3.79277E-02  3.16384E+01 -1.00000E+00  1.51453E-01
      21    -1     0     0   502   501  0.000000000E+00  0.000000000E+00  3.503694901E+02  3.503694901E+02  0.000000000E+00  0.00000E+00  9.000E+00
      21    -1     0     0   501   512  0.000000000E+00  0.000000000E+00 -1.837933773E+02  1.837933773E+02  0.000000000E+00  0.00000E+00  9.000E+00
      25     1     1     2     0     0 -1.012798087E+02  5.172504848E+01  2.762438448E+01  1.712343041E+02  1.250000000E+02  0.00000E+00  9.000E+00
      25     1     1     2     0     0  6.964344166E+01 -5.136868979E+01  2.248296578E+02  2.714080439E+02  1.250000000E+02  0.00000E+00  9.000E+00
      21     1     1     2   502   512  3.163636704E+01 -3.563586901E-01 -8.587792947E+01  9.152051946E+01  9.536743164E-07  0.00000E+00  9.000E+00
#rwgt            1           1   4.1296897846419822E-002           3      389959           0
</event>
<event>
      5   9999 -3.79277E-02  1.78302E+02 -1.00000E+00  1.13494E-01
      21    -1     0     0   502   501  0.000000000E+00  0.000000000E+00  8.626283988E+01  8.626283988E+01  0.000000000E+00  0.00000E+00  9.000E+00
       2    -1     0     0   501     0  0.000000000E+00  0.000000000E+00 -1.696236186E+03  1.696236186E+03  0.000000000E+00  0.00000E+00  9.000E+00
      25     1     1     2     0     0 -1.397682409E+02  3.518732134E+00 -3.116052483E+02  3.636899413E+02  1.250000000E+02  0.00000E+00  9.000E+00
      25     1     1     2     0     0 -3.533808591E+01  3.008622551E+01 -2.832753711E+01  1.363136480E+02  1.250000000E+02  0.00000E+00  9.000E+00
       2     1     1     2   502     0  1.751063268E+02 -3.360495765E+01 -1.270040561E+03  1.282495437E+03  2.157918644E-05  0.00000E+00  9.000E+00
#rwgt            1           1  -8.2009628833350640E-002           3      390200           0
</event>
<event>
      5   9999  3.79277E-02  3.74433E+01 -1.00000E+00  1.46642E-01
      21    -1     0     0   502   501  0.000000000E+00  0.000000000E+00  2.785761842E+02  2.785761842E+02  0.000000000E+00  0.00000E+00  9.000E+00
      21    -1     0     0   501   511  0.000000000E+00  0.000000000E+00 -1.710812635E+02  1.710812635E+02  0.000000000E+00  0.00000E+00  9.000E+00
      25     1     1     2     0     0  4.976252023E+01 -4.570227616E+01  2.069552240E+02  2.510387842E+02  1.250000000E+02  0.00000E+00  9.000E+00
      25     1     1     2     0     0 -2.920208350E+01  1.440903370E+01 -5.473786491E+01  1.402911821E+02  1.250000000E+02  0.00000E+00  9.000E+00
      21     1     1     2   502   511 -2.056043673E+01  3.129324247E+01 -4.472243833E+01  5.832748128E+01  9.536743164E-07  0.00000E+00  9.000E+00
#rwgt            1           1   3.8965936526233008E-002           3      390415           0
</event>
<event>
      5   9999 -3.79277E-02  7.35329E+01 -1.00000E+00  1.30147E-01
      21    -1     0     0   502   512  0.000000000E+00  0.000000000E+00  1.828432453E+02  1.828432453E+02  0.000000000E+00  0.00000E+00  9.000E+00
      21    -1     0     0   501   502  0.000000000E+00  0.000000000E+00 -3.918386871E+02  3.918386871E+02  0.000000000E+00  0.00000E+00  9.000E+00
      25     1     1     2     0     0 -6.327687073E+01 -8.420456711E+01  7.488701659E+01  1.797983224E+02  1.250000000E+02  0.00000E+00  9.000E+00
      25     1     1     2     0     0  1.054781226E+01  1.354563067E+02 -2.573223847E+02  3.167009268E+02  1.250000000E+02  0.00000E+00  9.000E+00
      21     1     1     2   501   512  5.272905847E+01 -5.125173964E+01 -2.656007371E+01  7.818268311E+01  1.011524364E-06  0.00000E+00  9.000E+00
#rwgt            1           1 -0.10682356228536569                3      390487           0
</event>
<event>
      5   9999  3.79277E-02  1.45449E+02 -1.00000E+00  1.16926E-01
      21    -1     0     0   502   501  0.000000000E+00  0.000000000E+00  7.029879536E+02  7.029879536E+02  0.000000000E+00  0.00000E+00  9.000E+00
       1    -1     0     0   501     0  0.000000000E+00  0.000000000E+00 -7.986631020E+02  7.986631020E+02  0.000000000E+00  0.00000E+00  9.000E+00
      25     1     1     2     0     0 -6.000643783E+01 -6.494043558E+01  4.275784267E+02  4.541655466E+02  1.250000000E+02  0.00000E+00  9.000E+00
      25     1     1     2     0     0  2.047569531E+02  5.070542388E+01  1.958541971E+02  3.138157364E+02  1.250000000E+02  0.00000E+00  9.000E+00
       1     1     1     2   502     0 -1.447505153E+02  1.423501170E+01 -7.191077722E+02  7.336697726E+02  7.629394531E-06  0.00000E+00  9.000E+00
#rwgt            1           1   2.3477504546245025E-002           3      390593           0
</event>
<event>
      5   9999  3.79277E-02  6.17115E+01 -1.00000E+00  1.34054E-01
      21    -1     0     0   502   501  0.000000000E+00  0.000000000E+00  1.391408660E+02  1.391408660E+02  0.000000000E+00  0.00000E+00  9.000E+00
      21    -1     0     0   501   511  0.000000000E+00  0.000000000E+00 -4.265521371E+02  4.265521371E+02  0.000000000E+00  0.00000E+00  9.000E+00
      25     1     1     2     0     0 -1.198552226E+02 -3.118785580E+01 -2.724986521E+01  1.780604164E+02  1.250000000E+02  0.00000E+00  9.000E+00
      25     1     1     2     0     0  1.639795733E+02  7.433116781E+01 -1.655528628E+02  2.746764886E+02  1.250000000E+02  0.00000E+00  9.000E+00
      21     1     1     2   502   511 -4.412435073E+01 -4.314331201E+01 -9.460854307E+01  1.129560982E+02  1.348699152E-06  0.00000E+00  9.000E+00
#rwgt            1           1   4.0562383760548062E-002           3      390668           0
</event>
<event>
      5   9999  3.79277E-02  8.73788E+01 -1.00000E+00  1.26522E-01
      21    -1     0     0   502   512  0.000000000E+00  0.000000000E+00  2.517566134E+03  2.517566134E+03  0.000000000E+00  0.00000E+00  9.000E+00
      21    -1     0     0   501   502  0.000000000E+00  0.000000000E+00 -2.482416903E+02  2.482416903E+02  0.000000000E+00  0.00000E+00  9.000E+00
      25     1     1     2     0     0 -1.353205208E+02  8.498774835E+01 -4.869340075E+01  2.086399003E+02  1.250000000E+02  0.00000E+00  9.000E+00
      25     1     1     2     0     0  2.061401216E+02 -3.380538582E+01  6.011684326E+00  2.435111787E+02  1.250000000E+02  0.00000E+00  9.000E+00
      21     1     1     2   501   512 -7.081960080E+01 -5.118236253E+01  2.312006160E+03  2.313656745E+03  0.000000000E+00  0.00000E+00  9.000E+00
#rwgt            1           1   4.3867512202753603E-002           3      390799           0
</event>
<event>
      5   9999  3.79277E-02  1.14100E+02 -1.00000E+00  1.21305E-01
      -2    -1     0     0     0   501  0.000000000E+00  0.000000000E+00  3.692422508E+02  3.692422508E+02  0.000000000E+00  0.00000E+00  9.000E+00
      21    -1     0     0   501   502  0.000000000E+00  0.000000000E+00 -2.589114426E+02  2.589114426E+02  0.000000000E+00  0.00000E+00  9.000E+00
      25     1     1     2     0     0 -1.414762640E+01  1.161020003E+02  1.240089641E+01  1.716351131E+02  1.250000000E+02  0.00000E+00  9.000E+00
      25     1     1     2     0     0  1.124699778E+02 -5.821042674E+01 -1.171536589E+02  2.130444308E+02  1.250000000E+02  0.00000E+00  9.000E+00
      -2     1     1     2     0   502 -9.832235139E+01 -5.789157360E+01  2.150835708E+02  2.434741495E+02  2.697398305E-06  0.00000E+00  9.000E+00
#rwgt            1           1   4.3451529113491989E-002           3      390913           0
</event>
<event>
      5   9999  3.79277E-02  2.94862E+01 -1.00000E+00  1.53563E-01
      21    -1     0     0   502   501  0.000000000E+00  0.000000000E+00  1.661605762E+02  1.661605762E+02  0.000000000E+00  0.00000E+00  9.000E+00
       2    -1     0     0   501     0  0.000000000E+00  0.000000000E+00 -1.877012649E+03  1.877012649E+03  0.000000000E+00  0.00000E+00  9.000E+00
      25     1     1     2     0     0  1.460955752E+02 -9.385177602E+01 -1.101069778E+02  2.406254756E+02  1.250000000E+02  0.00000E+00  9.000E+00
      25     1     1     2     0     0 -1.635011577E+02  7.005084620E+01 -1.650166287E+01  2.180299394E+02  1.250000000E+02  0.00000E+00  9.000E+00
       2     1     1     2   502     0  1.740558247E+01  2.380092982E+01 -1.584243432E+03  1.584517810E+03  2.157918644E-05  0.00000E+00  9.000E+00
#rwgt            1           1   3.8736099421505132E-002           3      390964           0
</event>
<event>
      5   9999  3.79277E-02  4.22365E+01 -1.00000E+00  1.43390E-01
      21    -1     0     0   502   511  0.000000000E+00  0.000000000E+00  8.226540711E+01  8.226540711E+01  0.000000000E+00  0.00000E+00  9.000E+00
      21    -1     0     0   501   502  0.000000000E+00  0.000000000E+00 -1.512845790E+03  1.512845790E+03  0.000000000E+00  0.00000E+00  9.000E+00
      25     1     1     2     0     0  1.798484609E+01  7.219208965E+01 -1.202239110E+03  1.211007444E+03  1.250000000E+02  0.00000E+00  9.000E+00
      25     1     1     2     0     0  2.354759558E+01 -6.451234129E+01 -2.818816872E+02  3.159091911E+02  1.250000000E+02  0.00000E+00  9.000E+00
      21     1     1     2   501   511 -4.153244167E+01 -7.679748365E+00  5.354041448E+01  6.819456157E+01  9.536743164E-07  0.00000E+00  9.000E+00
#rwgt            1           1   3.3558501318729970E-002           3      391226           0
</event>
<event>
      5   9999  3.79277E-02  1.32628E+01 -1.00000E+00  1.82572E-01
      21    -1     0     0   512   501  0.000000000E+00  0.000000000E+00  2.360804344E+02  2.360804344E+02  0.000000000E+00  0.00000E+00  9.000E+00
      21    -1     0     0   501   502  0.000000000E+00  0.000000000E+00 -1.930033577E+02  1.930033577E+02  0.000000000E+00  0.00000E+00  9.000E+00
      25     1     1     2     0     0  3.255411245E+01 -4.350797535E+01  1.563774135E+02  2.074406171E+02  1.250000000E+02  0.00000E+00  9.000E+00
      25     1     1     2     0     0 -1.949400094E+01  4.581784645E+01 -1.385431835E+02  1.931282082E+02  1.250000000E+02  0.00000E+00  9.000E+00
      21     1     1     2   512   502 -1.306011152E+01 -2.309871103E+00  2.524284672E+01  2.851496673E+01  4.768371582E-07  0.00000E+00  9.000E+00
#rwgt            1           1   5.0818034567263227E-002           3      391338           0
</event>
<event>
      5   9999  3.79277E-02  1.84479E+01 -1.00000E+00  1.69317E-01
       2    -1     0     0   502     0  0.000000000E+00  0.000000000E+00  1.218045328E+03  1.218045328E+03  0.000000000E+00  0.00000E+00  9.000E+00
      21    -1     0     0   501   502  0.000000000E+00  0.000000000E+00 -9.549237261E+01  9.549237261E+01  0.000000000E+00  0.00000E+00  9.000E+00
      25     1     1     2     0     0  2.304568331E+02  1.076434920E+02  3.204083681E+02  4.277662862E+02  1.250000000E+02  0.00000E+00  9.000E+00
      25     1     1     2     0     0 -2.462699689E+02 -1.171445127E+02  5.002007155E+02  5.832645114E+02  1.250000000E+02  0.00000E+00  9.000E+00
       2     1     1     2   501     0  1.581313584E+01  9.501020717E+00  3.019438716E+02  3.025069028E+02  0.000000000E+00  0.00000E+00  9.000E+00
#rwgt            1           1   3.3423122945206350E-002           3      391559           0
</event>
<event>
      5   9999 -3.79277E-02  1.73224E+01 -1.00000E+00  1.71690E-01
      21    -1     0     0   502   501  0.000000000E+00  0.000000000E+00  4.966874027E+02  4.966874027E+02  0.000000000E+00  0.00000E+00  9.000E+00
      21    -1     0     0   511   502  0.000000000E+00  0.000000000E+00 -9.866025252E+01  9.866025252E+01  0.000000000E+00  0.00000E+00  9.000E+00
      25     1     1     2     0     0  1.408823784E+02 -2.323821811E+01  1.092666063E+02  2.189795665E+02  1.250000000E+02  0.00000E+00  9.000E+00
      25     1     1     2     0     0 -1.516377694E+02  9.659302432E+00  2.977240314E+02  3.568639995E+02  1.250000000E+02  0.00000E+00  9.000E+00
      21     1     1     2   511   501  1.075539104E+01  1.357891568E+01 -8.963487508E+00  1.950408921E+01  1.192092896E-07  0.00000E+00  9.000E+00
#rwgt            1           1 -0.13392081680988349                3      391847           0
</event>
<event>
      5   9999 -3.79277E-02  1.70573E+01 -1.00000E+00  1.72282E-01
      21    -1     0     0   502   501  0.000000000E+00  0.000000000E+00  5.717138087E+01  5.717138087E+01  0.000000000E+00  0.00000E+00  9.000E+00
      21    -1     0     0   512   502  0.000000000E+00  0.000000000E+00 -1.503247567E+03  1.503247567E+03  0.000000000E+00  0.00000E+00  9.000E+00
      25     1     1     2     0     0  1.348954757E+02  2.110155198E+02 -6.867900172E+02  7.416399845E+02  1.250000000E+02  0.00000E+00  9.000E+00
      25     1     1     2     0     0 -1.214117395E+02 -2.214624733E+02 -6.541276576E+02  7.122460459E+02  1.250000000E+02  0.00000E+00  9.000E+00
      21     1     1     2   512   501 -1.348373621E+01  1.044695349E+01 -1.051585112E+02  1.065329172E+02  1.907348633E-06  0.00000E+00  9.000E+00
#rwgt            1           1 -0.13500573000316499                3      392165           0
</event>
<event>
      5   9999  3.79277E-02  1.06216E+02 -1.00000E+00  1.22661E-01
      21    -1     0     0   502   501  0.000000000E+00  0.000000000E+00  2.886895748E+02  2.886895748E+02  0.000000000E+00  0.00000E+00  9.000E+00
      21    -1     0     0   501   511  0.000000000E+00  0.000000000E+00 -1.907031331E+02  1.907031331E+02  0.000000000E+00  0.00000E+00  9.000E+00
      25     1     1     2     0     0 -5.844031003E+01 -7.946523064E+01  8.911222028E+01  1.824718623E+02  1.250000000E+02  0.00000E+00  9.000E+00
      25     1     1     2     0     0  1.425750079E+02  1.463259747E+01 -1.665259185E+00  1.901828564E+02  1.250000000E+02  0.00000E+00  9.000E+00
      21     1     1     2   502   511 -8.413469784E+01  6.483263317E+01  1.053948064E+01  1.067379893E+02  2.230201594E-06  0.00000E+00  9.000E+00
#rwgt            1           1   2.6929403939476997E-002           3      392388           0
</event>
<event>
      5   9999  3.79277E-02  3.85968E+01 -1.00000E+00  1.45809E-01
      21    -1     0     0   502   501  0.000000000E+00  0.000000000E+00  3.606885136E+01  3.606885136E+01  0.000000000E+00  0.00000E+00  9.000E+00
       2    -1     0     0   501     0  0.000000000E+00  0.000000000E+00 -2.114249984E+03  2.114249984E+03  0.000000000E+00  0.00000E+00  9.000E+00
      25     1     1     2     0     0  4.179933687E+01  1.929264592E+02 -7.389643741E+02  7.750233219E+02  1.250000000E+02  0.00000E+00  9.000E+00
      25     1     1     2     0     0 -9.688936628E+00 -2.143422348E+02 -1.284823769E+03  1.308599857E+03  1.250000000E+02  0.00000E+00  9.000E+00
       2     1     1     2   502     0 -3.211040024E+01  2.141577564E+01 -5.439298958E+01  6.669565627E+01  1.348699152E-06  0.00000E+00  9.000E+00
#rwgt            1           1  0.12526400318925421                3      392459           0
</event>
<event>
      5   9999  3.79277E-02  9.35830E+01 -1.00000E+00  1.25137E-01
      21    -1     0     0   502   501  0.000000000E+00  0.000000000E+00  8.656255721E+01  8.656255721E+01  0.000000000E+00  0.00000E+00  9.000E+00
       2    -1     0     0   501     0  0.000000000E+00  0.000000000E+00 -3.180905347E+03  3.180905347E+03  0.000000000E+00  0.00000E+00  9.000E+00
      25     1     1     2     0     0  1.264168254E+02  7.333676498E+01 -1.174916416E+02  2.253636632E+02  1.250000000E+02  0.00000E+00  9.000E+00
      25     1     1     2     0     0 -6.545973132E+01 -1.443438816E+02 -2.883860191E+02  3.520108359E+02  1.250000000E+02  0.00000E+00  9.000E+00
       2     1     1     2   502     0 -6.095709408E+01  7.100711664E+01 -2.688465129E+03  2.690093405E+03  0.000000000E+00  0.00000E+00  9.000E+00
#rwgt            1           1   4.6979958444321596E-002           3      392722           0
</event>
<event>
      5   9999  3.79277E-02  9.52772E+01 -1.00000E+00  1.24780E-01
      21    -1     0     0   502   511  0.000000000E+00  0.000000000E+00  9.561916712E+02  9.561916712E+02  0.000000000E+00  0.00000E+00  9.000E+00
      21    -1     0     0   501   502  0.000000000E+00  0.000000000E+00 -8.493793492E+01  8.493793492E+01  0.000000000E+00  0.00000E+00  9.000E+00
      25     1     1     2     0     0  9.970059986E+00  7.325863492E+01  2.017546584E+01  1.466229147E+02  1.250000000E+02  0.00000E+00  9.000E+00
      25     1     1     2     0     0  8.025496096E+01 -4.264498812E+01  3.250487490E+02  3.599182449E+02  1.250000000E+02  0.00000E+00  9.000E+00
      21     1     1     2   501   511 -9.022502095E+01 -3.061364680E+01  5.260295215E+02  5.345884466E+02  7.629394531E-06  0.00000E+00  9.000E+00
#rwgt            1           1   3.2275399665543124E-002           3      392863           0
</event>
<event>
      5   9999  3.79277E-02  6.66692E+01 -1.00000E+00  1.32302E-01
      21    -1     0     0   502   512  0.000000000E+00  0.000000000E+00  4.366982826E+02  4.366982826E+02  0.000000000E+00  0.00000E+00  9.000E+00
      21    -1     0     0   501   502  0.000000000E+00  0.000000000E+00 -1.649974471E+02  1.649974471E+02  0.000000000E+00  0.00000E+00  9.000E+00
      25     1     1     2     0     0  8.273504262E+01 -1.278529811E+02  6.363094021E+01  2.070395339E+02  1.250000000E+02  0.00000E+00  9.000E+00
      25     1     1     2     0     0 -1.331968601E+02  1.714235105E+02  1.043763458E+02  2.713795221E+02  1.250000000E+02  0.00000E+00  9.000E+00
      21     1     1     2   501   512  5.046181750E+01 -4.357052937E+01  1.036935495E+02  1.232766737E+02  1.348699152E-06  0.00000E+00  9.000E+00
#rwgt            1           1   3.2261250578944363E-002           3      393097           0
</event>
<event>
      5   9999  3.79277E-02  4.22780E+01 -1.00000E+00  1.43364E-01
       1    -1     0     0   502     0  0.000000000E+00  0.000000000E+00  1.042730875E+03  1.042730875E+03  0.000000000E+00  0.00000E+00  9.000E+00
      21    -1     0     0   501   502  0.000000000E+00  0.000000000E+00 -3.788039478E+02  3.788039478E+02  0.000000000E+00  0.00000E+00  9.000E+00
      25     1     1     2     0     0  1.203601475E+02 -6.961827516E+01 -2.208450136E+02  2.893627298E+02  1.250000000E+02  0.00000E+00  9.000E+00
      25     1     1     2     0     0 -1.373597475E+02  3.090855364E+01 -5.130444472E+01  1.951414486E+02  1.250000000E+02  0.00000E+00  9.000E+00
       1     1     1     2   501     0  1.699959996E+01  3.870972151E+01  9.360763853E+02  9.370306441E+02  1.078959322E-05  0.00000E+00  9.000E+00
#rwgt            1           1   3.7521910218107607E-002           3      393238           0
</event>
<event>
      5   9999  3.79277E-02  2.43483E+01 -1.00000E+00  1.59615E-01
      21    -1     0     0   502   511  0.000000000E+00  0.000000000E+00  1.865562294E+03  1.865562294E+03  0.000000000E+00  0.00000E+00  9.000E+00
      21    -1     0     0   501   502  0.000000000E+00  0.000000000E+00 -3.582954984E+01  3.582954984E+01  0.000000000E+00  0.00000E+00  9.000E+00
      25     1     1     2     0     0 -1.182186833E+02 -8.707137507E+01  3.176120158E+02  3.715635531E+02  1.250000000E+02  0.00000E+00  9.000E+00
      25     1     1     2     0     0  1.424813470E+02  8.503071698E+01  1.354452414E+03  1.370291027E+03  1.250000000E+02  0.00000E+00  9.000E+00
      21     1     1     2   501   511 -2.426266378E+01  2.040658088E+00  1.576683146E+02  1.595372639E+02  3.814697266E-06  0.00000E+00  9.000E+00
#rwgt            1           1  0.22553748027461362                3      393377           0
</event>
<event>
      5   9999  3.79277E-02  2.29894E+01 -1.00000E+00  1.61527E-01
      21    -1     0     0   502   501  0.000000000E+00  0.000000000E+00  6.049538837E+01  6.049538837E+01  0.000000000E+00  0.00000E+00  9.000E+00
      21    -1     0     0   501   512  0.000000000E+00  0.000000000E+00 -8.163060201E+02  8.163060201E+02  0.000000000E+00  0.00000E+00  9.000E+00
      25     1     1     2     0     0  1.287205293E+02  3.185459161E+01 -5.051417546E+02  5.370073388E+02  1.250000000E+02  0.00000E+00  9.000E+00
      25     1     1     2     0     0 -1.402957961E+02 -5.171726561E+01 -1.793322073E+02  2.648445328E+02  1.250000000E+02  0.00000E+00  9.000E+00
      21     1     1     2   502   512  1.157526674E+01  1.986267400E+01 -7.133666991E+01  7.494953697E+01  1.651812370E-06  0.00000E+00  9.000E+00
#rwgt            1           1   3.8090949065038619E-002           3      393653           0
</event>
<event>
      5   9999  3.79277E-02  7.80542E+00 -1.00000E+00  2.09079E-01
      21    -1     0     0   502   501  0.000000000E+00  0.000000000E+00  8.983628643E+01  8.983628643E+01  0.000000000E+00  0.00000E+00  9.000E+00
      21    -1     0     0   501   511  0.000000000E+00  0.000000000E+00 -5.983655374E+02  5.983655374E+02  0.000000000E+00  0.00000E+00  9.000E+00
      25     1     1     2     0     0 -8.456192858E+01 -4.612982133E+01 -2.559328079E+01  1.598708735E+02  1.250000000E+02  0.00000E+00  9.000E+00
      25     1     1     2     0     0  8.032533514E+01  5.268541744E+01 -2.519063746E+02  2.971695379E+02  1.250000000E+02  0.00000E+00  9.000E+00
      21     1     1     2   502   511  4.236593435E+00 -6.555596115E+00 -2.310295955E+02  2.311614124E+02  0.000000000E+00  0.00000E+00  9.000E+00
#rwgt            1           1   3.4320020239714470E-002           3      393853           0
</event>
<event>
      5   9999  3.79277E-02  3.21692E+01 -1.00000E+00  1.50963E-01
      21    -1     0     0   502   501  0.000000000E+00  0.000000000E+00  1.304359610E+03  1.304359610E+03  0.000000000E+00  0.00000E+00  9.000E+00
      21    -1     0     0   512   502  0.000000000E+00  0.000000000E+00 -5.232461119E+01  5.232461119E+01  0.000000000E+00  0.00000E+00  9.000E+00
      25     1     1     2     0     0 -7.871648396E+01  6.661680563E+01  3.006772885E+02  3.415639259E+02  1.250000000E+02  0.00000E+00  9.000E+00
      25     1     1     2     0     0  4.656484986E+01 -6.555306835E+01  9.676935129E+02  9.790409720E+02  1.250000000E+02  0.00000E+00  9.000E+00
      21     1     1     2   512   501  3.215163410E+01 -1.063737282E+00 -1.633580269E+01  3.607932319E+01  5.840038640E-07  0.00000E+00  9.000E+00
#rwgt            1           1   3.7742961903957109E-002           3      394189           0
</event>
<event>
      5   9999  3.79277E-02  4.80632E+00 -1.00000E+00  2.45992E-01
      21    -1     0     0   502   501  0.000000000E+00  0.000000000E+00  5.496091587E+01  5.496091587E+01  0.000000000E+00  0.00000E+00  9.000E+00
      21    -1     0     0   511   502  0.000000000E+00  0.000000000E+00 -1.037471165E+03  1.037471165E+03  0.000000000E+00  0.00000E+00  9.000E+00
      25     1     1     2     0     0  1.229990603E+02 -1.514203093E+02 -4.846878092E+02  5.372189045E+02  1.250000000E+02  0.00000E+00  9.000E+00
      25     1     1     2     0     0 -1.185123654E+02  1.531437588E+02 -4.357202630E+02  4.929252876E+02  1.250000000E+02  0.00000E+00  9.000E+00
      21     1     1     2   511   501 -4.486694877E+00 -1.723449404E+00 -6.210217652E+01  6.228788836E+01  6.743495762E-07  0.00000E+00  9.000E+00
#rwgt            1           1   4.7465735114234152E-002           3      394369           0
</event>
<event>
      5   9999 -3.79277E-02  4.01633E+01 -1.00000E+00  1.44730E-01
      21    -1     0     0   502   512  0.000000000E+00  0.000000000E+00  8.723329543E+02  8.723329543E+02  0.000000000E+00  0.00000E+00  9.000E+00
      21    -1     0     0   501   502  0.000000000E+00  0.000000000E+00 -7.547420098E+01  7.547420098E+01  0.000000000E+00  0.00000E+00  9.000E+00
      25     1     1     2     0     0 -1.263617730E+02  9.829926433E+01  2.782733097E+02  3.445157151E+02  1.250000000E+02  0.00000E+00  9.000E+00
      25     1     1     2     0     0  1.175151674E+02 -5.912236505E+01  1.584043670E+02  2.408780025E+02  1.250000000E+02  0.00000E+00  9.000E+00
      21     1     1     2   501   512  8.846605604E+00 -3.917689928E+01  3.601810766E+02  3.624134376E+02  0.000000000E+00  0.00000E+00  9.000E+00
#rwgt            1           1  -1.5594863173811233E-002           3      394733           0
</event>
<event>
      5   9999  3.79277E-02  8.92518E+01 -1.00000E+00  1.26091E-01
      21    -1     0     0   502   501  0.000000000E+00  0.000000000E+00  4.923112800E+01  4.923112800E+01  0.000000000E+00  0.00000E+00  9.000E+00
      21    -1     0     0   501   511  0.000000000E+00  0.000000000E+00 -1.080252924E+03  1.080252924E+03  0.000000000E+00  0.00000E+00  9.000E+00
      25     1     1     2     0     0 -6.314524531E+01  6.659370431E+01 -3.488575611E+02  3.817704040E+02  1.250000000E+02  0.00000E+00  9.000E+00
      25     1     1     2     0     0  2.894046490E+01 -1.490311088E+02 -3.276337531E+02  3.821213133E+02  1.250000000E+02  0.00000E+00  9.000E+00
      21     1     1     2   502   511  3.420478041E+01  8.243740448E+01 -3.545304821E+02  3.655923350E+02  0.000000000E+00  0.00000E+00  9.000E+00
#rwgt            1           1   3.3533194837611524E-002           3      394973           0
</event>
<event>
      5   9999  3.79277E-02  5.73627E+00 -1.00000E+00  2.28547E-01
      21    -1     0     0   512   501  0.000000000E+00  0.000000000E+00  3.493504784E+01  3.493504784E+01  0.000000000E+00  0.00000E+00  9.000E+00
      21    -1     0     0   501   502  0.000000000E+00  0.000000000E+00 -1.270770417E+03  1.270770417E+03  0.000000000E+00  0.00000E+00  9.000E+00
      25     1     1     2     0     0  6.648642006E+01  1.201183051E+02 -8.290152964E+02  8.495529488E+02  1.250000000E+02  0.00000E+00  9.000E+00
      25     1     1     2     0     0 -6.881640767E+01 -1.253600594E+02 -4.082236407E+02  4.502470247E+02  1.250000000E+02  0.00000E+00  9.000E+00
      21     1     1     2   512   502  2.329987601E+00  5.241754284E+00  1.403567507E+00  5.905491676E+00  3.414284956E-07  0.00000E+00  9.000E+00
#rwgt            1           1   4.4348619785689540E-002           3      395068           0
</event>
<event>
      5   9999 -3.79277E-02  1.99868E+02 -1.00000E+00  1.11658E-01
      21    -1     0     0   502   511  0.000000000E+00  0.000000000E+00  6.478482580E+02  6.478482580E+02  0.000000000E+00  0.00000E+00  9.000E+00
      21    -1     0     0   501   502  0.000000000E+00  0.000000000E+00 -2.228925961E+02  2.228925961E+02  0.000000000E+00  0.00000E+00  9.000E+00
      25     1     1     2     0     0  1.482742905E+02  6.989017578E+01  5.550295014E+01  2.134841432E+02  1.250000000E+02  0.00000E+00  9.000E+00
      25     1     1     2     0     0 -2.242041667E+02  1.149933773E+02  5.800661075E+01  2.871946240E+02  1.250000000E+02  0.00000E+00  9.000E+00
      21     1     1     2   501   511  7.592987611E+01 -1.848835531E+02  3.114461010E+02  3.700620869E+02  5.394796609E-06  0.00000E+00  9.000E+00
#rwgt            1           1 -0.11928683409927439                3      395544           0
</event>
<event>
      5   9999  3.79277E-02  1.13491E+02 -1.00000E+00  1.21405E-01
      21    -1     0     0   502   501  0.000000000E+00  0.000000000E+00  5.869193236E+02  5.869193236E+02  0.000000000E+00  0.00000E+00  9.000E+00
      21    -1     0     0   512   502  0.000000000E+00  0.000000000E+00 -2.423827329E+02  2.423827329E+02  0.000000000E+00  0.00000E+00  9.000E+00
      25     1     1     2     0     0 -1.036213135E+02  1.271645250E+02 -5.265238701E+01  2.128508090E+02  1.250000000E+02  0.00000E+00  9.000E+00
      25     1     1     2     0     0  2.104094150E+02 -1.655893392E+02  4.065296829E+02  5.025766949E+02  1.250000000E+02  0.00000E+00  9.000E+00
      21     1     1     2   512   501 -1.067881015E+02  3.842481421E+01 -9.340705119E+00  1.138745526E+02  2.135810002E-06  0.00000E+00  9.000E+00
#rwgt            1           1   3.8587360119304928E-002           3      395595           0
</event>
<event>
      5   9999  3.79277E-02  6.04247E+01 -1.00000E+00  1.34540E-01
      21    -1     0     0   502   501  0.000000000E+00  0.000000000E+00  6.887662407E+01  6.887662407E+01  0.000000000E+00  0.00000E+00  9.000E+00
      21    -1     0     0   501   511  0.000000000E+00  0.000000000E+00 -1.305516325E+03  1.305516325E+03  0.000000000E+00  0.00000E+00  9.000E+00
      25     1     1     2     0     0 -5.612752226E+01 -2.357841400E+02 -4.251675231E+02  5.051107623E+02  1.250000000E+02  0.00000E+00  9.000E+00
      25     1     1     2     0     0  2.039266461E+00  2.088470567E+02 -5.592605224E+02  6.099332616E+02  1.250000000E+02  0.00000E+00  9.000E+00
      21     1     1     2   502   511  5.408825580E+01  2.693708338E+01 -2.522116551E+02  2.593489249E+02  0.000000000E+00  0.00000E+00  9.000E+00
#rwgt            1           1   2.3344680933263355E-002           3      395711           0
</event>
<event>
      5   9999  3.79277E-02  5.66306E+01 -1.00000E+00  1.36059E-01
       2    -1     0     0   502     0  0.000000000E+00  0.000000000E+00  2.600103713E+03  2.600103713E+03  0.000000000E+00  0.00000E+00  9.000E+00
      21    -1     0     0   501   502  0.000000000E+00  0.000000000E+00 -5.702423488E+01  5.702423488E+01  0.000000000E+00  0.00000E+00  9.000E+00
      25     1     1     2     0     0 -2.068990764E+02 -8.001843953E+01  4.270102153E+02  4.971648645E+02  1.250000000E+02  0.00000E+00  9.000E+00
      25     1     1     2     0     0  2.394739888E+02  1.263422386E+02  1.026997331E+03  1.069419782E+03  1.250000000E+02  0.00000E+00  9.000E+00
       2     1     1     2   501     0 -3.257491233E+01 -4.632379902E+01  1.089071932E+03  1.090543301E+03  1.525878906E-05  0.00000E+00  9.000E+00
#rwgt            1           1   3.6814427882039570E-002           3      395817           0
</event>
<event>
      5   9999  3.79277E-02  3.81255E+01 -1.00000E+00  1.46145E-01
      21    -1     0     0   502   501  0.000000000E+00  0.000000000E+00  1.764882315E+02  1.764882315E+02  0.000000000E+00  0.00000E+00  9.000E+00
      21    -1     0     0   511   502  0.000000000E+00  0.000000000E+00 -4.581106535E+02  4.581106535E+02  0.000000000E+00  0.00000E+00  9.000E+00
      25     1     1     2     0     0  9.958880235E+01 -1.335224943E+02  6.271988547E+01  2.174970576E+02  1.250000000E+02  0.00000E+00  9.000E+00
      25     1     1     2     0     0 -1.149903716E+02  9.864630315E+01 -3.005437585E+02  3.590340227E+02  1.250000000E+02  0.00000E+00  9.000E+00
      21     1     1     2   511   501  1.540156925E+01  3.487619115E+01 -4.379854900E+01  5.806780466E+01  1.066240300E-06  0.00000E+00  9.000E+00
#rwgt            1           1   2.5397753379811195E-002           3      395926           0
</event>
<event>
      5   9999  3.79277E-02  4.74186E+01 -1.00000E+00  1.40402E-01
      21    -1     0     0   502   501  0.000000000E+00  0.000000000E+00  1.055580517E+02  1.055580517E+02  0.000000000E+00  0.00000E+00  9.000E+00
      21    -1     0     0   512   502  0.000000000E+00  0.000000000E+00 -3.325130262E+02  3.325130262E+02  0.000000000E+00  0.00000E+00  9.000E+00
      25     1     1     2     0     0 -7.106285569E+01  8.176634824E+00 -1.257532095E+02  1.911953360E+02  1.250000000E+02  0.00000E+00  9.000E+00
      25     1     1     2     0     0  1.039743490E+02  2.596072165E+01 -3.997386065E+01  1.694329774E+02  1.250000000E+02  0.00000E+00  9.000E+00
      21     1     1     2   512   501 -3.291149326E+01 -3.413735648E+01 -6.122790428E+01  7.744276441E+01  1.168007728E-06  0.00000E+00  9.000E+00
#rwgt            1           1   4.9148650133706590E-002           3      396050           0
</event>
<event>
      5   9999  3.79277E-02  4.61056E+01 -1.00000E+00  1.41115E-01
       2    -1     0     0   502     0  0.000000000E+00  0.000000000E+00  8.799034827E+02  8.799034827E+02  0.000000000E+00  0.00000E+00  9.000E+00
      21    -1     0     0   501   502  0.000000000E+00  0.000000000E+00 -6.703083494E+01  6.703083494E+01  0.000000000E+00  0.00000E+00  9.000E+00
      25     1     1     2     0     0 -1.372076166E+02  4.368229506E+01  1.517361077E+02  2.436861083E+02  1.250000000E+02  0.00000E+00  9.000E+00
      25     1     1     2     0     0  1.082570631E+02 -7.956526692E+01  4.293808844E+02  4.669509260E+02  1.250000000E+02  0.00000E+00  9.000E+00
       2     1     1     2   501     0  2.895055356E+01  3.588297186E+01  2.317556555E+02  2.362972833E+02  2.697398305E-06  0.00000E+00  9.000E+00
#rwgt            1           1   3.1464601634633764E-002           3      396121           0
</event>
<event>
      5   9999  3.79277E-02  3.03561E+01 -1.00000E+00  1.52685E-01
      21    -1     0     0   502   501  0.000000000E+00  0.000000000E+00  4.047525271E+02  4.047525271E+02  0.000000000E+00  0.00000E+00  9.000E+00
      21    -1     0     0   501   511  0.000000000E+00  0.000000000E+00 -1.089810286E+02  1.089810286E+02  0.000000000E+00  0.00000E+00  9.000E+00
      25     1     1     2     0     0 -8.017236716E+01  8.189720128E+01  2.732920255E+02  3.216337844E+02  1.250000000E+02  0.00000E+00  9.000E+00
      25     1     1     2     0     0  4.996674782E+01 -8.491598434E+01  1.064081079E+01  1.595168553E+02  1.250000000E+02  0.00000E+00  9.000E+00
      21     1     1     2   502   511  3.020561934E+01  3.018783055E+00  1.183866225E+01  3.258291599E+01  4.768371582E-07  0.00000E+00  9.000E+00
#rwgt            1           1   4.5806265733761863E-002           3      396202           0
</event>
<event>
      5   9999  3.79277E-02  1.62174E+01 -1.00000E+00  1.74249E-01
      21    -1     0     0   502   501  0.000000000E+00  0.000000000E+00  2.201211044E+02  2.201211044E+02  0.000000000E+00  0.00000E+00  9.000E+00
      21    -1     0     0   512   502  0.000000000E+00  0.000000000E+00 -1.260856121E+03  1.260856121E+03  0.000000000E+00  0.00000E+00  9.000E+00
      25     1     1     2     0     0 -1.554410162E+02  1.372035012E+02 -9.261839441E+01  2.592101025E+02  1.250000000E+02  0.00000E+00  9.000E+00
      25     1     1     2     0     0  1.698406693E+02 -1.297432823E+02  2.469050705E+01  2.488248247E+02  1.250000000E+02  0.00000E+00  9.000E+00
      21     1     1     2   512   501 -1.439965305E+01 -7.460218938E+00 -9.728071290E+02  9.729422979E+02  1.525878906E-05  0.00000E+00  9.000E+00
#rwgt            1           1   3.0994196502104034E-002           3      396288           0
</event>
<event>
      5   9999  3.79277E-02  1.84106E+02 -1.00000E+00  1.12973E-01
      21    -1     0     0   502   511  0.000000000E+00  0.000000000E+00  1.117383901E+02  1.117383901E+02  0.000000000E+00  0.00000E+00  9.000E+00
      21    -1     0     0   501   502  0.000000000E+00  0.000000000E+00 -1.157064102E+03  1.157064102E+03  0.000000000E+00  0.00000E+00  9.000E+00
      25     1     1     2     0     0 -1.693969580E+01 -1.261449411E+02 -2.055998242E+02  2.722054136E+02  1.250000000E+02  0.00000E+00  9.000E+00
      25     1     1     2     0     0  8.730983376E+01  2.962716708E+02 -6.598427508E+02  7.392004909E+02  1.250000000E+02  0.00000E+00  9.000E+00
      21     1     1     2   501   511 -7.037013795E+01 -1.701267297E+02 -1.798831372E+02  2.573965880E+02  1.907348633E-06  0.00000E+00  9.000E+00
#rwgt            1           1   2.2105826091182661E-002           3      396430           0
</event>
<event>
      5   9999  3.79277E-02  1.22114E+02 -1.00000E+00  1.20047E-01
      21    -1     0     0   502   501  0.000000000E+00  0.000000000E+00  9.235916588E+02  9.235916588E+02  0.000000000E+00  0.00000E+00  9.000E+00
      21    -1     0     0   512   502  0.000000000E+00  0.000000000E+00 -5.850568317E+01  5.850568317E+01  0.000000000E+00  0.00000E+00  9.000E+00
      25     1     1     2     0     0  6.187837888E+01 -3.250995204E+01  2.637938867E+02  3.001633645E+02  1.250000000E+02  0.00000E+00  9.000E+00
      25     1     1     2     0     0 -1.420018773E+02 -5.964249870E+01  4.003593078E+02  4.468045839E+02  1.250000000E+02  0.00000E+00  9.000E+00
      21     1     1     2   512   501  8.012349846E+01  9.215245074E+01  2.009327811E+02  2.351293936E+02  2.697398305E-06  0.00000E+00  9.000E+00
#rwgt            1           1   4.9286177042938924E-002           3      396464           0
</event>
<event>
      5   9999  3.79277E-02  6.47160E+01 -1.00000E+00  1.32971E-01
      21    -1     0     0   511   501  0.000000000E+00  0.000000000E+00  8.246219609E+02  8.246219609E+02  0.000000000E+00  0.00000E+00  9.000E+00
      21    -1     0     0   501   502  0.000000000E+00  0.000000000E+00 -1.493452282E+02  1.493452282E+02  0.000000000E+00  0.00000E+00  9.000E+00
      25     1     1     2     0     0  1.084752515E+02 -1.237788531E+02  4.707258663E+01  2.119644147E+02  1.250000000E+02  0.00000E+00  9.000E+00
      25     1     1     2     0     0 -1.090726352E+02  1.884921275E+02  1.795120425E+02  3.086676130E+02  1.250000000E+02  0.00000E+00  9.000E+00
      21     1     1     2   511   502  5.973837232E-01 -6.471327439E+01  4.486921036E+02  4.533351614E+02  7.629394531E-06  0.00000E+00  9.000E+00
#rwgt            1           1   1.2645735005528957E-002           3      396642           0
</event>
<event>
      5   9999  3.79277E-02  1.02957E+02 -1.00000E+00  1.23261E-01
      21    -1     0     0   502   512  0.000000000E+00  0.000000000E+00  8.241401673E+02  8.241401673E+02  0.000000000E+00  0.00000E+00  9.000E+00
      21    -1     0     0   501   502  0.000000000E+00  0.000000000E+00 -2.874650210E+02  2.874650210E+02  0.000000000E+00  0.00000E+00  9.000E+00
      25     1     1     2     0     0 -1.848167071E+02  4.901490870E+01 -1.246056773E+02  2.602138569E+02  1.250000000E+02  0.00000E+00  9.000E+00
      25     1     1     2     0     0  2.800677033E+02 -8.809805050E+01  1.951872596E+02  3.740618281E+02  1.250000000E+02  0.00000E+00  9.000E+00
      21     1     1     2   501   512 -9.525099623E+01  3.908314180E+01  4.660935641E+02  4.773295033E+02  7.629394531E-06  0.00000E+00  9.000E+00
#rwgt            1           1   3.2045062278806560E-002           3      396760           0
</event>
<event>
      5   9999  3.79277E-02  3.42821E+01 -1.00000E+00  1.49121E-01
      21    -1     0     0   502   501  0.000000000E+00  0.000000000E+00  4.635255927E+02  4.635255927E+02  0.000000000E+00  0.00000E+00  9.000E+00
      21    -1     0     0   501   511  0.000000000E+00  0.000000000E+00 -1.533626004E+02  1.533626004E+02  0.000000000E+00  0.00000E+00  9.000E+00
      25     1     1     2     0     0 -8.060565331E+01 -2.685595463E+01 -5.661544190E+01  1.613964743E+02  1.250000000E+02  0.00000E+00  9.000E+00
      25     1     1     2     0     0  5.317306786E+01  6.295972619E+00  3.906998021E+02  4.136887112E+02  1.250000000E+02  0.00000E+00  9.000E+00
      21     1     1     2   502   511  2.743258545E+01  2.055998201E+01 -2.392136795E+01  4.180300766E+01  8.259061849E-07  0.00000E+00  9.000E+00
#rwgt            1           1   5.1637382318725771E-002           3      396846           0
</event>
<event>
      5   9999  3.79277E-02  1.18151E+01 -1.00000E+00  1.87740E-01
      21    -1     0     0   502   512  0.000000000E+00  0.000000000E+00  1.168463226E+02  1.168463226E+02  0.000000000E+00  0.00000E+00  9.000E+00
      21    -1     0     0   501   502  0.000000000E+00  0.000000000E+00 -4.250812608E+02  4.250812608E+02  0.000000000E+00  0.00000E+00  9.000E+00
      25     1     1     2     0     0 -5.709581307E+01  1.093834345E+02 -1.007561955E+01  1.759294908E+02  1.250000000E+02  0.00000E+00  9.000E+00
      25     1     1     2     0     0  4.628982859E+01 -1.046057269E+02 -3.073953426E+02  3.510014287E+02  1.250000000E+02  0.00000E+00  9.000E+00
      21     1     1     2   501   512  1.080598448E+01 -4.777707567E+00  9.236023959E+00  1.499666392E+01  2.384185791E-07  0.00000E+00  9.000E+00
#rwgt            1           1   4.9445824862293888E-002           3      397083           0
</event>
<event>
      5   9999  3.79277E-02  7.25433E+01 -1.00000E+00  1.30440E-01
      21    -1     0     0   502   501  0.000000000E+00  0.000000000E+00  6.965248068E+01  6.965248068E+01  0.000000000E+00  0.00000E+00  9.000E+00
       2    -1     0     0   501     0  0.000000000E+00  0.000000000E+00 -2.448831393E+03  2.448831393E+03  0.000000000E+00  0.00000E+00  9.000E+00
      25     1     1     2     0     0 -1.422500386E+02  1.044603315E+02 -1.612467997E+03  1.626906597E+03  1.250000000E+02  0.00000E+00  9.000E+00
      25     1     1     2     0     0  1.893786295E+02 -4.931114073E+01 -1.634400402E+02  2.839603857E+02  1.250000000E+02  0.00000E+00  9.000E+00
       2     1     1     2   502     0 -4.712859085E+01 -5.514919080E+01 -6.032708750E+02  6.076168908E+02  1.525878906E-05  0.00000E+00  9.000E+00
#rwgt            1           1   4.6633185219885652E-002           3      397372           0
</event>
<event>
      5   9999  3.79277E-02  8.94530E+01 -1.00000E+00  1.26045E-01
      21    -1     0     0   502   501  0.000000000E+00  0.000000000E+00  6.479101882E+02  6.479101882E+02  0.000000000E+00  0.00000E+00  9.000E+00
      21    -1     0     0   501   511  0.000000000E+00  0.000000000E+00 -9.144315441E+01  9.144315441E+01  0.000000000E+00  0.00000E+00  9.000E+00
      25     1     1     2     0     0  9.666117578E+01  5.769297002E+01  2.404555596E+02  2.934548310E+02  1.250000000E+02  0.00000E+00  9.000E+00
      25     1     1     2     0     0 -1.189731169E+02 -1.443186576E+02  2.326177608E+02  3.236023796E+02  1.250000000E+02  0.00000E+00  9.000E+00
      21     1     1     2   502   511  2.231194109E+01  8.662568759E+01  8.339371340E+01  1.222961320E+02  1.348699152E-06  0.00000E+00  9.000E+00
#rwgt            1           1   2.6961648880486210E-002           3      397496           0
</event>
<event>
      5   9999  3.79277E-02  7.64157E+00 -1.00000E+00  2.10308E-01
      21    -1     0     0   502   512  0.000000000E+00  0.000000000E+00  3.505079080E+02  3.505079080E+02  0.000000000E+00  0.00000E+00  9.000E+00
      21    -1     0     0   501   502  0.000000000E+00  0.000000000E+00 -4.544772663E+02  4.544772663E+02  0.000000000E+00  0.00000E+00  9.000E+00
      25     1     1     2     0     0 -9.891373089E+01 -1.491645222E+02 -2.927520779E+02  3.651886635E+02  1.250000000E+02  0.00000E+00  9.000E+00
      25     1     1     2     0     0  9.138370363E+01  1.478636341E+02 -3.408474864E+01  2.167980758E+02  1.250000000E+02  0.00000E+00  9.000E+00
      21     1     1     2   501   512  7.530027255E+00  1.300888032E+00  2.228674682E+02  2.229984350E+02  0.000000000E+00  0.00000E+00  9.000E+00
#rwgt            1           1   3.6236636088510542E-002           3      397643           0
</event>
<event>
      5   9999  3.79277E-02  7.20482E+01 -1.00000E+00  1.30589E-01
      21    -1     0     0   502   501  0.000000000E+00  0.000000000E+00  1.998646207E+01  1.998646207E+01  0.000000000E+00  0.00000E+00  9.000E+00
       2    -1     0     0   501     0  0.000000000E+00  0.000000000E+00 -3.150033578E+03  3.150033578E+03  0.000000000E+00  0.00000E+00  9.000E+00
      25     1     1     2     0     0 -1.290558504E+01  1.856652887E+02 -1.400097354E+03  1.417933621E+03  1.250000000E+02  0.00000E+00  9.000E+00
      25     1     1     2     0     0  3.546024295E+01 -1.172384918E+02 -7.792282743E+02  7.986388397E+02  1.250000000E+02  0.00000E+00  9.000E+00
       2     1     1     2   502     0 -2.255465792E+01 -6.842679696E+01 -9.507214880E+02  9.534475795E+02  1.078959322E-05  0.00000E+00  9.000E+00
#rwgt            1           1  0.12003128803387916                3      398042           0
</event>
<event>
      5   9999  3.79277E-02  3.83212E+01 -1.00000E+00  1.46005E-01
      21    -1     0     0   502   501  0.000000000E+00  0.000000000E+00  7.723347678E+02  7.723347678E+02  0.000000000E+00  0.00000E+00  9.000E+00
      21    -1     0     0   511   502  0.000000000E+00  0.000000000E+00 -1.950069787E+02  1.950069787E+02  0.000000000E+00  0.00000E+00  9.000E+00
      25     1     1     2     0     0  1.083312092E+02  3.139425801E+02  4.349064030E+02  5.613057757E+02  1.250000000E+02  0.00000E+00  9.000E+00
      25     1     1     2     0     0 -7.018106828E+01 -3.103262837E+02  1.305498884E+02  3.659181030E+02  1.250000000E+02  0.00000E+00  9.000E+00
      21     1     1     2   511   501 -3.815014097E+01 -3.616296327E+00  1.187149767E+01  4.011786774E+01  6.307962682E-07  0.00000E+00  9.000E+00
#rwgt            1           1   3.1739553330194167E-002           3      398226           0
</event>
<event>
      5   9999  3.79277E-02  4.28105E+01 -1.00000E+00  1.43035E-01
      21    -1     0     0   512   501  0.000000000E+00  0.000000000E+00  1.601102677E+02  1.601102677E+02  0.000000000E+00  0.00000E+00  9.000E+00
      21    -1     0     0   501   502  0.000000000E+00  0.000000000E+00 -4.555656111E+02  4.555656111E+02  0.000000000E+00  0.00000E+00  9.000E+00
      25     1     1     2     0     0  1.788694048E+01  1.262511390E+02 -3.523395312E+02  3.950030861E+02  1.250000000E+02  0.00000E+00  9.000E+00
      25     1     1     2     0     0 -4.499861857E+01 -9.311962510E+01  1.870821397E+01  1.633130048E+02  1.250000000E+02  0.00000E+00  9.000E+00
      21     1     1     2   512   502  2.711167809E+01 -3.313151386E+01  3.817597384E+01  5.735978799E+01  9.536743164E-07  0.00000E+00  9.000E+00
#rwgt            1           1   4.1489474401386596E-002           3      398631           0
</event>
<event>
      5   9999  3.79277E-02  7.86291E+01 -1.00000E+00  1.28714E-01
      21    -1     0     0   502   501  0.000000000E+00  0.000000000E+00  1.817967007E+02  1.817967007E+02  0.000000000E+00  0.00000E+00  9.000E+00
      21    -1     0     0   501   511  0.000000000E+00  0.000000000E+00 -5.502816893E+02  5.502816893E+02  0.000000000E+00  0.00000E+00  9.000E+00
      25     1     1     2     0     0  3.111896082E+01 -6.282934266E+01 -1.250964778E+02  1.902368124E+02  1.250000000E+02  0.00000E+00  9.000E+00
      25     1     1     2     0     0  4.920340687E+00 -7.054132026E+00  1.179307514E+02  1.720657800E+02  1.250000000E+02  0.00000E+00  9.000E+00
      21     1     1     2   502   511 -3.603930151E+01  6.988347468E+01 -3.613192621E+02  3.697757976E+02  0.000000000E+00  0.00000E+00  9.000E+00
#rwgt            1           1   4.9859200143779182E-002           3      398800           0
</event>
<event>
      5   9999  3.79277E-02  1.21834E+02 -1.00000E+00  1.20089E-01
      -2    -1     0     0     0   501  0.000000000E+00  0.000000000E+00  2.505449598E+02  2.505449598E+02  0.000000000E+00  0.00000E+00  9.000E+00
      21    -1     0     0   501   502  0.000000000E+00  0.000000000E+00 -7.516695665E+02  7.516695665E+02  0.000000000E+00  0.00000E+00  9.000E+00
      25     1     1     2     0     0  7.206068544E+01 -8.844313600E+01 -6.263461998E+02  6.488062058E+02  1.250000000E+02  0.00000E+00  9.000E+00
      25     1     1     2     0     0  4.817315234E+01  1.081219426E+02 -8.686560070E+00  1.723701349E+02  1.250000000E+02  0.00000E+00  9.000E+00
      -2     1     1     2     0   502 -1.202338378E+02 -1.967880659E+01  1.339081531E+02  1.810381856E+02  3.303624740E-06  0.00000E+00  9.000E+00
#rwgt            1           1   4.8000527931773188E-002           3      398904           0
</event>
<event>
      5   9999  3.79277E-02  1.04240E+02 -1.00000E+00  1.23022E-01
      21    -1     0     0   511   501  0.000000000E+00  0.000000000E+00  3.716717938E+02  3.716717938E+02  0.000000000E+00  0.00000E+00  9.000E+00
      21    -1     0     0   501   502  0.000000000E+00  0.000000000E+00 -6.973303185E+02  6.973303185E+02  0.000000000E+00  0.00000E+00  9.000E+00
      25     1     1     2     0     0  5.741415211E+01  3.103292905E+02 -5.509805207E+02  6.471515956E+02  1.250000000E+02  0.00000E+00  9.000E+00
      25     1     1     2     0     0 -4.660256387E+01 -2.066511515E+02  1.931966004E+02  3.127721596E+02  1.250000000E+02  0.00000E+00  9.000E+00
      21     1     1     2   511   502 -1.081158824E+01 -1.036781391E+02  3.212539565E+01  1.090783572E+02  1.168007728E-06  0.00000E+00  9.000E+00
#rwgt            1           1   3.3702525224072487E-002           3      399005           0
</event>
<event>
      5   9999  3.79277E-02  2.90005E+01 -1.00000E+00  1.54069E-01
      21    -1     0     0   502   501  0.000000000E+00  0.000000000E+00  3.014777750E+01  3.014777750E+01  0.000000000E+00  0.00000E+00  9.000E+00
       2    -1     0     0   501     0  0.000000000E+00  0.000000000E+00 -3.125639948E+03  3.125639948E+03  0.000000000E+00  0.00000E+00  9.000E+00
      25     1     1     2     0     0 -1.964641704E+02  3.349348900E+01 -1.748920132E+03  1.764671814E+03  1.250000000E+02  0.00000E+00  9.000E+00
      25     1     1     2     0     0  2.019493076E+02 -5.016455910E+00 -6.198125674E+02  6.637780551E+02  1.250000000E+02  0.00000E+00  9.000E+00
       2     1     1     2   502     0 -5.485137213E+00 -2.847703308E+01 -7.267594713E+02  7.273378563E+02  0.000000000E+00  0.00000E+00  9.000E+00
#rwgt            1           1  0.37871291030952525                3      399142           0
</event>
<event>
      5   9999  3.79277E-02  2.19124E+01 -1.00000E+00  1.63162E-01
      21    -1     0     0   502   501  0.000000000E+00  0.000000000E+00  1.610432497E+02  1.610432497E+02  0.000000000E+00  0.00000E+00  9.000E+00
      21    -1     0     0   501   511  0.000000000E+00  0.000000000E+00 -4.611431201E+02  4.611431201E+02  0.000000000E+00  0.00000E+00  9.000E+00
      25     1     1     2     0     0  1.082779060E+02  1.242018267E+02 -2.772294314E+01  2.086714169E+02  1.250000000E+02  0.00000E+00  9.000E+00
      25     1     1     2     0     0 -1.161514563E+02 -1.446507532E+02 -1.092971296E+02  2.489696041E+02  1.250000000E+02  0.00000E+00  9.000E+00
      21     1     1     2   502   511  7.873550383E+00  2.044892654E+01 -1.630797977E+02  1.645453488E+02  0.000000000E+00  0.00000E+00  9.000E+00
#rwgt            1           1   2.7674250299115549E-002           3      399280           0
</event>
<event>
      5   9999  3.79277E-02  3.98773E+02 -1.00000E+00  1.01726E-01
      21    -1     0     0   502   501  0.000000000E+00  0.000000000E+00  8.952324657E+02  8.952324657E+02  0.000000000E+00  0.00000E+00  9.000E+00
      21    -1     0     0   512   502  0.000000000E+00  0.000000000E+00 -4.927219211E+02  4.927219211E+02  0.000000000E+00  0.00000E+00  9.000E+00
      25     1     1     2     0     0 -3.823332404E+02 -1.278260010E+02  4.610586281E+02  6.250745970E+02  1.250000000E+02  0.00000E+00  9.000E+00
      25     1     1     2     0     0  3.107890699E+01 -6.096052585E+01  2.300642560E+02  2.706227005E+02  1.250000000E+02  0.00000E+00  9.000E+00
      21     1     1     2   512   501  3.512543334E+02  1.887865268E+02 -2.886123395E+02  4.922570893E+02  6.607249480E-06  0.00000E+00  9.000E+00
#rwgt            1           1   3.8747632648967162E-002           3      399491           0
</event>
<event>
      5   9999  3.79277E-02  5.36383E+01 -1.00000E+00  1.37357E-01
       2    -1     0     0   502     0  0.000000000E+00  0.000000000E+00  2.422973423E+03  2.422973423E+03  0.000000000E+00  0.00000E+00  9.000E+00
      21    -1     0     0   501   502  0.000000000E+00  0.000000000E+00 -2.085647215E+02  2.085647215E+02  0.000000000E+00  0.00000E+00  9.000E+00
      25     1     1     2     0     0 -2.847855182E+02  7.353604756E-01  5.453690495E+01  3.157571949E+02  1.250000000E+02  0.00000E+00  9.000E+00
      25     1     1     2     0     0  3.077667269E+02  4.773045086E+01  2.853986140E+02  4.405404896E+02  1.250000000E+02  0.00000E+00  9.000E+00
       2     1     1     2   501     0 -2.298120870E+01 -4.846581133E+01  1.874473183E+03  1.875240460E+03  3.051757812E-05  0.00000E+00  9.000E+00
#rwgt            1           1   4.6503600241555115E-002           3      399527           0
</event>
<event>
      5   9999  3.79277E-02  6.03632E+01 -1.00000E+00  1.34563E-01
      21    -1     0     0   502   501  0.000000000E+00  0.000000000E+00  1.160133952E+02  1.160133952E+02  0.000000000E+00  0.00000E+00  9.000E+00
      21    -1     0     0   511   502  0.000000000E+00  0.000000000E+00 -1.556977982E+03  1.556977982E+03  0.000000000E+00  0.00000E+00  9.000E+00
      25     1     1     2     0     0 -2.226543429E+02 -7.255807941E+01 -2.507690315E+02  3.651708346E+02  1.250000000E+02  0.00000E+00  9.000E+00
      25     1     1     2     0     0  2.787821060E+02  5.034561124E+01 -3.575577872E+02  4.729975839E+02  1.250000000E+02  0.00000E+00  9.000E+00
      21     1     1     2   511   501 -5.612776317E+01  2.221246817E+01 -8.326377684E+02  8.348229590E+02  0.000000000E+00  0.00000E+00  9.000E+00
#rwgt            1           1   2.9927416609145965E-002           3      399610           0
</event>
<event>
      5   9999  3.79277E-02  6.27302E+01 -1.00000E+00  1.33679E-01
      21    -1     0     0   502   501  0.000000000E+00  0.000000000E+00  1.753576711E+02  1.753576711E+02  0.000000000E+00  0.00000E+00  9.000E+00
      21    -1     0     0   512   502  0.000000000E+00  0.000000000E+00 -7.079710130E+02  7.079710130E+02  0.000000000E+00  0.00000E+00  9.000E+00
      25     1     1     2     0     0  1.368523186E+02  1.333623236E+02  8.982378445E+00  2.285164099E+02  1.250000000E+02  0.00000E+00  9.000E+00
      25     1     1     2     0     0 -1.537634961E+02 -1.937700401E+02 -3.144257247E+02  4.191402838E+02  1.250000000E+02  0.00000E+00  9.000E+00
      21     1     1     2   512   501  1.691117743E+01  6.040771654E+01 -2.271699956E+02  2.356719904E+02  2.697398305E-06  0.00000E+00  9.000E+00
#rwgt            1           1   3.4361958301113778E-002           3      399755           0
</event>
<event>
      5   9999  3.79277E-02  1.61621E+01 -1.00000E+00  1.74384E-01
      21    -1     0     0   502   501  0.000000000E+00  0.000000000E+00  1.506160323E+02  1.506160323E+02  0.000000000E+00  0.00000E+00  9.000E+00
      21    -1     0     0   511   502  0.000000000E+00  0.000000000E+00 -3.248436102E+02  3.248436102E+02  0.000000000E+00  0.00000E+00  9.000E+00
      25     1     1     2     0     0 -6.741074388E+01  3.291188703E+01  8.533781868E+01  1.689228936E+02  1.250000000E+02  0.00000E+00  9.000E+00
      25     1     1     2     0     0  7.462946884E+01 -1.845145235E+01 -2.296018504E+02  2.724922447E+02  1.250000000E+02  0.00000E+00  9.000E+00
      21     1     1     2   511   501 -7.218724956E+00 -1.446043469E+01 -2.996354619E+01  3.404450413E+01  3.371747881E-07  0.00000E+00  9.000E+00
#rwgt            1           1   4.4906891905835994E-002           3      399915           0
</event>
<event>
      5   9999  3.79277E-02  5.48481E+01 -1.00000E+00  1.36820E-01
      21    -1     0     0   502   512  0.000000000E+00  0.000000000E+00  1.076912388E+02  1.076912388E+02  0.000000000E+00  0.00000E+00  9.000E+00
      21    -1     0     0   501   502  0.000000000E+00  0.000000000E+00 -9.838078734E+02  9.838078734E+02  0.000000000E+00  0.00000E+00  9.000E+00
      25     1     1     2     0     0  2.257264254E+02 -1.509554652E+02 -2.681606887E+02  4.015907451E+02  1.250000000E+02  0.00000E+00  9.000E+00
      25     1     1     2     0     0 -1.824660539E+02  1.172381267E+02 -5.718567671E+02  6.242465869E+02  1.250000000E+02  0.00000E+00  9.000E+00
      21     1     1     2   501   512 -4.326037155E+01  3.371733849E+01 -3.609917890E+01  6.566178020E+01  6.743495762E-07  0.00000E+00  9.000E+00
#rwgt            1           1   3.2202121134155617E-002           3      400054           0
</event>
<event>
      5   9999  3.79277E-02  3.21626E+01 -1.00000E+00  1.50969E-01
      21    -1     0     0   502   501  0.000000000E+00  0.000000000E+00  1.356065184E+03  1.356065184E+03  0.000000000E+00  0.00000E+00  9.000E+00
       3    -1     0     0   501     0  0.000000000E+00  0.000000000E+00 -1.289989320E+02  1.289989320E+02  0.000000000E+00  0.00000E+00  9.000E+00
      25     1     1     2     0     0  1.638282706E+02 -2.248157980E+02  6.677941537E+02  7.341361434E+02  1.250000000E+02  0.00000E+00  9.000E+00
      25     1     1     2     0     0 -1.453451699E+02  2.511370805E+02  6.122433171E+02  6.889571329E+02  1.250000000E+02  0.00000E+00  9.000E+00
       3     1     1     2   502     0 -1.848310068E+01 -2.632128250E+01 -5.297121892E+01  6.197083957E+01  1.784161275E-06  0.00000E+00  9.000E+00
#rwgt            1           1   4.3395500806828205E-002           3      400186           0
</event>
<event>
      5   9999  3.79277E-02  2.94269E+02 -1.00000E+00  1.05865E-01
       1    -1     0     0   502     0  0.000000000E+00  0.000000000E+00  1.414239933E+03  1.414239933E+03  0.000000000E+00  0.00000E+00  9.000E+00
      21    -1     0     0   501   502  0.000000000E+00  0.000000000E+00 -4.163146898E+02  4.163146898E+02  0.000000000E+00  0.00000E+00  9.000E+00
      25     1     1     2     0     0 -4.324886981E+01  9.974202250E+01  2.377287363E+02  2.897566010E+02  1.250000000E+02  0.00000E+00  9.000E+00
      25     1     1     2     0     0  2.800336189E+02 -2.744624027E+02 -2.547750338E+02  4.840286728E+02  1.250000000E+02  0.00000E+00  9.000E+00
       1     1     1     2   501     0 -2.367847491E+02  1.747203802E+02  1.014971541E+03  1.056769349E+03  2.412626389E-05  0.00000E+00  9.000E+00
#rwgt            2          17   2.4533902740411659E-004           3      400375           0
</event>
<event>
      5   9999 -3.79277E-02  2.40462E+01 -1.00000E+00  1.60027E-01
      21    -1     0     0   502   501  0.000000000E+00  0.000000000E+00  8.160388250E+02  8.160388250E+02  0.000000000E+00  0.00000E+00  9.000E+00
      21    -1     0     0   501   511  0.000000000E+00  0.000000000E+00 -1.944047310E+02  1.944047310E+02  0.000000000E+00  0.00000E+00  9.000E+00
      25     1     1     2     0     0  1.326353700E+02 -2.115731782E+02  3.652714447E+02  4.597864498E+02  1.250000000E+02  0.00000E+00  9.000E+00
      25     1     1     2     0     0 -1.512867053E+02  1.963959730E+02  3.541213693E+02  4.499844326E+02  1.250000000E+02  0.00000E+00  9.000E+00
      21     1     1     2   502   511  1.865133525E+01  1.517720526E+01 -9.775872001E+01  1.006726736E+02  1.348699152E-06  0.00000E+00  9.000E+00
#rwgt            1           1 -0.13678950306474913                3      400409           0
</event>
<event>
      5   9999  3.79277E-02  1.42932E+02 -1.00000E+00  1.17230E-01
      21    -1     0     0   502   501  0.000000000E+00  0.000000000E+00  1.650315858E+02  1.650315858E+02  0.000000000E+00  0.00000E+00  9.000E+00
      21    -1     0     0   512   502  0.000000000E+00  0.000000000E+00 -7.652557020E+02  7.652557020E+02  0.000000000E+00  0.00000E+00  9.000E+00
      25     1     1     2     0     0 -2.155724354E+02 -1.603161901E+02 -1.764816491E+02  3.448819046E+02  1.250000000E+02  0.00000E+00  9.000E+00
      25     1     1     2     0     0  7.563055437E+01  1.893999962E+02 -1.675723258E+02  2.920579116E+02  1.250000000E+02  0.00000E+00  9.000E+00
      21     1     1     2   512   501  1.399418810E+02 -2.908380613E+01 -2.561701413E+02  2.933474716E+02  0.000000000E+00  0.00000E+00  9.000E+00
#rwgt            1           1   3.2171591287250695E-002           3      400590           0
</event>
<event>
      5   9999  3.79277E-02  2.01318E+01 -1.00000E+00  1.66134E-01
      21    -1     0     0   502   501  0.000000000E+00  0.000000000E+00  2.895221243E+02  2.895221243E+02  0.000000000E+00  0.00000E+00  9.000E+00
      21    -1     0     0   501   511  0.000000000E+00  0.000000000E+00 -2.496866965E+02  2.496866965E+02  0.000000000E+00  0.00000E+00  9.000E+00
      25     1     1     2     0     0  2.009174630E+02 -2.954352068E+01 -2.401252355E+01  2.396711243E+02  1.250000000E+02  0.00000E+00  9.000E+00
      25     1     1     2     0     0 -2.071529137E+02  4.868528644E+01  9.331768317E+01  2.638480183E+02  1.250000000E+02  0.00000E+00  9.000E+00
      21     1     1     2   502   511  6.235450660E+00 -1.914176576E+01 -2.946973172E+01  3.568967819E+01  0.000000000E+00  0.00000E+00  9.000E+00
#rwgt            1           1   3.6921093200861718E-002           3      400888           0
</event>
<event>
      5   9999  3.79277E-02  1.28791E+02 -1.00000E+00  1.19079E-01
       4    -1     0     0   502     0  0.000000000E+00  0.000000000E+00  1.215725177E+03  1.215725177E+03  0.000000000E+00  0.00000E+00  9.000E+00
      21    -1     0     0   501   502  0.000000000E+00  0.000000000E+00 -1.705606227E+02  1.705606227E+02  0.000000000E+00  0.00000E+00  9.000E+00
      25     1     1     2     0     0 -1.203642480E+02 -6.983194586E+01 -8.623444481E+01  2.059743487E+02  1.250000000E+02  0.00000E+00  9.000E+00
      25     1     1     2     0     0 -5.776498924E+00  4.384114358E+01  1.994216882E+02  2.394773967E+02  1.250000000E+02  0.00000E+00  9.000E+00
       4     1     1     2   501     0  1.261407469E+02  2.599080228E+01  9.319773105E+02  9.408340540E+02  1.078959322E-05  0.00000E+00  9.000E+00
#rwgt            1           1   4.6023386576120325E-002           3      401044           0
</event>
<event>
      5   9999  3.79277E-02  6.87173E+01 -1.00000E+00  1.31629E-01
      21    -1     0     0   502   501  0.000000000E+00  0.000000000E+00  5.958167110E+01  5.958167110E+01  0.000000000E+00  0.00000E+00  9.000E+00
      -3    -1     0     0     0   502  0.000000000E+00  0.000000000E+00 -1.312947562E+03  1.312947562E+03  0.000000000E+00  0.00000E+00  9.000E+00
      25     1     1     2     0     0  3.383576463E+01  4.979917783E+00 -7.299744433E+02  7.413887957E+02  1.250000000E+02  0.00000E+00  9.000E+00
      25     1     1     2     0     0 -4.482614859E+00 -6.711256100E+01 -4.656871435E+01  1.493915487E+02  1.250000000E+02  0.00000E+00  9.000E+00
      -3     1     1     2     0   501 -2.935314977E+01  6.213264322E+01 -4.768227330E+02  4.817488884E+02  7.629394531E-06  0.00000E+00  9.000E+00
#rwgt            1           1   3.9118831533096948E-002           3      401289           0
</event>
<event>
      5   9999  3.79277E-02  1.64103E+01 -1.00000E+00  1.73784E-01
      21    -1     0     0   502   501  0.000000000E+00  0.000000000E+00  9.410937052E+02  9.410937052E+02  0.000000000E+00  0.00000E+00  9.000E+00
       2    -1     0     0   501     0  0.000000000E+00  0.000000000E+00 -4.679146439E+02  4.679146439E+02  0.000000000E+00  0.00000E+00  9.000E+00
      25     1     1     2     0     0  1.356010696E+02 -1.721302506E+01  4.749856958E+02  5.098238416E+02  1.250000000E+02  0.00000E+00  9.000E+00
      25     1     1     2     0     0 -1.409665931E+02  1.704697756E+00  4.287461690E+02  4.683190833E+02  1.250000000E+02  0.00000E+00  9.000E+00
       2     1     1     2   502     0  5.365523578E+00  1.550832730E+01 -4.305528035E+02  4.308654241E+02  9.344061824E-06  0.00000E+00  9.000E+00
#rwgt            1           1   3.2683989952624143E-002           3      401365           0
</event>
<event>
      5   9999  3.79277E-02  3.40737E+01 -1.00000E+00  1.49296E-01
      21    -1     0     0   502   511  0.000000000E+00  0.000000000E+00  2.355257400E+02  2.355257400E+02  0.000000000E+00  0.00000E+00  9.000E+00
      21    -1     0     0   501   502  0.000000000E+00  0.000000000E+00 -2.099254307E+02  2.099254307E+02  0.000000000E+00  0.00000E+00  9.000E+00
      25     1     1     2     0     0 -1.571232134E+02 -1.579253841E+01 -6.900915813E+01  2.128952145E+02  1.250000000E+02  0.00000E+00  9.000E+00
      25     1     1     2     0     0  1.255077948E+02  3.084986624E+00  6.984622400E+01  1.904342897E+02  1.250000000E+02  0.00000E+00  9.000E+00
      21     1     1     2   501   511  3.161541861E+01  1.270755179E+01  2.476324335E+01  4.212166649E+01  8.259061849E-07  0.00000E+00  9.000E+00
#rwgt            1           1   4.5056694873878013E-002           3      401618           0
</event>
<event>
      5   9999  3.79277E-02  1.61961E+02 -1.00000E+00  1.15088E-01
      21    -1     0     0   502   501  0.000000000E+00  0.000000000E+00  4.517543186E+02  4.517543186E+02  0.000000000E+00  0.00000E+00  9.000E+00
      21    -1     0     0   501   512  0.000000000E+00  0.000000000E+00 -2.943041376E+02  2.943041376E+02  0.000000000E+00  0.00000E+00  9.000E+00
      25     1     1     2     0     0  1.254982109E+01  1.324134239E+02  2.006408449E+02  2.712426248E+02  1.250000000E+02  0.00000E+00  9.000E+00
      25     1     1     2     0     0 -1.325633124E+02 -2.411710580E+02  1.522003264E+01  3.026436195E+02  1.250000000E+02  0.00000E+00  9.000E+00
      21     1     1     2   502   512  1.200134913E+02  1.087576341E+02 -5.841069659E+01  1.721722119E+02  3.631483605E-06  0.00000E+00  9.000E+00
#rwgt            1           1   2.7365943424135970E-002           3      401886           0
</event>
<event>
      5   9999  3.79277E-02  8.31440E+01 -1.00000E+00  1.27544E-01
      21    -1     0     0   502   511  0.000000000E+00  0.000000000E+00  2.176712187E+03  2.176712187E+03  0.000000000E+00  0.00000E+00  9.000E+00
      21    -1     0     0   501   502  0.000000000E+00  0.000000000E+00 -2.379645881E+01  2.379645881E+01  0.000000000E+00  0.00000E+00  9.000E+00
      25     1     1     2     0     0  4.556247118E+01  1.541380162E+02  7.301657250E+02  7.580247046E+02  1.250000000E+02  0.00000E+00  9.000E+00
      25     1     1     2     0     0  4.251798182E+00 -8.756876579E+01  1.006100742E+03  1.017619806E+03  1.250000000E+02  0.00000E+00  9.000E+00
      21     1     1     2   501   511 -4.981426936E+01 -6.656925037E+01  4.166492610E+02  4.248641351E+02  5.394796609E-06  0.00000E+00  9.000E+00
#rwgt            1           1  0.13311384013041833                3      401953           0
</event>
<event>
      5   9999  3.79277E-02  2.95522E+01 -1.00000E+00  1.53495E-01
      21    -1     0     0   512   501  0.000000000E+00  0.000000000E+00  1.739000428E+02  1.739000428E+02  0.000000000E+00  0.00000E+00  9.000E+00
      21    -1     0     0   501   502  0.000000000E+00  0.000000000E+00 -2.668899487E+02  2.668899487E+02  0.000000000E+00  0.00000E+00  9.000E+00
      25     1     1     2     0     0 -1.099534669E+02  4.907839729E+01 -1.301254404E+02  2.169241439E+02  1.250000000E+02  0.00000E+00  9.000E+00
      25     1     1     2     0     0  1.234839881E+02 -7.535116293E+01  3.093151501E+01  1.936694392E+02  1.250000000E+02  0.00000E+00  9.000E+00
      21     1     1     2   512   502 -1.353052126E+01  2.627276564E+01  6.204019450E+00  3.019640835E+01  4.768371582E-07  0.00000E+00  9.000E+00
#rwgt            1           1   3.2745688762465620E-002           3      402044           0
</event>
<event>
      5   9999  3.79277E-02  5.10566E+01 -1.00000E+00  1.38559E-01
      21    -1     0     0   502   501  0.000000000E+00  0.000000000E+00  1.547448225E+02  1.547448225E+02  0.000000000E+00  0.00000E+00  9.000E+00
      21    -1     0     0   501   511  0.000000000E+00  0.000000000E+00 -6.612054407E+02  6.612054407E+02  0.000000000E+00  0.00000E+00  9.000E+00
      25     1     1     2     0     0 -1.718325956E+02  5.584370710E+01 -6.809125753E+01  2.300138689E+02  1.250000000E+02  0.00000E+00  9.000E+00
      25     1     1     2     0     0  1.323793455E+02 -8.825081352E+01 -7.007738382E+01  2.141222476E+02  1.250000000E+02  0.00000E+00  9.000E+00
      21     1     1     2   502   511  3.945325011E+01  3.240710642E+01 -3.682919769E+02  3.718141467E+02  7.629394531E-06  0.00000E+00  9.000E+00
#rwgt            1           1   2.8963985231042492E-002           3      402164           0
</event>
<event>
      5   9999  3.79277E-02  5.84916E+01 -1.00000E+00  1.35297E-01
      21    -1     0     0   512   501  0.000000000E+00  0.000000000E+00  1.657372566E+02  1.657372566E+02  0.000000000E+00  0.00000E+00  9.000E+00
      21    -1     0     0   501   502  0.000000000E+00  0.000000000E+00 -5.236690272E+02  5.236690272E+02  0.000000000E+00  0.00000E+00  9.000E+00
      25     1     1     2     0     0  1.256222049E+02  1.548199928E+02 -9.158122897E+01  2.525119602E+02  1.250000000E+02  0.00000E+00  9.000E+00
      25     1     1     2     0     0 -1.777451644E+02 -1.813617197E+02 -2.458828095E+02  3.749250229E+02  1.250000000E+02  0.00000E+00  9.000E+00
      21     1     1     2   512   502  5.212295944E+01  2.654172690E+01 -2.046773212E+01  6.196930067E+01  5.840038640E-07  0.00000E+00  9.000E+00
#rwgt            1           1   4.5261195921406337E-002           3      402293           0
</event>
<event>
      5   9999  3.79277E-02  7.11594E+01 -1.00000E+00  1.30860E-01
      21    -1     0     0   511   501  0.000000000E+00  0.000000000E+00  3.155178182E+03  3.155178182E+03  0.000000000E+00  0.00000E+00  9.000E+00
      21    -1     0     0   501   502  0.000000000E+00  0.000000000E+00 -3.419653096E+01  3.419653096E+01  0.000000000E+00  0.00000E+00  9.000E+00
      25     1     1     2     0     0 -1.570337867E+01  1.856128990E+02  4.725918349E+02  5.231317108E+02  1.250000000E+02  0.00000E+00  9.000E+00
      25     1     1     2     0     0  2.261071340E+01 -1.147895538E+02  8.844734585E+02  9.008918829E+02  1.250000000E+02  0.00000E+00  9.000E+00
      21     1     1     2   511   502 -6.907334729E+00 -7.082334519E+01  1.763916358E+03  1.765351120E+03  2.157918644E-05  0.00000E+00  9.000E+00
#rwgt            1           1   3.3581580979184462E-002           3      402425           0
</event>
<event>
      5   9999  3.79277E-02  1.04457E+02 -1.00000E+00  1.22982E-01
      21    -1     0     0   502   512  0.000000000E+00  0.000000000E+00  9.249071300E+01  9.249071300E+01  0.000000000E+00  0.00000E+00  9.000E+00
      21    -1     0     0   501   502  0.000000000E+00  0.000000000E+00 -4.802195211E+02  4.802195211E+02  0.000000000E+00  0.00000E+00  9.000E+00
      25     1     1     2     0     0 -5.299651279E+01 -4.963322342E+01 -4.796518473E+01  1.523080634E+02  1.250000000E+02  0.00000E+00  9.000E+00
      25     1     1     2     0     0 -2.523257336E+01 -1.958688062E+01 -2.553810109E+02  2.861202359E+02  1.250000000E+02  0.00000E+00  9.000E+00
      21     1     1     2   501   512  7.822908615E+01  6.922010404E+01 -8.438261239E+01  1.342819347E+02  0.000000000E+00  0.00000E+00  9.000E+00
#rwgt            1           1  0.10295145610214482                3      402504           0
</event>
<event>
      5   9999  3.79277E-02  2.00157E+01 -1.00000E+00  1.66341E-01
      21    -1     0     0   502   511  0.000000000E+00  0.000000000E+00  2.529318423E+02  2.529318423E+02  0.000000000E+00  0.00000E+00  9.000E+00
      21    -1     0     0   501   502  0.000000000E+00  0.000000000E+00 -2.132544255E+02  2.132544255E+02  0.000000000E+00  0.00000E+00  9.000E+00
      25     1     1     2     0     0 -1.701390838E+02  4.654907812E+01 -4.368521910E+00  2.162364643E+02  1.250000000E+02  0.00000E+00  9.000E+00
      25     1     1     2     0     0  1.566646164E+02 -6.134999788E+01  9.246819843E+00  2.098049760E+02  1.250000000E+02  0.00000E+00  9.000E+00
      21     1     1     2   501   511  1.347446744E+01  1.480091976E+01  3.479911890E+01  4.014482750E+01  4.768371582E-07  0.00000E+00  9.000E+00
#rwgt            1           1   4.5281488986011545E-002           3      402567           0
</event>
<event>
      5   9999  3.79277E-02  1.16813E+02 -1.00000E+00  1.20867E-01
      21    -1     0     0   502   501  0.000000000E+00  0.000000000E+00  7.003761444E+01  7.003761444E+01  0.000000000E+00  0.00000E+00  9.000E+00
      21    -1     0     0   501   512  0.000000000E+00  0.000000000E+00 -1.208414160E+03  1.208414160E+03  0.000000000E+00  0.00000E+00  9.000E+00
      25     1     1     2     0     0  8.479102151E+01 -5.864917532E+01 -3.796254078E+02  4.127586381E+02  1.250000000E+02  0.00000E+00  9.000E+00
      25     1     1     2     0     0 -1.626608833E+02  1.457209027E+02 -2.963679216E+02  3.887828306E+02  1.250000000E+02  0.00000E+00  9.000E+00
      21     1     1     2   502   512  7.786986178E+01 -8.707172741E+01 -4.623832163E+02  4.769103058E+02  0.000000000E+00  0.00000E+00  9.000E+00
#rwgt            1           1   2.8826971311689414E-002           3      402803           0
</event>
<event>
      5   9999  3.79277E-02  1.27929E+01 -1.00000E+00  1.84153E-01
      21    -1     0     0   502   501  0.000000000E+00  0.000000000E+00  8.223974422E+02  8.223974422E+02  0.000000000E+00  0.00000E+00  9.000E+00
      21    -1     0     0   511   502  0.000000000E+00  0.000000000E+00 -1.871022153E+02  1.871022153E+02  0.000000000E+00  0.00000E+00  9.000E+00
      25     1     1     2     0     0 -1.635126682E+02  3.484233824E+01  5.916912286E+02  6.274343720E+02  1.250000000E+02  0.00000E+00  9.000E+00
      25     1     1     2     0     0  1.603780839E+02 -2.243945675E+01  1.632573146E+02  2.617300322E+02  1.250000000E+02  0.00000E+00  9.000E+00
      21     1     1     2   511   501  3.134584312E+00 -1.240288149E+01 -1.196533162E+02  1.203352532E+02  0.000000000E+00  0.00000E+00  9.000E+00
#rwgt            2          11   1.1807385127293483E-003           3      402987           0
</event>
<event>
      5   9999 -3.79277E-02  2.70833E+01 -1.00000E+00  1.56190E-01
      21    -1     0     0   502   501  0.000000000E+00  0.000000000E+00  1.830918709E+02  1.830918709E+02  0.000000000E+00  0.00000E+00  9.000E+00
       2    -1     0     0   501     0  0.000000000E+00  0.000000000E+00 -3.572906913E+03  3.572906913E+03  0.000000000E+00  0.00000E+00  9.000E+00
      25     1     1     2     0     0  4.962093697E+01  1.498025021E+02 -1.072231532E+02  2.280895255E+02  1.250000000E+02  0.00000E+00  9.000E+00
      25     1     1     2     0     0 -4.751393785E+01 -1.228013209E+02  5.538978013E+01  1.898177190E+02  1.250000000E+02  0.00000E+00  9.000E+00
       2     1     1     2   502     0 -2.106999128E+00 -2.700118125E+01 -3.337981669E+03  3.338091540E+03  7.475249459E-05  0.00000E+00  9.000E+00
#rwgt            1           1  -1.1739387842046841E-002           3      403157           0
</event>
<event>
      5   9999  3.79277E-02  6.67984E+01 -1.00000E+00  1.32259E-01
      21    -1     0     0   502   511  0.000000000E+00  0.000000000E+00  7.261529592E+02  7.261529592E+02  0.000000000E+00  0.00000E+00  9.000E+00
      21    -1     0     0   501   502  0.000000000E+00  0.000000000E+00 -2.265284950E+02  2.265284950E+02  0.000000000E+00  0.00000E+00  9.000E+00
      25     1     1     2     0     0 -1.527139878E+02  7.187575543E+01 -5.649138283E+01  2.174947416E+02  1.250000000E+02  0.00000E+00  9.000E+00
      25     1     1     2     0     0  1.132578496E+02 -1.797545187E+01 -5.392576965E+00  1.697189949E+02  1.250000000E+02  0.00000E+00  9.000E+00
      21     1     1     2   501   511  3.945613820E+01 -5.390030356E+01  5.615084240E+02  5.654677177E+02  0.000000000E+00  0.00000E+00  9.000E+00
#rwgt            1           1   3.5839718431782588E-002           3      403361           0
</event>
<event>
      5   9999  3.79277E-02  1.18890E+02 -1.00000E+00  1.20540E-01
      21    -1     0     0   502   512  0.000000000E+00  0.000000000E+00  4.682381400E+02  4.682381400E+02  0.000000000E+00  0.00000E+00  9.000E+00
      21    -1     0     0   501   502  0.000000000E+00  0.000000000E+00 -2.051974147E+02  2.051974147E+02  0.000000000E+00  0.00000E+00  9.000E+00
      25     1     1     2     0     0  1.416812744E+00  1.252648072E+02  1.945717626E+02  2.630141632E+02  1.250000000E+02  0.00000E+00  9.000E+00
      25     1     1     2     0     0 -5.186635230E+01 -1.760909229E+01 -1.238680376E+02  1.843054242E+02  1.250000000E+02  0.00000E+00  9.000E+00
      21     1     1     2   501   512  5.044953955E+01 -1.076557149E+02  1.923370004E+02  2.261159674E+02  3.814697266E-06  0.00000E+00  9.000E+00
#rwgt            1           1   4.2283886009994991E-002           3      403585           0
</event>
<event>
      5   9999  3.79277E-02  3.05262E+01 -1.00000E+00  1.52517E-01
      21    -1     0     0   511   501  0.000000000E+00  0.000000000E+00  2.108348858E+03  2.108348858E+03  0.000000000E+00  0.00000E+00  9.000E+00
      21    -1     0     0   501   502  0.000000000E+00  0.000000000E+00 -2.228843267E+01  2.228843267E+01  0.000000000E+00  0.00000E+00  9.000E+00
      25     1     1     2     0     0  1.332072409E+02 -8.230613461E+01  8.050612451E+02  8.296186336E+02  1.250000000E+02  0.00000E+00  9.000E+00
      25     1     1     2     0     0 -1.110385461E+02  1.032917516E+02  1.084700635E+03  1.102360745E+03  1.250000000E+02  0.00000E+00  9.000E+00
      21     1     1     2   511   502 -2.216869479E+01 -2.098561699E+01  1.962985459E+02  1.986579127E+02  0.000000000E+00  0.00000E+00  9.000E+00
#rwgt            1           1  0.11266570411517082                3      403636           0
</event>
<event>
      5   9999  3.79277E-02  2.30675E+01 -1.00000E+00  1.61413E-01
      21    -1     0     0   512   501  0.000000000E+00  0.000000000E+00  1.281127749E+02  1.281127749E+02  0.000000000E+00  0.00000E+00  9.000E+00
      21    -1     0     0   501   502  0.000000000E+00  0.000000000E+00 -5.977315169E+02  5.977315169E+02  0.000000000E+00  0.00000E+00  9.000E+00
      25     1     1     2     0     0  1.066247666E+02  1.784528541E+02 -2.570251939E+02  3.534136560E+02  1.250000000E+02  0.00000E+00  9.000E+00
      25     1     1     2     0     0 -8.469145466E+01 -1.855968965E+02 -2.384429703E+02  3.377852877E+02  1.250000000E+02  0.00000E+00  9.000E+00
      21     1     1     2   512   502 -2.193331196E+01  7.144042368E+00  2.584942219E+01  3.464534807E+01  5.840038640E-07  0.00000E+00  9.000E+00
#rwgt            1           1   3.0301041002639476E-002           3      403874           0
</event>
<event>
      5   9999  3.79277E-02  6.73733E+01 -1.00000E+00  1.32067E-01
      21    -1     0     0   502   501  0.000000000E+00  0.000000000E+00  7.295739834E+02  7.295739834E+02  0.000000000E+00  0.00000E+00  9.000E+00
      21    -1     0     0   511   502  0.000000000E+00  0.000000000E+00 -4.014587157E+02  4.014587157E+02  0.000000000E+00  0.00000E+00  9.000E+00
      25     1     1     2     0     0 -5.507652921E+01 -2.070768572E+02  5.697059057E+02  6.213727286E+02  1.250000000E+02  0.00000E+00  9.000E+00
      25     1     1     2     0     0  1.122889681E+02  1.714974160E+02  1.867135018E+01  2.408190095E+02  1.250000000E+02  0.00000E+00  9.000E+00
      21     1     1     2   511   501 -5.721243885E+01  3.557944121E+01 -2.602619882E+02  2.688409610E+02  0.000000000E+00  0.00000E+00  9.000E+00
#rwgt            2          11   2.1155989223379506E-003           3      404274           0
</event>
<event>
      5   9999  3.79277E-02  7.50222E+01 -1.00000E+00  1.29715E-01
      21    -1     0     0   512   501  0.000000000E+00  0.000000000E+00  1.224909780E+02  1.224909780E+02  0.000000000E+00  0.00000E+00  9.000E+00
      21    -1     0     0   501   502  0.000000000E+00  0.000000000E+00 -1.168505271E+03  1.168505271E+03  0.000000000E+00  0.00000E+00  9.000E+00
      25     1     1     2     0     0  2.202806353E+01  2.035890629E+02 -6.189604432E+02  6.638303792E+02  1.250000000E+02  0.00000E+00  9.000E+00
      25     1     1     2     0     0 -9.124312720E+01 -1.746476089E+02 -4.810989653E+02  5.347039461E+02  1.250000000E+02  0.00000E+00  9.000E+00
      21     1     1     2   512   502  6.921506367E+01 -2.894145399E+01  5.404511561E+01  9.246192362E+01  1.348699152E-06  0.00000E+00  9.000E+00
#rwgt            1           1   3.5865792395875257E-002           3      404369           0
</event>
<event>
      5   9999  3.79277E-02  8.44364E+01 -1.00000E+00  1.27225E-01
      21    -1     0     0   511   501  0.000000000E+00  0.000000000E+00  8.430795354E+02  8.430795354E+02  0.000000000E+00  0.00000E+00  9.000E+00
      21    -1     0     0   501   502  0.000000000E+00  0.000000000E+00 -6.670752510E+01  6.670752510E+01  0.000000000E+00  0.00000E+00  9.000E+00
      25     1     1     2     0     0  1.000605011E+02  9.045055461E+01  1.800067212E+02  2.573340755E+02  1.250000000E+02  0.00000E+00  9.000E+00
      25     1     1     2     0     0 -2.343855648E+01 -1.259269664E+02  3.746641924E+02  4.152170804E+02  1.250000000E+02  0.00000E+00  9.000E+00
      21     1     1     2   511   502 -7.662194461E+01  3.547641175E+01  2.217010967E+02  2.372359047E+02  5.394796609E-06  0.00000E+00  9.000E+00
#rwgt            1           1   3.4090687204608582E-002           3      404469           0
</event>
<event>
      5   9999  3.79277E-02  7.51796E+00 -1.00000E+00  2.11263E-01
      21    -1     0     0   502   501  0.000000000E+00  0.000000000E+00  3.115642779E+02  3.115642779E+02  0.000000000E+00  0.00000E+00  9.000E+00
      21    -1     0     0   501   512  0.000000000E+00  0.000000000E+00 -5.525943111E+02  5.525943111E+02  0.000000000E+00  0.00000E+00  9.000E+00
      25     1     1     2     0     0 -2.407537773E+02 -9.039888651E+01 -1.216086844E+01  2.861943862E+02  1.250000000E+02  0.00000E+00  9.000E+00
      25     1     1     2     0     0  2.380007634E+02  8.340312664E+01  6.099448434E+01  2.880030764E+02  1.250000000E+02  0.00000E+00  9.000E+00
      21     1     1     2   502   512  2.753013912E+00  6.995759867E+00 -2.898636490E+02  2.899611263E+02  0.000000000E+00  0.00000E+00  9.000E+00
#rwgt            1           1   3.2472013769970554E-002           3      404834           0
</event>
<event>
      5   9999  3.79277E-02  3.95706E+01 -1.00000E+00  1.45131E-01
      21    -1     0     0   502   501  0.000000000E+00  0.000000000E+00  2.685551685E+01  2.685551685E+01  0.000000000E+00  0.00000E+00  9.000E+00
       2    -1     0     0   501     0  0.000000000E+00  0.000000000E+00 -1.294166768E+03  1.294166768E+03  0.000000000E+00  0.00000E+00  9.000E+00
      25     1     1     2     0     0 -8.491271571E+01 -8.139275969E+01 -7.142868428E+02  7.346193875E+02  1.250000000E+02  0.00000E+00  9.000E+00
      25     1     1     2     0     0  6.994194429E+01  4.476345760E+01 -3.725094991E+02  4.016017550E+02  1.250000000E+02  0.00000E+00  9.000E+00
       2     1     1     2   502     0  1.497077142E+01  3.662930208E+01 -1.805149091E+02  1.848011423E+02  2.697398305E-06  0.00000E+00  9.000E+00
#rwgt            1           1   5.4897993097218545E-002           3      405191           0
</event>
<event>
      5   9999  3.79277E-02  5.55441E+01 -1.00000E+00  1.36519E-01
      21    -1     0     0   511   501  0.000000000E+00  0.000000000E+00  9.507151945E+01  9.507151945E+01  0.000000000E+00  0.00000E+00  9.000E+00
      21    -1     0     0   501   502  0.000000000E+00  0.000000000E+00 -9.867449447E+02  9.867449447E+02  0.000000000E+00  0.00000E+00  9.000E+00
      25     1     1     2     0     0  2.580147643E+01  4.825666086E+01 -8.283787970E+02  8.395420495E+02  1.250000000E+02  0.00000E+00  9.000E+00
      25     1     1     2     0     0 -5.737638754E+01 -9.395320722E+01 -1.254642320E+01  1.670379230E+02  1.250000000E+02  0.00000E+00  9.000E+00
      21     1     1     2   511   502  3.157491111E+01  4.569654636E+01 -5.074820505E+01  7.523649165E+01  1.348699152E-06  0.00000E+00  9.000E+00
#rwgt            1           1   4.0621144922154309E-002           3      405368           0
</event>
<event>
      5   9999  3.79277E-02  4.85625E+01 -1.00000E+00  1.39802E-01
      21    -1     0     0   502   512  0.000000000E+00  0.000000000E+00  9.908792293E+02  9.908792293E+02  0.000000000E+00  0.00000E+00  9.000E+00
      21    -1     0     0   501   502  0.000000000E+00  0.000000000E+00 -3.694875779E+02  3.694875779E+02  0.000000000E+00  0.00000E+00  9.000E+00
      25     1     1     2     0     0  1.494661815E+02 -1.895657788E+02 -1.839836550E+02  3.282534222E+02  1.250000000E+02  0.00000E+00  9.000E+00
      25     1     1     2     0     0 -1.113282178E+02  1.595023720E+02  6.028429033E+00  2.312927165E+02  1.250000000E+02  0.00000E+00  9.000E+00
      21     1     1     2   501   512 -3.813796373E+01  3.006340677E+01  7.993468774E+02  8.008206685E+02  0.000000000E+00  0.00000E+00  9.000E+00
#rwgt            1           1   6.3601101867007306E-002           3      405471           0
</event>
<event>
      5   9999  3.79277E-02  7.29095E+01 -1.00000E+00  1.30331E-01
      21    -1     0     0   502   501  0.000000000E+00  0.000000000E+00  9.760249011E+01  9.760249011E+01  0.000000000E+00  0.00000E+00  9.000E+00
      21    -1     0     0   501   511  0.000000000E+00  0.000000000E+00 -1.305067912E+03  1.305067912E+03  0.000000000E+00  0.00000E+00  9.000E+00
      25     1     1     2     0     0  1.698727627E+02  2.189516361E+02 -7.616508864E+02  8.200814881E+02  1.250000000E+02  0.00000E+00  9.000E+00
      25     1     1     2     0     0 -1.490490886E+02 -1.490791120E+02 -1.724628483E+02  2.996809078E+02  1.250000000E+02  0.00000E+00  9.000E+00
      21     1     1     2   502   511 -2.082367410E+01 -6.987252413E+01 -2.733516869E+02  2.829080058E+02  0.000000000E+00  0.00000E+00  9.000E+00
#rwgt            1           1   4.2139138935565146E-002           3      405580           0
</event>
<event>
      5   9999  3.79277E-02  4.48368E+00 -1.00000E+00  2.52311E-01
      21    -1     0     0   502   512  0.000000000E+00  0.000000000E+00  8.778392533E+01  8.778392533E+01  0.000000000E+00  0.00000E+00  9.000E+00
      21    -1     0     0   501   502  0.000000000E+00  0.000000000E+00 -7.017338137E+02  7.017338137E+02  0.000000000E+00  0.00000E+00  9.000E+00
      25     1     1     2     0     0 -7.939586719E+01  1.107175795E+02 -5.544580345E+01  1.930319229E+02  1.250000000E+02  0.00000E+00  9.000E+00
      25     1     1     2     0     0  7.663857542E+01 -1.142532177E+02 -5.612481894E+02  5.912290581E+02  1.250000000E+02  0.00000E+00  9.000E+00
      21     1     1     2   501   512  2.757291763E+00  3.535638209E+00  2.744104491E+00  5.256758019E+00  0.000000000E+00  0.00000E+00  9.000E+00
#rwgt            1           1   3.5714088982509981E-002           3      405880           0
</event>
<event>
      5   9999  3.79277E-02  6.75256E+01 -1.00000E+00  1.32017E-01
      21    -1     0     0   502   511  0.000000000E+00  0.000000000E+00  6.461681796E+02  6.461681796E+02  0.000000000E+00  0.00000E+00  9.000E+00
      21    -1     0     0   501   502  0.000000000E+00  0.000000000E+00 -2.315419921E+02  2.315419921E+02  0.000000000E+00  0.00000E+00  9.000E+00
      25     1     1     2     0     0 -1.314774104E+02 -1.059424452E+02  7.694533571E+01  2.237313027E+02  1.250000000E+02  0.00000E+00  9.000E+00
      25     1     1     2     0     0  9.455943086E+01  1.624824497E+02 -7.339823233E+01  2.373906758E+02  1.250000000E+02  0.00000E+00  9.000E+00
      21     1     1     2   501   511  3.691797949E+01 -5.654000456E+01  4.110790841E+02  4.165881932E+02  5.394796609E-06  0.00000E+00  9.000E+00
#rwgt            2          11   1.4718810523820206E-003           3      406265           0
</event>
<event>
      5   9999  3.79277E-02  8.49835E+00 -1.00000E+00  2.04297E-01
      21    -1     0     0   512   501  0.000000000E+00  0.000000000E+00  2.732821173E+02  2.732821173E+02  0.000000000E+00  0.00000E+00  9.000E+00
      21    -1     0     0   501   502  0.000000000E+00  0.000000000E+00 -1.949443632E+02  1.949443632E+02  0.000000000E+00  0.00000E+00  9.000E+00
      25     1     1     2     0     0 -4.465484029E+01 -9.045991909E+00 -1.195610879E+02  1.788735265E+02  1.250000000E+02  0.00000E+00  9.000E+00
      25     1     1     2     0     0  5.008408456E+01  2.508012170E+00  5.384432869E+01  1.450479830E+02  1.250000000E+02  0.00000E+00  9.000E+00
      21     1     1     2   512   502 -5.429244268E+00  6.537979738E+00  1.440545133E+02  1.443049711E+02  1.907348633E-06  0.00000E+00  9.000E+00
#rwgt            1           1   4.5334861121682592E-002           3      406285           0
</event>
<event>
      5   9999  3.79277E-02  2.17833E+01 -1.00000E+00  1.63366E-01
      21    -1     0     0   502   501  0.000000000E+00  0.000000000E+00  1.821204230E+02  1.821204230E+02  0.000000000E+00  0.00000E+00  9.000E+00
      21    -1     0     0   501   511  0.000000000E+00  0.000000000E+00 -1.284528933E+03  1.284528933E+03  0.000000000E+00  0.00000E+00  9.000E+00
      25     1     1     2     0     0  3.355711403E+02 -1.183139172E+02 -1.365387886E+02  4.010910296E+02  1.250000000E+02  0.00000E+00  9.000E+00
      25     1     1     2     0     0 -3.433563221E+02  1.386585471E+02 -7.243646904E+02  8.230728773E+02  1.250000000E+02  0.00000E+00  9.000E+00
      21     1     1     2   502   511  7.785181779E+00 -2.034462998E+01 -2.415050309E+02  2.424854490E+02  2.697398305E-06  0.00000E+00  9.000E+00
#rwgt            1           1   3.7963339890902795E-002           3      406562           0
</event>
<event>
      5   9999  3.79277E-02  7.04254E+01 -1.00000E+00  1.31088E-01
      21    -1     0     0   502   512  0.000000000E+00  0.000000000E+00  1.701353236E+02  1.701353236E+02  0.000000000E+00  0.00000E+00  9.000E+00
      21    -1     0     0   501   502  0.000000000E+00  0.000000000E+00 -8.642657803E+02  8.642657803E+02  0.000000000E+00  0.00000E+00  9.000E+00
      25     1     1     2     0     0  2.345015632E+02  1.449289302E+02 -6.460624032E+02  7.134542780E+02  1.250000000E+02  0.00000E+00  9.000E+00
      25     1     1     2     0     0 -1.684570516E+02 -1.204778030E+02 -1.294880494E+01  2.422505951E+02  1.250000000E+02  0.00000E+00  9.000E+00
      21     1     1     2   501   512 -6.604451155E+01 -2.445112721E+01 -3.511924858E+01  7.869623084E+01  1.168007728E-06  0.00000E+00  9.000E+00
#rwgt            1           1  0.19625849095606029                3      406829           0
</event>
<event>
      5   9999  3.79277E-02  6.52360E+01 -1.00000E+00  1.32790E-01
      21    -1     0     0   502   501  0.000000000E+00  0.000000000E+00  4.166751196E+02  4.166751196E+02  0.000000000E+00  0.00000E+00  9.000E+00
      21    -1     0     0   501   511  0.000000000E+00  0.000000000E+00 -4.036357550E+02  4.036357550E+02  0.000000000E+00  0.00000E+00  9.000E+00
      25     1     1     2     0     0  2.022058668E+02  1.018524586E+02  9.520128156E+01  2.755892231E+02  1.250000000E+02  0.00000E+00  9.000E+00
      25     1     1     2     0     0 -1.373389081E+02 -9.492362973E+01  1.794270721E+02  2.751209650E+02  1.250000000E+02  0.00000E+00  9.000E+00
      21     1     1     2   502   511 -6.486695865E+01 -6.928828878E+00 -2.615889890E+02  2.696006865E+02  0.000000000E+00  0.00000E+00  9.000E+00
#rwgt            1           1   3.8677128660554866E-002           3      407013           0
</event>
<event>
      5   9999  3.79277E-02  3.89785E+01 -1.00000E+00  1.45540E-01
      21    -1     0     0   502   501  0.000000000E+00  0.000000000E+00  1.496652102E+02  1.496652102E+02  0.000000000E+00  0.00000E+00  9.000E+00
      21    -1     0     0   501   512  0.000000000E+00  0.000000000E+00 -1.672801269E+03  1.672801269E+03  0.000000000E+00  0.00000E+00  9.000E+00
      25     1     1     2     0     0  2.366258261E+02  3.789368596E+02 -4.861674030E+02  6.719885928E+02  1.250000000E+02  0.00000E+00  9.000E+00
      25     1     1     2     0     0 -1.985891601E+02 -3.874534616E+02 -8.928514438E+02  1.001182571E+03  1.250000000E+02  0.00000E+00  9.000E+00
      21     1     1     2   502   512 -3.803666601E+01  8.516601942E+00 -1.441172118E+02  1.492953154E+02  0.000000000E+00  0.00000E+00  9.000E+00
#rwgt            1           1  0.13777312828391022                3      407075           0
</event>
<event>
      5   9999  3.79277E-02  9.58861E+01 -1.00000E+00  1.24654E-01
      21    -1     0     0   502   501  0.000000000E+00  0.000000000E+00  1.389107274E+02  1.389107274E+02  0.000000000E+00  0.00000E+00  9.000E+00
      21    -1     0     0   511   502  0.000000000E+00  0.000000000E+00 -9.176847209E+02  9.176847209E+02  0.000000000E+00  0.00000E+00  9.000E+00
      25     1     1     2     0     0  2.898590688E+01 -8.511856625E+01 -6.803440759E+02  6.975517290E+02  1.250000000E+02  0.00000E+00  9.000E+00
      25     1     1     2     0     0 -4.850277250E+01 -8.760295046E+00  8.007401992E+01  1.564164645E+02  1.250000000E+02  0.00000E+00  9.000E+00
      21     1     1     2   511   501  1.951686562E+01  9.387886129E+01 -1.785039376E+02  2.026272548E+02  0.000000000E+00  0.00000E+00  9.000E+00
#rwgt            1           1   1.2945951129209715E-002           3      407172           0
</event>
<event>
      5   9999  3.79277E-02  8.33477E+01 -1.00000E+00  1.27494E-01
      21    -1     0     0   512   501  0.000000000E+00  0.000000000E+00  5.776049176E+02  5.776049176E+02  0.000000000E+00  0.00000E+00  9.000E+00
      21    -1     0     0   501   502  0.000000000E+00  0.000000000E+00 -1.430262386E+02  1.430262386E+02  0.000000000E+00  0.00000E+00  9.000E+00
      25     1     1     2     0     0 -1.556945755E+02  8.105526234E+01 -1.628089370E+00  2.154957240E+02  1.250000000E+02  0.00000E+00  9.000E+00
      25     1     1     2     0     0  7.267743447E+01 -8.847046814E+01  3.200653454E+02  3.621820792E+02  1.250000000E+02  0.00000E+00  9.000E+00
      21     1     1     2   512   502  8.301714103E+01  7.415205802E+00  1.161414230E+02  1.429533530E+02  1.348699152E-06  0.00000E+00  9.000E+00
#rwgt            1           1   2.7016394977185172E-002           3      407240           0
</event>
<event>
      5   9999  3.79277E-02  1.34906E+01 -1.00000E+00  1.81836E-01
      21    -1     0     0   502   501  0.000000000E+00  0.000000000E+00  1.217385057E+02  1.217385057E+02  0.000000000E+00  0.00000E+00  9.000E+00
      21    -1     0     0   511   502  0.000000000E+00  0.000000000E+00 -8.873801227E+02  8.873801227E+02  0.000000000E+00  0.00000E+00  9.000E+00
      25     1     1     2     0     0 -1.041736847E+02 -7.962214807E+01  3.635711316E+01  1.847665628E+02  1.250000000E+02  0.00000E+00  9.000E+00
      25     1     1     2     0     0  1.063108420E+02  6.630186545E+01 -7.540749861E+02  7.745656958E+02  1.250000000E+02  0.00000E+00  9.000E+00
      21     1     1     2   511   501 -2.137157234E+00  1.332028261E+01 -4.792374406E+01  4.978636977E+01  6.743495762E-07  0.00000E+00  9.000E+00
#rwgt            1           1   4.9486012364781215E-002           3      407367           0
</event>
<event>
      5   9999  3.79277E-02  1.92539E+01 -1.00000E+00  1.67743E-01
      21    -1     0     0   512   501  0.000000000E+00  0.000000000E+00  7.913332904E+02  7.913332904E+02  0.000000000E+00  0.00000E+00  9.000E+00
      21    -1     0     0   501   502  0.000000000E+00  0.000000000E+00 -5.130153772E+01  5.130153772E+01  0.000000000E+00  0.00000E+00  9.000E+00
      25     1     1     2     0     0 -1.031572285E+02  2.179983108E+00  1.454666567E+02  2.177882328E+02  1.250000000E+02  0.00000E+00  9.000E+00
      25     1     1     2     0     0  9.398642730E+01 -1.910952817E+01  4.091971089E+02  4.384813525E+02  1.250000000E+02  0.00000E+00  9.000E+00
      21     1     1     2   512   502  9.170801219E+00  1.692954506E+01  1.853679871E+02  1.863652428E+02  2.697398305E-06  0.00000E+00  9.000E+00
#rwgt            1           1   4.3434141902027427E-002           3      407562           0
</event>
<event>
      5   9999  3.79277E-02  2.54038E+02 -1.00000E+00  1.07993E-01
      21    -1     0     0   502   511  0.000000000E+00  0.000000000E+00  3.204237688E+02  3.204237688E+02  0.000000000E+00  0.00000E+00  9.000E+00
      21    -1     0     0   501   502  0.000000000E+00  0.000000000E+00 -5.547072761E+02  5.547072761E+02  0.000000000E+00  0.00000E+00  9.000E+00
      25     1     1     2     0     0 -2.473843226E+02  7.721344628E+01  2.963923975E+01  2.892479972E+02  1.250000000E+02  0.00000E+00  9.000E+00
      25     1     1     2     0     0 -6.630822559E+00 -7.377803927E+01 -2.960859614E+02  3.298167119E+02  1.250000000E+02  0.00000E+00  9.000E+00
      21     1     1     2   501   511  2.540151451E+02 -3.435407011E+00  3.216321435E+01  2.560663358E+02  3.844384073E-06  0.00000E+00  9.000E+00
#rwgt            1           1   4.0313517355325172E-002           3      407751           0
</event>
<event>
      5   9999  3.79277E-02  2.58729E+01 -1.00000E+00  1.57642E-01
      21    -1     0     0   502   501  0.000000000E+00  0.000000000E+00  1.031204445E+02  1.031204445E+02  0.000000000E+00  0.00000E+00  9.000E+00
      21    -1     0     0   512   502  0.000000000E+00  0.000000000E+00 -4.788724595E+02  4.788724595E+02  0.000000000E+00  0.00000E+00  9.000E+00
      25     1     1     2     0     0 -1.025906360E+02  6.110637219E+01 -2.432779985E+02  2.984426442E+02  1.250000000E+02  0.00000E+00  9.000E+00
      25     1     1     2     0     0  1.264513887E+02 -5.110274192E+01 -4.235450154E+01  1.897902730E+02  1.250000000E+02  0.00000E+00  9.000E+00
      21     1     1     2   512   501 -2.386075274E+01 -1.000363026E+01 -9.011951501E+01  9.375998680E+01  1.348699152E-06  0.00000E+00  9.000E+00
#rwgt            1           1  0.12369969672358377                3      407836           0
</event>
<event>
      5   9999  3.79277E-02  8.09564E+00 -1.00000E+00  2.06998E-01
      21    -1     0     0   502   511  0.000000000E+00  0.000000000E+00  1.003092548E+02  1.003092548E+02  0.000000000E+00  0.00000E+00  9.000E+00
      21    -1     0     0   501   502  0.000000000E+00  0.000000000E+00 -3.584378909E+02  3.584378909E+02  0.000000000E+00  0.00000E+00  9.000E+00
      25     1     1     2     0     0  8.497246485E+01 -1.017734813E+02 -1.005111308E+02  2.081000929E+02  1.250000000E+02  0.00000E+00  9.000E+00
      25     1     1     2     0     0 -7.744345522E+01  9.879801766E+01 -1.631553380E+02  2.408385380E+02  1.250000000E+02  0.00000E+00  9.000E+00
      21     1     1     2   501   511 -7.529009624E+00  2.975463606E+00  5.537832715E+00  9.808514708E+00  1.332800375E-07  0.00000E+00  9.000E+00
#rwgt            1           1   4.4010220665161734E-002           3      407960           0
</event>
<event>
      5   9999  3.79277E-02  7.75527E+00 -1.00000E+00  2.09451E-01
      21    -1     0     0   512   501  0.000000000E+00  0.000000000E+00  4.110089434E+01  4.110089434E+01  0.000000000E+00  0.00000E+00  9.000E+00
      21    -1     0     0   501   502  0.000000000E+00  0.000000000E+00 -1.090962282E+03  1.090962282E+03  0.000000000E+00  0.00000E+00  9.000E+00
      25     1     1     2     0     0  2.344548072E+01  1.194348782E+02 -7.496557534E+02  7.696902814E+02  1.250000000E+02  0.00000E+00  9.000E+00
      25     1     1     2     0     0 -1.825226246E+01 -1.251946237E+02 -3.051344537E+02  3.531839092E+02  1.250000000E+02  0.00000E+00  9.000E+00
      21     1     1     2   512   502 -5.193218260E+00  5.759745527E+00  4.928819898E+00  9.188985255E+00  8.429369702E-08  0.00000E+00  9.000E+00
#rwgt            1           1   3.5518028992386576E-002           3      408216           0
</event>
<event>
      5   9999  3.79277E-02  1.69957E+02 -1.00000E+00  1.14283E-01
      21    -1     0     0   502   501  0.000000000E+00  0.000000000E+00  2.547119762E+02  2.547119762E+02  0.000000000E+00  0.00000E+00  9.000E+00
      21    -1     0     0   511   502  0.000000000E+00  0.000000000E+00 -4.637235228E+02  4.637235228E+02  0.000000000E+00  0.00000E+00  9.000E+00
      25     1     1     2     0     0  1.675876274E+02 -1.260085898E+02  2.265458555E+00  2.441186389E+02  1.250000000E+02  0.00000E+00  9.000E+00
      25     1     1     2     0     0 -8.983769628E+01 -2.512129828E+01  4.898018273E+01  1.634807316E+02  1.250000000E+02  0.00000E+00  9.000E+00
      21     1     1     2   511   501 -7.774993115E+01  1.511298881E+02 -2.602571879E+02  3.108361284E+02  0.000000000E+00  0.00000E+00  9.000E+00
#rwgt            1           1   3.3681316903085304E-002           3      408492           0
</event>
<event>
      5   9999  3.79277E-02  2.84077E+01 -1.00000E+00  1.54703E-01
      21    -1     0     0   502   501  0.000000000E+00  0.000000000E+00  1.467540698E+02  1.467540698E+02  0.000000000E+00  0.00000E+00  9.000E+00
      21    -1     0     0   512   502  0.000000000E+00  0.000000000E+00 -2.972486093E+02  2.972486093E+02  0.000000000E+00  0.00000E+00  9.000E+00
      25     1     1     2     0     0 -5.328594423E+01 -7.306530113E+01  4.733824322E+01  1.613810378E+02  1.250000000E+02  0.00000E+00  9.000E+00
      25     1     1     2     0     0  6.218113503E+01  1.000444533E+02 -1.813591024E+02  2.497829262E+02  1.250000000E+02  0.00000E+00  9.000E+00
      21     1     1     2   512   501 -8.895190800E+00 -2.697915219E+01 -1.647368035E+01  3.283871521E+01  7.907449699E-07  0.00000E+00  9.000E+00
#rwgt            1           1   2.9111039514954716E-002           3      408596           0
</event>
<event>
      5   9999  3.79277E-02  4.96908E+00 -1.00000E+00  2.43080E-01
      21    -1     0     0   502   501  0.000000000E+00  0.000000000E+00  8.832293445E+01  8.832293445E+01  0.000000000E+00  0.00000E+00  9.000E+00
      21    -1     0     0   501   511  0.000000000E+00  0.000000000E+00 -1.201520807E+03  1.201520807E+03  0.000000000E+00  0.00000E+00  9.000E+00
      25     1     1     2     0     0 -9.231822368E+01 -1.096619228E+02 -4.094425727E+02  4.514605321E+02  1.250000000E+02  0.00000E+00  9.000E+00
      25     1     1     2     0     0  8.742718314E+01  1.087847137E+02 -6.308339681E+01  1.976920363E+02  1.250000000E+02  0.00000E+00  9.000E+00
      21     1     1     2   502   511  4.891040541E+00  8.772091490E-01 -6.406719032E+02  6.406911732E+02  0.000000000E+00  0.00000E+00  9.000E+00
#rwgt            1           1   2.2394506586385626E-002           3      408698           0
</event>
<event>
      5   9999  3.79277E-02  2.06548E+02 -1.00000E+00  1.11141E-01
      21    -1     0     0   502   501  0.000000000E+00  0.000000000E+00  4.963992323E+02  4.963992323E+02  0.000000000E+00  0.00000E+00  9.000E+00
      -3    -1     0     0     0   502  0.000000000E+00  0.000000000E+00 -2.768324728E+02  2.768324728E+02  0.000000000E+00  0.00000E+00  9.000E+00
      25     1     1     2     0     0 -2.149478777E+01 -3.934349460E+01 -1.095331442E+02  1.721407742E+02  1.250000000E+02  0.00000E+00  9.000E+00
      25     1     1     2     0     0  2.244326991E+02  8.951291076E-01  2.959566312E+02  3.919007084E+02  1.250000000E+02  0.00000E+00  9.000E+00
      -3     1     1     2     0   501 -2.029379114E+02  3.844836550E+01  3.314327257E+01  2.091902225E+02  3.234066955E-06  0.00000E+00  9.000E+00
#rwgt            2           8   8.1124256252608028E-006           3      409311           0
</event>
<event>
      5   9999  3.79277E-02  2.38963E+01 -1.00000E+00  1.60234E-01
       3    -1     0     0   502     0  0.000000000E+00  0.000000000E+00  2.814855953E+02  2.814855953E+02  0.000000000E+00  0.00000E+00  9.000E+00
      21    -1     0     0   501   502  0.000000000E+00  0.000000000E+00 -2.606910852E+02  2.606910852E+02  0.000000000E+00  0.00000E+00  9.000E+00
      25     1     1     2     0     0 -1.075683413E+02  1.265363719E+02 -4.065882374E+01  2.118030722E+02  1.250000000E+02  0.00000E+00  9.000E+00
      25     1     1     2     0     0  1.262787160E+02 -1.116718940E+02 -5.053808778E+01  2.158611228E+02  1.250000000E+02  0.00000E+00  9.000E+00
       3     1     1     2   501     0 -1.871037474E+01 -1.486447786E+01  1.119914216E+02  1.145124855E+02  1.907348633E-06  0.00000E+00  9.000E+00
#rwgt            1           1   2.5038954161686392E-002           3      409330           0
</event>
<event>
      5   9999  3.79277E-02  4.82110E+01 -1.00000E+00  1.39984E-01
      21    -1     0     0   502   501  0.000000000E+00  0.000000000E+00  2.138307296E+02  2.138307296E+02  0.000000000E+00  0.00000E+00  9.000E+00
      21    -1     0     0   501   511  0.000000000E+00  0.000000000E+00 -2.748222750E+02  2.748222750E+02  0.000000000E+00  0.00000E+00  9.000E+00
      25     1     1     2     0     0 -1.207301082E+02 -7.717021830E+01 -2.839963523E+01  1.922564457E+02  1.250000000E+02  0.00000E+00  9.000E+00
      25     1     1     2     0     0  1.536650855E+02  4.196246967E+01  4.275437276E+01  2.069462340E+02  1.250000000E+02  0.00000E+00  9.000E+00
      21     1     1     2   502   511 -3.293497729E+01  3.520774863E+01 -7.534628295E+01  8.945032502E+01  1.651812370E-06  0.00000E+00  9.000E+00
#rwgt            1           1   5.8805420322305707E-002           3      409688           0
</event>
<event>
      5   9999  3.79277E-02  7.27477E+00 -1.00000E+00  2.13217E-01
      21    -1     0     0   502   512  0.000000000E+00  0.000000000E+00  7.968914089E+02  7.968914089E+02  0.000000000E+00  0.00000E+00  9.000E+00
      21    -1     0     0   501   502  0.000000000E+00  0.000000000E+00 -1.284551999E+02  1.284551999E+02  0.000000000E+00  0.00000E+00  9.000E+00
      25     1     1     2     0     0 -1.623706867E+02  1.234140105E+02  3.189102493E+01  2.413240464E+02  1.250000000E+02  0.00000E+00  9.000E+00
      25     1     1     2     0     0  1.552440455E+02 -1.219534654E+02  5.553853251E+02  6.025373189E+02  1.250000000E+02  0.00000E+00  9.000E+00
      21     1     1     2   501   512  7.126641237E+00 -1.460545080E+00  8.115985903E+01  8.148524360E+01  9.536743164E-07  0.00000E+00  9.000E+00
#rwgt            1           1   3.9981335727314847E-002           3      409810           0
</event>
<event>
      5   9999  3.79277E-02  1.41309E+01 -1.00000E+00  1.79861E-01
      21    -1     0     0   502   511  0.000000000E+00  0.000000000E+00  1.661154219E+03  1.661154219E+03  0.000000000E+00  0.00000E+00  9.000E+00
      21    -1     0     0   501   502  0.000000000E+00  0.000000000E+00 -2.471797588E+01  2.471797588E+01  0.000000000E+00  0.00000E+00  9.000E+00
      25     1     1     2     0     0  4.653265641E+01 -1.285251790E+02  6.340801905E+02  6.605805763E+02  1.250000000E+02  0.00000E+00  9.000E+00
      25     1     1     2     0     0 -3.583868879E+01  1.192881540E+02  6.767168903E+02  6.993459980E+02  1.250000000E+02  0.00000E+00  9.000E+00
      21     1     1     2   501   511 -1.069396762E+01  9.237024981E+00  3.256391622E+02  3.259456205E+02  3.814697266E-06  0.00000E+00  9.000E+00
#rwgt            1           1   4.3902360700984147E-002           3      410149           0
</event>
<event>
      5   9999  3.79277E-02  1.06626E+01 -1.00000E+00  1.92590E-01
      21    -1     0     0   512   501  0.000000000E+00  0.000000000E+00  1.100012631E+02  1.100012631E+02  0.000000000E+00  0.00000E+00  9.000E+00
      21    -1     0     0   501   502  0.000000000E+00  0.000000000E+00 -5.021158851E+02  5.021158851E+02  0.000000000E+00  0.00000E+00  9.000E+00
      25     1     1     2     0     0  6.155321777E+01 -1.544004702E+02 -6.304946539E+01  2.173212803E+02  1.250000000E+02  0.00000E+00  9.000E+00
      25     1     1     2     0     0 -6.818430095E+01  1.460506504E+02 -3.243095305E+02  3.831208203E+02  1.250000000E+02  0.00000E+00  9.000E+00
      21     1     1     2   512   502  6.631083175E+00  8.349819788E+00 -4.755626157E+00  1.167504753E+01  2.528810911E-07  0.00000E+00  9.000E+00
#rwgt            1           1   4.0296397264893147E-002           3      410402           0
</event>
<event>
      5   9999  3.79277E-02  5.27703E+01 -1.00000E+00  1.37752E-01
      21    -1     0     0   502   501  0.000000000E+00  0.000000000E+00  1.404762849E+03  1.404762849E+03  0.000000000E+00  0.00000E+00  9.000E+00
      21    -1     0     0   501   511  0.000000000E+00  0.000000000E+00 -5.287492755E+01  5.287492755E+01  0.000000000E+00  0.00000E+00  9.000E+00
      25     1     1     2     0     0 -1.683724017E+02 -7.987248034E+01  5.460993330E+02  5.904052508E+02  1.250000000E+02  0.00000E+00  9.000E+00
      25     1     1     2     0     0  1.936147644E+02  1.262139266E+02  7.207412710E+02  7.671438014E+02  1.250000000E+02  0.00000E+00  9.000E+00
      21     1     1     2   502   511 -2.524236276E+01 -4.634144626E+01  8.504731729E+01  1.000887241E+02  9.536743164E-07  0.00000E+00  9.000E+00
#rwgt            1           1   4.1243213940192890E-002           3      410666           0
</event>
<event>
      5   9999  3.79277E-02  1.41768E+02 -1.00000E+00  1.17373E-01
      21    -1     0     0   502   501  0.000000000E+00  0.000000000E+00  1.973758877E+03  1.973758877E+03  0.000000000E+00  0.00000E+00  9.000E+00
       2    -1     0     0   501     0  0.000000000E+00  0.000000000E+00 -1.318901270E+03  1.318901270E+03  0.000000000E+00  0.00000E+00  9.000E+00
      25     1     1     2     0     0 -1.676795771E+02  4.498695019E+01  1.132141207E+03  1.152175759E+03  1.250000000E+02  0.00000E+00  9.000E+00
      25     1     1     2     0     0  1.432677314E+02  9.466361546E+01  8.140958911E+02  8.413465177E+02  1.250000000E+02  0.00000E+00  9.000E+00
       2     1     1     2   502     0  2.441184569E+01 -1.396505657E+02 -1.291379490E+03  1.299137871E+03  1.525878906E-05  0.00000E+00  9.000E+00
#rwgt            1           1  0.11846028661382232                3      410817           0
</event>
<event>
      5   9999  3.79277E-02  2.79127E+01 -1.00000E+00  1.55248E-01
      21    -1     0     0   502   501  0.000000000E+00  0.000000000E+00  2.841625432E+02  2.841625432E+02  0.000000000E+00  0.00000E+00  9.000E+00
      21    -1     0     0   501   511  0.000000000E+00  0.000000000E+00 -3.453046911E+02  3.453046911E+02  0.000000000E+00  0.00000E+00  9.000E+00
      25     1     1     2     0     0  1.257736830E+02  2.722943281E+01  7.059903316E-02  1.794030834E+02  1.250000000E+02  0.00000E+00  9.000E+00
      25     1     1     2     0     0 -1.531551699E+02 -2.180995896E+01  1.423588398E+02  2.445878567E+02  1.250000000E+02  0.00000E+00  9.000E+00
      21     1     1     2   502   511  2.738148693E+01 -5.419473846E+00 -2.035715868E+02  2.054762942E+02  0.000000000E+00  0.00000E+00  9.000E+00
#rwgt            1           1   1.6529786898013658E-002           3      410913           0
</event>
<event>
      5   9999  3.79277E-02  4.59453E+01 -1.00000E+00  1.41204E-01
      21    -1     0     0   502   501  0.000000000E+00  0.000000000E+00  8.393743168E+02  8.393743168E+02  0.000000000E+00  0.00000E+00  9.000E+00
      21    -1     0     0   512   502  0.000000000E+00  0.000000000E+00 -4.267832055E+01  4.267832055E+01  0.000000000E+00  0.00000E+00  9.000E+00
      25     1     1     2     0     0  5.405034363E+01 -1.029671314E+02  4.208581256E+02  4.541698269E+02  1.250000000E+02  0.00000E+00  9.000E+00
      25     1     1     2     0     0 -7.490288995E+01  6.202640759E+01  2.831725024E+02  3.244524376E+02  1.250000000E+02  0.00000E+00  9.000E+00
      21     1     1     2   512   501  2.085254632E+01  4.094072377E+01  9.266536822E+01  1.034303728E+02  1.348699152E-06  0.00000E+00  9.000E+00
#rwgt            1           1   3.4216768295353209E-002           3      411116           0
</event>
<event>
      5   9999  3.79277E-02  6.14507E+01 -1.00000E+00  1.34151E-01
      21    -1     0     0   502   501  0.000000000E+00  0.000000000E+00  2.347920811E+02  2.347920811E+02  0.000000000E+00  0.00000E+00  9.000E+00
      21    -1     0     0   511   502  0.000000000E+00  0.000000000E+00 -2.963773336E+02  2.963773336E+02  0.000000000E+00  0.00000E+00  9.000E+00
      25     1     1     2     0     0  1.694857755E+02  6.552400302E+01 -8.057205576E+00  2.207005701E+02  1.250000000E+02  0.00000E+00  9.000E+00
      25     1     1     2     0     0 -1.813529722E+02 -5.230068494E+00  1.198428053E+01  2.206464981E+02  1.250000000E+02  0.00000E+00  9.000E+00
      21     1     1     2   511   501  1.186719669E+01 -6.029393453E+01 -6.551232740E+01  8.982234655E+01  9.536743164E-07  0.00000E+00  9.000E+00
#rwgt            1           1   4.0645728751386716E-002           3      411276           0
</event>
<event>
      5   9999  3.79277E-02  6.56435E+01 -1.00000E+00  1.32650E-01
      21    -1     0     0   512   501  0.000000000E+00  0.000000000E+00  1.417124903E+03  1.417124903E+03  0.000000000E+00  0.00000E+00  9.000E+00
      21    -1     0     0   501   502  0.000000000E+00  0.000000000E+00 -7.616976703E+01  7.616976703E+01  0.000000000E+00  0.00000E+00  9.000E+00
      25     1     1     2     0     0  6.896393671E+01  9.447247663E+01  1.379302744E+02  2.198427483E+02  1.250000000E+02  0.00000E+00  9.000E+00
      25     1     1     2     0     0 -1.082667313E+02 -4.189533760E+01  1.788019277E+02  2.471275658E+02  1.250000000E+02  0.00000E+00  9.000E+00
      21     1     1     2   512   502  3.930279463E+01 -5.257713902E+01  1.024222934E+03  1.026324356E+03  1.525878906E-05  0.00000E+00  9.000E+00
#rwgt            1           1   3.2339973718115027E-002           3      411418           0
</event>
<event>
      5   9999  3.79277E-02  1.64665E+01 -1.00000E+00  1.73650E-01
      21    -1     0     0   511   501  0.000000000E+00  0.000000000E+00  4.055391161E+02  4.055391161E+02  0.000000000E+00  0.00000E+00  9.000E+00
      21    -1     0     0   501   502  0.000000000E+00  0.000000000E+00 -2.537546034E+02  2.537546034E+02  0.000000000E+00  0.00000E+00  9.000E+00
      25     1     1     2     0     0  1.393604458E+02  1.958941127E+01 -8.966892762E+01  2.084960323E+02  1.250000000E+02  0.00000E+00  9.000E+00
      25     1     1     2     0     0 -1.235234953E+02 -1.507982624E+01 -2.994047631E+01  1.789046874E+02  1.250000000E+02  0.00000E+00  9.000E+00
      21     1     1     2   511   502 -1.583695059E+01 -4.509585029E+00  2.713939166E+02  2.718929998E+02  3.814697266E-06  0.00000E+00  9.000E+00
#rwgt            1           1   4.2998270542023161E-002           3      411534           0
</event>
<event>
      5   9999  3.79277E-02  3.34737E+01 -1.00000E+00  1.49807E-01
      21    -1     0     0   502   512  0.000000000E+00  0.000000000E+00  1.652304231E+02  1.652304231E+02  0.000000000E+00  0.00000E+00  9.000E+00
      21    -1     0     0   501   502  0.000000000E+00  0.000000000E+00 -8.238767802E+02  8.238767802E+02  0.000000000E+00  0.00000E+00  9.000E+00
      25     1     1     2     0     0 -2.153089642E+02  1.188184898E+02 -5.243419235E+02  5.924822667E+02  1.250000000E+02  0.00000E+00  9.000E+00
      25     1     1     2     0     0  1.903760890E+02 -1.411531889E+02 -1.922013823E+02  3.297478573E+02  1.250000000E+02  0.00000E+00  9.000E+00
      21     1     1     2   501   512  2.493287520E+01  2.233469913E+01  5.789694884E+01  6.687707931E+01  2.132480600E-06  0.00000E+00  9.000E+00
#rwgt            1           1   1.7053528720175754E-002           3      411760           0
</event>
<event>
      5   9999  3.79277E-02  8.31360E+01 -1.00000E+00  1.27546E-01
      21    -1     0     0   502   501  0.000000000E+00  0.000000000E+00  3.137395988E+02  3.137395988E+02  0.000000000E+00  0.00000E+00  9.000E+00
      21    -1     0     0   511   502  0.000000000E+00  0.000000000E+00 -2.279518452E+02  2.279518452E+02  0.000000000E+00  0.00000E+00  9.000E+00
      25     1     1     2     0     0  6.978123500E+01 -2.521026590E+01 -3.134158112E+01  1.487019602E+02  1.250000000E+02  0.00000E+00  9.000E+00
      25     1     1     2     0     0 -1.370866000E+02 -2.359126477E+01  2.012433542E+02  2.747238091E+02  1.250000000E+02  0.00000E+00  9.000E+00
      21     1     1     2   511   501  6.730536501E+01  4.880153067E+01 -8.411401944E+01  1.182656747E+02  9.536743164E-07  0.00000E+00  9.000E+00
#rwgt            1           1   4.7502407127646237E-002           3      411939           0
</event>
<event>
      5   9999  3.79277E-02  5.00994E+01 -1.00000E+00  1.39026E-01
      21    -1     0     0   502   501  0.000000000E+00  0.000000000E+00  1.112916578E+03  1.112916578E+03  0.000000000E+00  0.00000E+00  9.000E+00
      21    -1     0     0   512   502  0.000000000E+00  0.000000000E+00 -1.062605042E+02  1.062605042E+02  0.000000000E+00  0.00000E+00  9.000E+00
      25     1     1     2     0     0 -1.074747827E+02  1.770905855E+01  5.643227977E+02  5.881748546E+02  1.250000000E+02  0.00000E+00  9.000E+00
      25     1     1     2     0     0  1.221181190E+02  3.020252423E+01  5.139019806E+02  5.436407574E+02  1.250000000E+02  0.00000E+00  9.000E+00
      21     1     1     2   512   501 -1.464333625E+01 -4.791158278E+01 -7.156870428E+01  8.736147030E+01  2.336015456E-06  0.00000E+00  9.000E+00
#rwgt            1           1   3.2632935553728523E-002           3      412096           0
</event>
<event>
      5   9999  3.79277E-02  2.75029E+01 -1.00000E+00  1.55708E-01
      21    -1     0     0   511   501  0.000000000E+00  0.000000000E+00  1.005308218E+03  1.005308218E+03  0.000000000E+00  0.00000E+00  9.000E+00
      21    -1     0     0   501   502  0.000000000E+00  0.000000000E+00 -1.970553957E+03  1.970553957E+03  0.000000000E+00  0.00000E+00  9.000E+00
      25     1     1     2     0     0  1.964341291E+02  2.118382463E+01 -1.581463422E+03  1.598651518E+03  1.250000000E+02  0.00000E+00  9.000E+00
      25     1     1     2     0     0 -2.084718452E+02  3.544732675E+00 -3.414493291E+02  4.191488038E+02  1.250000000E+02  0.00000E+00  9.000E+00
      21     1     1     2   511   502  1.203771604E+01 -2.472855731E+01  9.576670119E+02  9.580618529E+02  1.525878906E-05  0.00000E+00  9.000E+00
#rwgt            1           1   3.2904358994923749E-002           3      412441           0
</event>
<event>
      5   9999  3.79277E-02  4.38022E+01 -1.00000E+00  1.42436E-01
      21    -1     0     0   502   501  0.000000000E+00  0.000000000E+00  3.815860856E+02  3.815860856E+02  0.000000000E+00  0.00000E+00  9.000E+00
      21    -1     0     0   512   502  0.000000000E+00  0.000000000E+00 -1.176000820E+02  1.176000820E+02  0.000000000E+00  0.00000E+00  9.000E+00
      25     1     1     2     0     0  1.565258605E+01  1.440184170E+02  1.816940450E+02  2.638636653E+02  1.250000000E+02  0.00000E+00  9.000E+00
      25     1     1     2     0     0 -4.775697254E+01 -1.142200414E+02  5.806071774E+01  1.852646573E+02  1.250000000E+02  0.00000E+00  9.000E+00
      21     1     1     2   512   501  3.210438649E+01 -2.979837558E+01  2.423124079E+01  5.005784503E+01  1.066240300E-06  0.00000E+00  9.000E+00
#rwgt            1           1   4.5002358088524756E-002           3      412654           0
</event>
<event>
      5   9999  3.79277E-02  1.31964E+02 -1.00000E+00  1.18642E-01
      21    -1     0     0   502   501  0.000000000E+00  0.000000000E+00  1.676899695E+02  1.676899695E+02  0.000000000E+00  0.00000E+00  9.000E+00
      -1    -1     0     0     0   502  0.000000000E+00  0.000000000E+00 -5.995215255E+02  5.995215255E+02  0.000000000E+00  0.00000E+00  9.000E+00
      25     1     1     2     0     0  2.187983889E+01 -1.430279559E+02 -5.272518397E+01  1.983448223E+02  1.250000000E+02  0.00000E+00  9.000E+00
      25     1     1     2     0     0  4.413965333E+01  2.572910163E+02 -2.295409601E+02  3.694063189E+02  1.250000000E+02  0.00000E+00  9.000E+00
      -1     1     1     2     0   501 -6.601949222E+01 -1.142630604E+02 -1.495654119E+02  1.994603538E+02  1.907348633E-06  0.00000E+00  9.000E+00
#rwgt            1           1   4.2949014965268588E-002           3      412799           0
</event>
<event>
      5   9999  3.79277E-02  3.97301E+01 -1.00000E+00  1.45023E-01
      21    -1     0     0   502   501  0.000000000E+00  0.000000000E+00  1.807588895E+02  1.807588895E+02  0.000000000E+00  0.00000E+00  9.000E+00
       1    -1     0     0   501     0  0.000000000E+00  0.000000000E+00 -8.598128189E+02  8.598128189E+02  0.000000000E+00  0.00000E+00  9.000E+00
      25     1     1     2     0     0  5.113919381E+01  1.442397089E+02  1.313726687E+01  1.980350943E+02  1.250000000E+02  0.00000E+00  9.000E+00
      25     1     1     2     0     0 -1.494636010E+01 -1.278518737E+02 -3.335331100E+01  1.825018867E+02  1.250000000E+02  0.00000E+00  9.000E+00
       1     1     1     2   502     0 -3.619283371E+01 -1.638783528E+01 -6.588378853E+02  6.600347275E+02  7.629394531E-06  0.00000E+00  9.000E+00
#rwgt            1           1   3.5152832346915235E-002           3      412856           0
</event>
<event>
      5   9999  3.79277E-02  1.85672E+01 -1.00000E+00  1.69078E-01
      21    -1     0     0   502   501  0.000000000E+00  0.000000000E+00  5.127966825E+02  5.127966825E+02  0.000000000E+00  0.00000E+00  9.000E+00
      21    -1     0     0   511   502  0.000000000E+00  0.000000000E+00 -1.172810758E+02  1.172810758E+02  0.000000000E+00  0.00000E+00  9.000E+00
      25     1     1     2     0     0 -1.403337005E+02 -5.610102020E+01  1.369135485E+01  1.966044892E+02  1.250000000E+02  0.00000E+00  9.000E+00
      25     1     1     2     0     0  1.234567703E+02  4.836086003E+01  3.668701977E+02  4.096328709E+02  1.250000000E+02  0.00000E+00  9.000E+00
      21     1     1     2   511   501  1.687693019E+01  7.740160171E+00  1.495405411E+01  2.384039821E+01  1.685873940E-07  0.00000E+00  9.000E+00
#rwgt            1           1   4.5963966826112722E-002           3      413006           0
</event>
<event>
      5   9999  3.79277E-02  2.40528E+01 -1.00000E+00  1.60018E-01
      21    -1     0     0   512   501  0.000000000E+00  0.000000000E+00  4.453161072E+02  4.453161072E+02  0.000000000E+00  0.00000E+00  9.000E+00
      21    -1     0     0   501   502  0.000000000E+00  0.000000000E+00 -1.733323039E+02  1.733323039E+02  0.000000000E+00  0.00000E+00  9.000E+00
      25     1     1     2     0     0 -9.748595391E+01 -7.025056927E+01 -3.799082359E+01  1.775019898E+02  1.250000000E+02  0.00000E+00  9.000E+00
      25     1     1     2     0     0  1.212718011E+02  6.667674853E+01  6.879783475E+01  1.987731889E+02  1.250000000E+02  0.00000E+00  9.000E+00
      21     1     1     2   512   502 -2.378584721E+01  3.573820738E+00  2.411767922E+02  2.423732325E+02  3.814697266E-06  0.00000E+00  9.000E+00
#rwgt            1           1   4.2866129574716992E-002           3      413239           0
</event>
<event>
      5   9999  3.79277E-02  4.45856E+01 -1.00000E+00  1.41976E-01
      21    -1     0     0   502   501  0.000000000E+00  0.000000000E+00  2.778066321E+03  2.778066321E+03  0.000000000E+00  0.00000E+00  9.000E+00
      21    -1     0     0   511   502  0.000000000E+00  0.000000000E+00 -2.140204107E+01  2.140204107E+01  0.000000000E+00  0.00000E+00  9.000E+00
      25     1     1     2     0     0  9.433827400E+00 -1.163590856E+02  4.309906832E+02  4.636878291E+02  1.250000000E+02  0.00000E+00  9.000E+00
      25     1     1     2     0     0 -2.724092515E+01  7.548391022E+01  2.126309593E+03  2.131491819E+03  1.250000000E+02  0.00000E+00  9.000E+00
      21     1     1     2   511   501  1.780709775E+01  4.087517540E+01  1.993640038E+02  2.042887141E+02  2.697398305E-06  0.00000E+00  9.000E+00
#rwgt            1           1   6.8640030698116347E-002           3      413418           0
</event>
<event>
      5   9999  3.79277E-02  1.27411E+02 -1.00000E+00  1.19274E-01
       2    -1     0     0   502     0  0.000000000E+00  0.000000000E+00  3.935566271E+03  3.935566271E+03  0.000000000E+00  0.00000E+00  9.000E+00
      21    -1     0     0   501   502  0.000000000E+00  0.000000000E+00 -1.576658408E+02  1.576658408E+02  0.000000000E+00  0.00000E+00  9.000E+00
      25     1     1     2     0     0 -4.636872191E+02 -2.027318764E+02  1.654180002E+03  1.734370932E+03  1.250000000E+02  0.00000E+00  9.000E+00
      25     1     1     2     0     0  4.339418447E+02  7.884195306E+01  3.403637250E+02  5.709588807E+02  1.250000000E+02  0.00000E+00  9.000E+00
       2     1     1     2   501     0  2.974537439E+01  1.238899233E+02  1.783356703E+03  1.787902299E+03  2.157918644E-05  0.00000E+00  9.000E+00
#rwgt            1           1   4.8972775077000742E-002           3      413534           0
</event>
<event>
      5   9999  3.79277E-02  9.23136E+01 -1.00000E+00  1.25411E-01
      21    -1     0     0   502   501  0.000000000E+00  0.000000000E+00  1.480280806E+02  1.480280806E+02  0.000000000E+00  0.00000E+00  9.000E+00
      21    -1     0     0   511   502  0.000000000E+00  0.000000000E+00 -6.645452205E+02  6.645452205E+02  0.000000000E+00  0.00000E+00  9.000E+00
      25     1     1     2     0     0 -7.253513613E+01  1.910002649E+02 -2.526875486E+02  3.481643928E+02  1.250000000E+02  0.00000E+00  9.000E+00
      25     1     1     2     0     0 -1.067582747E+01 -1.510285059E+02 -1.258385810E+01  1.967407847E+02  1.250000000E+02  0.00000E+00  9.000E+00
      21     1     1     2   511   501  8.321096360E+01 -3.997175903E+01 -2.512457331E+02  2.676681236E+02  2.697398305E-06  0.00000E+00  9.000E+00
#rwgt            1           1   3.7431316300839235E-002           3      413759           0
</event>
<event>
      5   9999  3.79277E-02  4.27877E+01 -1.00000E+00  1.43049E-01
      21    -1     0     0   502   501  0.000000000E+00  0.000000000E+00  1.534658658E+03  1.534658658E+03  0.000000000E+00  0.00000E+00  9.000E+00
      21    -1     0     0   501   512  0.000000000E+00  0.000000000E+00 -7.980992387E+01  7.980992387E+01  0.000000000E+00  0.00000E+00  9.000E+00
      25     1     1     2     0     0  6.183971041E+01  2.315989839E+02  1.091464328E+03  1.124447250E+03  1.250000000E+02  0.00000E+00  9.000E+00
      25     1     1     2     0     0 -1.958175656E+01 -2.383109214E+02  3.558496296E+02  4.465753009E+02  1.250000000E+02  0.00000E+00  9.000E+00
      21     1     1     2   502   512 -4.225795385E+01  6.711937484E+00  7.534776955E+00  4.344603126E+01  5.717076687E-07  0.00000E+00  9.000E+00
#rwgt            1           1   4.2433758192000466E-002           3      413819           0
</event>
<event>
      5   9999  3.79277E-02  6.46228E+00 -1.00000E+00  2.20579E-01
      21    -1     0     0   502   501  0.000000000E+00  0.000000000E+00  4.067887967E+02  4.067887967E+02  0.000000000E+00  0.00000E+00  9.000E+00
      21    -1     0     0   501   511  0.000000000E+00  0.000000000E+00 -1.250752186E+02  1.250752186E+02  0.000000000E+00  0.00000E+00  9.000E+00
      25     1     1     2     0     0  1.499778323E+02 -4.014117088E+01  1.890560158E+02  2.747213878E+02  1.250000000E+02  0.00000E+00  9.000E+00
      25     1     1     2     0     0 -1.460897605E+02  3.497939302E+01  1.198129062E+02  2.292289435E+02  1.250000000E+02  0.00000E+00  9.000E+00
      21     1     1     2   502   511 -3.888071819E+00  5.161777866E+00 -2.715534388E+01  2.791368400E+01  0.000000000E+00  0.00000E+00  9.000E+00
#rwgt            1           1   4.7549847764504681E-002           3      413933           0
</event>
<event>
      5   9999  3.79277E-02  1.22039E+02 -1.00000E+00  1.20059E-01
      21    -1     0     0   502   512  0.000000000E+00  0.000000000E+00  5.302184194E+02  5.302184194E+02  0.000000000E+00  0.00000E+00  9.000E+00
      21    -1     0     0   501   502  0.000000000E+00  0.000000000E+00 -4.804482046E+02  4.804482046E+02  0.000000000E+00  0.00000E+00  9.000E+00
      25     1     1     2     0     0  1.992204125E+02  4.512387445E+01 -1.385340068E+00  2.394824753E+02  1.250000000E+02  0.00000E+00  9.000E+00
      25     1     1     2     0     0 -1.296743087E+02 -1.454076792E+02 -3.117584033E+02  3.883002981E+02  1.250000000E+02  0.00000E+00  9.000E+00
      21     1     1     2   501   512 -6.954610379E+01  1.002838047E+02  3.629139581E+02  3.828838506E+02  5.394796609E-06  0.00000E+00  9.000E+00
#rwgt            1           1   2.4044390508095873E-002           3      414336           0
</event>
<event>
      5   9999  3.79277E-02  3.14811E+01 -1.00000E+00  1.51600E-01
      21    -1     0     0   502   501  0.000000000E+00  0.000000000E+00  4.499528778E+02  4.499528778E+02  0.000000000E+00  0.00000E+00  9.000E+00
       1    -1     0     0   501     0  0.000000000E+00  0.000000000E+00 -8.990070708E+02  8.990070708E+02  0.000000000E+00  0.00000E+00  9.000E+00
      25     1     1     2     0     0  1.405434238E+02  1.269028102E+02 -1.120874092E+02  2.530718564E+02  1.250000000E+02  0.00000E+00  9.000E+00
      25     1     1     2     0     0 -1.158929478E+02 -1.073218744E+02  3.523446045E+02  4.058582023E+02  1.250000000E+02  0.00000E+00  9.000E+00
       1     1     1     2   502     0 -2.465047604E+01 -1.958093583E+01 -6.893113883E+02  6.900298900E+02  7.629394531E-06  0.00000E+00  9.000E+00
#rwgt            1           1   9.1422074260547839E-002           3      414416           0
</event>
<event>
      5   9999  3.79277E-02  7.19999E+01 -1.00000E+00  1.30604E-01
      21    -1     0     0   502   501  0.000000000E+00  0.000000000E+00  2.696053550E+02  2.696053550E+02  0.000000000E+00  0.00000E+00  9.000E+00
      21    -1     0     0   501   511  0.000000000E+00  0.000000000E+00 -1.662476253E+02  1.662476253E+02  0.000000000E+00  0.00000E+00  9.000E+00
      25     1     1     2     0     0 -6.945794149E+01  6.980434973E+01  7.023100734E+01  1.739380558E+02  1.250000000E+02  0.00000E+00  9.000E+00
      25     1     1     2     0     0  2.400665529E+01 -1.256449202E+02  5.421840912E+01  1.868892757E+02  1.250000000E+02  0.00000E+00  9.000E+00
      21     1     1     2   502   511  4.545128620E+01  5.584057045E+01 -2.109168676E+01  7.502564879E+01  4.768371582E-07  0.00000E+00  9.000E+00
#rwgt            1           1   2.7681416058809062E-002           3      414550           0
</event>
<event>
      5   9999  3.79277E-02  7.87631E+01 -1.00000E+00  1.28678E-01
      21    -1     0     0   502   501  0.000000000E+00  0.000000000E+00  7.976087378E+02  7.976087378E+02  0.000000000E+00  0.00000E+00  9.000E+00
      21    -1     0     0   501   512  0.000000000E+00  0.000000000E+00 -1.519191316E+02  1.519191316E+02  0.000000000E+00  0.00000E+00  9.000E+00
      25     1     1     2     0     0 -1.179274196E+02 -1.435436038E+02  3.175091849E+02  3.885212028E+02  1.250000000E+02  0.00000E+00  9.000E+00
      25     1     1     2     0     0  5.574604083E+01  9.520002762E+01  4.129250037E+02  4.453119412E+02  1.250000000E+02  0.00000E+00  9.000E+00
      21     1     1     2   502   512  6.218137875E+01  4.834357618E+01 -8.474458247E+01  1.156947254E+02  3.438521648E-06  0.00000E+00  9.000E+00
#rwgt            1           1   3.4562785073766762E-002           3      414638           0
</event>
<event>
      5   9999  3.79277E-02  5.76705E+01 -1.00000E+00  1.35629E-01
      21    -1     0     0   511   501  0.000000000E+00  0.000000000E+00  2.157409498E+02  2.157409498E+02  0.000000000E+00  0.00000E+00  9.000E+00
      21    -1     0     0   501   502  0.000000000E+00  0.000000000E+00 -2.548008662E+02  2.548008662E+02  0.000000000E+00  0.00000E+00  9.000E+00
      25     1     1     2     0     0  3.106842841E+00  8.847425757E+01  1.134747487E+02  1.906275566E+02  1.250000000E+02  0.00000E+00  9.000E+00
      25     1     1     2     0     0 -1.568809018E+01 -3.219285157E+01 -1.750026846E+02  2.180216399E+02  1.250000000E+02  0.00000E+00  9.000E+00
      21     1     1     2   511   502  1.258124734E+01 -5.628140599E+01  2.246801953E+01  6.189261948E+01  5.840038640E-07  0.00000E+00  9.000E+00
#rwgt            1           1   4.4723497654706089E-002           3      414714           0
</event>
<event>
      5   9999  3.79277E-02  2.67497E+01 -1.00000E+00  1.56581E-01
      21    -1     0     0   512   501  0.000000000E+00  0.000000000E+00  8.194349647E+01  8.194349647E+01  0.000000000E+00  0.00000E+00  9.000E+00
      21    -1     0     0   501   502  0.000000000E+00  0.000000000E+00 -6.612224573E+02  6.612224573E+02  0.000000000E+00  0.00000E+00  9.000E+00
      25     1     1     2     0     0  2.399197032E+01  1.265236366E+02 -4.610821585E+02  4.947783364E+02  1.250000000E+02  0.00000E+00  9.000E+00
      25     1     1     2     0     0 -4.869319932E+01 -1.367898247E+02 -1.063787953E+02  2.191436330E+02  1.250000000E+02  0.00000E+00  9.000E+00
      21     1     1     2   512   502  2.470122900E+01  1.026618810E+01 -1.181800693E+01  2.924398434E+01  1.685873940E-07  0.00000E+00  9.000E+00
#rwgt            1           1   3.7330477135625255E-002           3      414805           0
</event>
<event>
      5   9999  3.79277E-02  7.38305E+00 -1.00000E+00  2.12335E-01
      21    -1     0     0   511   501  0.000000000E+00  0.000000000E+00  6.529653792E+02  6.529653792E+02  0.000000000E+00  0.00000E+00  9.000E+00
      21    -1     0     0   501   502  0.000000000E+00  0.000000000E+00 -8.428003484E+01  8.428003484E+01  0.000000000E+00  0.00000E+00  9.000E+00
      25     1     1     2     0     0  1.497291971E+01 -1.649482222E+02  3.254362811E+02  3.859609791E+02  1.250000000E+02  0.00000E+00  9.000E+00
      25     1     1     2     0     0 -1.115612228E+01  1.586282983E+02  1.359018415E+02  2.436836199E+02  1.250000000E+02  0.00000E+00  9.000E+00
      21     1     1     2   511   502 -3.816797438E+00  6.319923956E+00  1.073472217E+02  1.076008150E+02  1.348699152E-06  0.00000E+00  9.000E+00
#rwgt            1           1   3.2824016314593252E-002           3      415173           0
</event>
<event>
      5   9999  3.79277E-02  1.31595E+01 -1.00000E+00  1.82912E-01
      21    -1     0     0   502   501  0.000000000E+00  0.000000000E+00  1.683969163E+03  1.683969163E+03  0.000000000E+00  0.00000E+00  9.000E+00
      21    -1     0     0   512   502  0.000000000E+00  0.000000000E+00 -1.865503971E+01  1.865503971E+01  0.000000000E+00  0.00000E+00  9.000E+00
      25     1     1     2     0     0 -1.050548174E+02  8.261662281E+00  9.317567039E+02  9.459917151E+02  1.250000000E+02  0.00000E+00  9.000E+00
      25     1     1     2     0     0  1.181939151E+02 -8.994615181E+00  6.834172338E+02  7.047941686E+02  1.250000000E+02  0.00000E+00  9.000E+00
      21     1     1     2   512   501 -1.313909773E+01  7.329528996E-01  5.014018607E+01  5.183831950E+01  6.743495762E-07  0.00000E+00  9.000E+00
#rwgt            1           1   4.0018965985250454E-002           3      415555           0
</event>
<event>
      5   9999 -3.79277E-02  6.09697E+01 -1.00000E+00  1.34332E-01
      21    -1     0     0   511   501  0.000000000E+00  0.000000000E+00  1.812321817E+03  1.812321817E+03  0.000000000E+00  0.00000E+00  9.000E+00
      21    -1     0     0   501   502  0.000000000E+00  0.000000000E+00 -8.677972340E+01  8.677972340E+01  0.000000000E+00  0.00000E+00  9.000E+00
      25     1     1     2     0     0 -2.353341033E+02  2.518087231E+02  7.878341812E+02  8.689634459E+02  1.250000000E+02  0.00000E+00  9.000E+00
      25     1     1     2     0     0  1.757650972E+02 -2.648025331E+02  6.316578462E+02  7.180740809E+02  1.250000000E+02  0.00000E+00  9.000E+00
      21     1     1     2   511   502  5.956900613E+01  1.299381006E+01  3.060500663E+02  3.120640137E+02  3.814697266E-06  0.00000E+00  9.000E+00
#rwgt            1           1 -0.26522063468342771                3      415670           0
</event>
<event>
      5   9999  3.79277E-02  4.70348E+00 -1.00000E+00  2.47923E-01
      21    -1     0     0   512   501  0.000000000E+00  0.000000000E+00  1.357925911E+03  1.357925911E+03  0.000000000E+00  0.00000E+00  9.000E+00
      21    -1     0     0   501   502  0.000000000E+00  0.000000000E+00 -1.946322835E+02  1.946322835E+02  0.000000000E+00  0.00000E+00  9.000E+00
      25     1     1     2     0     0  1.778694061E+02  1.775730952E+02  4.591796071E-01  2.807043651E+02  1.250000000E+02  0.00000E+00  9.000E+00
      25     1     1     2     0     0 -1.751135142E+02 -1.813846276E+02  3.087328135E+02  4.177392441E+02  1.250000000E+02  0.00000E+00  9.000E+00
      21     1     1     2   512   502 -2.755891881E+00  3.811532422E+00  8.541016345E+02  8.541145853E+02  0.000000000E+00  0.00000E+00  9.000E+00
#rwgt            1           1   3.5411970089053973E-002           3      415808           0
</event>
<event>
      5   9999  3.79277E-02  5.35358E+01 -1.00000E+00  1.37403E-01
      21    -1     0     0   502   501  0.000000000E+00  0.000000000E+00  4.179971136E+02  4.179971136E+02  0.000000000E+00  0.00000E+00  9.000E+00
      21    -1     0     0   511   502  0.000000000E+00  0.000000000E+00 -1.373442296E+02  1.373442296E+02  0.000000000E+00  0.00000E+00  9.000E+00
      25     1     1     2     0     0  8.160798878E-01  7.744697201E+01  3.333519240E+02  3.643448980E+02  1.250000000E+02  0.00000E+00  9.000E+00
      25     1     1     2     0     0 -2.109862165E+01 -2.790202828E+01 -3.280408686E+01  1.338834685E+02  1.250000000E+02  0.00000E+00  9.000E+00
      21     1     1     2   511   501  2.028254176E+01 -4.954494374E+01 -1.989495309E+01  5.711297671E+01  1.118282261E-06  0.00000E+00  9.000E+00
#rwgt            1           1   3.4949206774578676E-002           3      416222           0
</event>
<event>
      5   9999  3.79277E-02  6.03638E+01 -1.00000E+00  1.34563E-01
      21    -1     0     0   512   501  0.000000000E+00  0.000000000E+00  3.113950587E+02  3.113950587E+02  0.000000000E+00  0.00000E+00  9.000E+00
      21    -1     0     0   501   502  0.000000000E+00  0.000000000E+00 -5.227062097E+02  5.227062097E+02  0.000000000E+00  0.00000E+00  9.000E+00
      25     1     1     2     0     0  2.878183253E+02 -1.499996914E+01 -2.476526141E+02  4.000265050E+02  1.250000000E+02  0.00000E+00  9.000E+00
      25     1     1     2     0     0 -3.481733956E+02  1.397441135E+01  1.661148795E+01  3.705684000E+02  1.250000000E+02  0.00000E+00  9.000E+00
      21     1     1     2   512   502  6.035507026E+01  1.025557785E+00  1.972997515E+01  6.350636342E+01  1.526623782E-06  0.00000E+00  9.000E+00
#rwgt            1           1  0.13023967724921462                3      416344           0
</event>
<event>
      5   9999  3.79277E-02  5.67894E+01 -1.00000E+00  1.35992E-01
      21    -1     0     0   502   511  0.000000000E+00  0.000000000E+00  3.732998171E+02  3.732998171E+02  0.000000000E+00  0.00000E+00  9.000E+00
      21    -1     0     0   501   502  0.000000000E+00  0.000000000E+00 -9.707222561E+02  9.707222561E+02  0.000000000E+00  0.00000E+00  9.000E+00
      25     1     1     2     0     0  7.965244700E+01 -4.474668931E+01 -5.899835906E+01  1.656882159E+02  1.250000000E+02  0.00000E+00  9.000E+00
      25     1     1     2     0     0 -2.939350678E+01  1.830663778E+01 -8.509051235E+02  8.607343611E+02  1.250000000E+02  0.00000E+00  9.000E+00
      21     1     1     2   501   511 -5.025894022E+01  2.644005152E+01  3.124810435E+02  3.175994961E+02  6.607249480E-06  0.00000E+00  9.000E+00
#rwgt            1           1   3.5685121916544590E-002           3      416460           0
</event>
<event>
      5   9999  3.79277E-02  3.25247E+02 -1.00000E+00  1.04464E-01
      21    -1     0     0   502   501  0.000000000E+00  0.000000000E+00  6.125543019E+02  6.125543019E+02  0.000000000E+00  0.00000E+00  9.000E+00
      21    -1     0     0   512   502  0.000000000E+00  0.000000000E+00 -6.519075875E+02  6.519075875E+02  0.000000000E+00  0.00000E+00  9.000E+00
      25     1     1     2     0     0  1.095716744E+02  9.999423996E+01 -2.429086520E+02  3.108607616E+02  1.250000000E+02  0.00000E+00  9.000E+00
      25     1     1     2     0     0  4.129100767E+01  1.881478660E+02  4.765377051E+02  5.289780252E+02  1.250000000E+02  0.00000E+00  9.000E+00
      21     1     1     2   512   501 -1.508626821E+02 -2.881421060E+02 -2.729823386E+02  4.246231026E+02  7.629394531E-06  0.00000E+00  9.000E+00
#rwgt            1           1   5.0280575456228799E-002           3      416554           0
</event>
<event>
      5   9999  3.79277E-02  1.23469E+02 -1.00000E+00  1.19845E-01
      21    -1     0     0   511   501  0.000000000E+00  0.000000000E+00  2.843753995E+03  2.843753995E+03  0.000000000E+00  0.00000E+00  9.000E+00
      21    -1     0     0   501   502  0.000000000E+00  0.000000000E+00 -8.030492461E+01  8.030492461E+01  0.000000000E+00  0.00000E+00  9.000E+00
      25     1     1     2     0     0  5.791964088E+01 -2.999509976E+02  5.155717444E+02  6.121801282E+02  1.250000000E+02  0.00000E+00  9.000E+00
      25     1     1     2     0     0  1.840291692E+01  3.970048847E+02  1.754169795E+03  1.802966504E+03  1.250000000E+02  0.00000E+00  9.000E+00
      21     1     1     2   511   502 -7.632255781E+01 -9.705388714E+01  4.937075310E+02  5.089122872E+02  5.394796609E-06  0.00000E+00  9.000E+00
#rwgt            1           1   1.9131889215850514E-002           3      416645           0
</event>
<event>
      5   9999  3.79277E-02  8.78498E+00 -1.00000E+00  2.02494E-01
      21    -1     0     0   502   501  0.000000000E+00  0.000000000E+00  1.393841529E+03  1.393841529E+03  0.000000000E+00  0.00000E+00  9.000E+00
      21    -1     0     0   512   502  0.000000000E+00  0.000000000E+00 -3.275112765E+01  3.275112765E+01  0.000000000E+00  0.00000E+00  9.000E+00
      25     1     1     2     0     0 -8.467958759E+01  1.038524097E+02  9.891393899E+02  1.005971018E+03  1.250000000E+02  0.00000E+00  9.000E+00
      25     1     1     2     0     0  8.957145054E+01 -9.655545193E+01  3.691663545E+02  4.114058791E+02  1.250000000E+02  0.00000E+00  9.000E+00
      21     1     1     2   512   501 -4.891862944E+00 -7.296957733E+00  2.784656742E+00  9.215759784E+00  2.043144286E-07  0.00000E+00  9.000E+00
#rwgt            1           1   5.6874219030705768E-002           3      416756           0
</event>
<event>
      5   9999  3.79277E-02  1.66872E+02 -1.00000E+00  1.14588E-01
      21    -1     0     0   511   501  0.000000000E+00  0.000000000E+00  1.013923489E+03  1.013923489E+03  0.000000000E+00  0.00000E+00  9.000E+00
      21    -1     0     0   501   502  0.000000000E+00  0.000000000E+00 -1.971547995E+02  1.971547995E+02  0.000000000E+00  0.00000E+00  9.000E+00
      25     1     1     2     0     0  1.456360912E+02 -5.924988057E+01  1.106661425E+01  2.011663226E+02  1.250000000E+02  0.00000E+00  9.000E+00
      25     1     1     2     0     0 -2.742956324E+02  1.655176080E+02  2.380553978E+02  4.182457948E+02  1.250000000E+02  0.00000E+00  9.000E+00
      21     1     1     2   511   502  1.286595412E+02 -1.062677274E+02  5.676466778E+02  5.916661713E+02  7.629394531E-06  0.00000E+00  9.000E+00
#rwgt            1           1   3.3289357026573999E-002           3      417187           0
</event>
<event>
      5   9999  3.79277E-02  8.93005E+00 -1.00000E+00  2.01615E-01
      21    -1     0     0   512   501  0.000000000E+00  0.000000000E+00  1.299078046E+02  1.299078046E+02  0.000000000E+00  0.00000E+00  9.000E+00
      21    -1     0     0   501   502  0.000000000E+00  0.000000000E+00 -6.518896402E+02  6.518896402E+02  0.000000000E+00  0.00000E+00  9.000E+00
      25     1     1     2     0     0  8.030487891E+01 -2.334402889E+02 -3.400000359E+02  4.383700109E+02  1.250000000E+02  0.00000E+00  9.000E+00
      25     1     1     2     0     0 -8.872795802E+01  2.364063594E+02 -1.797959521E+02  3.342337531E+02  1.250000000E+02  0.00000E+00  9.000E+00
      21     1     1     2   512   502  8.423079116E+00 -2.966070541E+00 -2.185847585E+00  9.193680760E+00  1.074538015E-07  0.00000E+00  9.000E+00
#rwgt            1           1   4.2385063101544558E-002           3      417240           0
</event>
<event>
      5   9999  3.79277E-02  2.14599E+02 -1.00000E+00  1.10545E-01
      21    -1     0     0   511   501  0.000000000E+00  0.000000000E+00  2.490544696E+02  2.490544696E+02  0.000000000E+00  0.00000E+00  9.000E+00
      21    -1     0     0   501   502  0.000000000E+00  0.000000000E+00 -1.049198429E+03  1.049198429E+03  0.000000000E+00  0.00000E+00  9.000E+00
      25     1     1     2     0     0 -6.507395800E+00 -5.241397622E+01  1.043714824E+02  1.711957285E+02  1.250000000E+02  0.00000E+00  9.000E+00
      25     1     1     2     0     0  2.090910192E+02  1.232151194E+02 -8.673061816E+02  9.092557575E+02  1.250000000E+02  0.00000E+00  9.000E+00
      21     1     1     2   511   502 -2.025836234E+02 -7.080114319E+01 -3.720926021E+01  2.178014127E+02  3.162979880E-06  0.00000E+00  9.000E+00
#rwgt            1           1   4.1736816604775677E-002           3      417572           0
</event>
<event>
      5   9999  3.79277E-02  4.47839E+01 -1.00000E+00  1.41862E-01
      21    -1     0     0   512   501  0.000000000E+00  0.000000000E+00  9.028928273E+02  9.028928273E+02  0.000000000E+00  0.00000E+00  9.000E+00
      21    -1     0     0   501   502  0.000000000E+00  0.000000000E+00 -7.261527822E+01  7.261527822E+01  0.000000000E+00  0.00000E+00  9.000E+00
      25     1     1     2     0     0 -6.248642961E+01 -4.685577812E+01  3.667496012E+01  1.518883489E+02  1.250000000E+02  0.00000E+00  9.000E+00
      25     1     1     2     0     0  9.412131414E+01  7.855480453E+01  6.095457178E+02  6.341929211E+02  1.250000000E+02  0.00000E+00  9.000E+00
      21     1     1     2   512   502 -3.163488453E+01 -3.169902642E+01  1.840568711E+02  1.894268355E+02  3.814697266E-06  0.00000E+00  9.000E+00
#rwgt            1           1   4.3185535312967746E-002           3      417674           0
</event>
<event>
      5   9999  3.79277E-02  2.86404E+01 -1.00000E+00  1.54452E-01
      21    -1     0     0   502   501  0.000000000E+00  0.000000000E+00  1.719220763E+02  1.719220763E+02  0.000000000E+00  0.00000E+00  9.000E+00
       1    -1     0     0   501     0  0.000000000E+00  0.000000000E+00 -5.565954343E+02  5.565954343E+02  0.000000000E+00  0.00000E+00  9.000E+00
      25     1     1     2     0     0  2.426369939E+02 -6.878368954E+01 -1.656482002E+02  3.266010303E+02  1.250000000E+02  0.00000E+00  9.000E+00
      25     1     1     2     0     0 -2.641390674E+02  4.986454418E+01 -1.613283387E+02  3.375022260E+02  1.250000000E+02  0.00000E+00  9.000E+00
       1     1     1     2   502     0  2.150207353E+01  1.891914535E+01 -5.769681907E+01  6.441425430E+01  9.536743164E-07  0.00000E+00  9.000E+00
#rwgt            1           1   3.8416684012312491E-002           3      417765           0
</event>
<event>
      5   9999  3.79277E-02  9.08019E+01 -1.00000E+00  1.25742E-01
      21    -1     0     0   511   501  0.000000000E+00  0.000000000E+00  9.538709753E+02  9.538709753E+02  0.000000000E+00  0.00000E+00  9.000E+00
      21    -1     0     0   501   502  0.000000000E+00  0.000000000E+00 -1.758513332E+02  1.758513332E+02  0.000000000E+00  0.00000E+00  9.000E+00
      25     1     1     2     0     0 -1.315933566E+02 -1.026734693E+02 -4.845423367E+01  2.140828474E+02  1.250000000E+02  0.00000E+00  9.000E+00
      25     1     1     2     0     0  2.222222277E+02  9.707079525E+01  4.326602313E+02  5.114932390E+02  1.250000000E+02  0.00000E+00  9.000E+00
      21     1     1     2   511   502 -9.062887119E+01  5.602674043E+00  3.938136444E+02  4.041462220E+02  5.394796609E-06  0.00000E+00  9.000E+00
#rwgt            1           1   3.2630592755233667E-002           3      417862           0
</event>
<event>
      5   9999  3.79277E-02  2.06990E+01 -1.00000E+00  1.65147E-01
      21    -1     0     0   502   501  0.000000000E+00  0.000000000E+00  2.474805885E+02  2.474805885E+02  0.000000000E+00  0.00000E+00  9.000E+00
      21    -1     0     0   512   502  0.000000000E+00  0.000000000E+00 -4.540218524E+02  4.540218524E+02  0.000000000E+00  0.00000E+00  9.000E+00
      25     1     1     2     0     0  1.016838025E+02  1.755747210E+02 -2.115501622E+02  3.186605552E+02  1.250000000E+02  0.00000E+00  9.000E+00
      25     1     1     2     0     0 -1.017423275E+02 -1.962736388E+02  1.093197825E+02  2.764971199E+02  1.250000000E+02  0.00000E+00  9.000E+00
      21     1     1     2   512   501  5.852504329E-02  2.069891784E+01 -1.043108842E+02  1.063447657E+02  0.000000000E+00  0.00000E+00  9.000E+00
#rwgt            1           1   2.9639532026429771E-002           3      417952           0
</event>
<event>
      5   9999  3.79277E-02  2.59431E+01 -1.00000E+00  1.57556E-01
      21    -1     0     0   502   501  0.000000000E+00  0.000000000E+00  8.909912953E+01  8.909912953E+01  0.000000000E+00  0.00000E+00  9.000E+00
      21    -1     0     0   501   511  0.000000000E+00  0.000000000E+00 -6.661186730E+02  6.661186730E+02  0.000000000E+00  0.00000E+00  9.000E+00
      25     1     1     2     0     0  7.649191331E+01 -1.052077988E+01  8.057776235E-01  1.469263383E+02  1.250000000E+02  0.00000E+00  9.000E+00
      25     1     1     2     0     0 -6.889603720E+01 -1.428540234E+01 -3.395146060E+02  3.685727938E+02  1.250000000E+02  0.00000E+00  9.000E+00
      21     1     1     2   502   511 -7.595876112E+00  2.480618222E+01 -2.383107150E+02  2.397186704E+02  0.000000000E+00  0.00000E+00  9.000E+00
#rwgt            1           1   5.2306450218962561E-002           3      418205           0
</event>
<event>
      5   9999  3.79277E-02  1.64399E+01 -1.00000E+00  1.73714E-01
      21    -1     0     0   502   501  0.000000000E+00  0.000000000E+00  1.712880794E+02  1.712880794E+02  0.000000000E+00  0.00000E+00  9.000E+00
      21    -1     0     0   512   502  0.000000000E+00  0.000000000E+00 -8.901536455E+02  8.901536455E+02  0.000000000E+00  0.00000E+00  9.000E+00
      25     1     1     2     0     0  2.500763164E+01  1.949463214E+02 -1.498199127E+02  2.769484719E+02  1.250000000E+02  0.00000E+00  9.000E+00
      25     1     1     2     0     0 -1.244727992E+01 -1.843393975E+02 -8.008548024E+00  2.232153334E+02  1.250000000E+02  0.00000E+00  9.000E+00
      21     1     1     2   512   501 -1.256035173E+01 -1.060692395E+01 -5.610371054E+02  5.612779195E+02  7.629394531E-06  0.00000E+00  9.000E+00
#rwgt            1           1  0.19811590955522143                3      418359           0
</event>
<event>
      5   9999  3.79277E-02  1.39798E+02 -1.00000E+00  1.17619E-01
      21    -1     0     0   502   501  0.000000000E+00  0.000000000E+00  6.126284400E+02  6.126284400E+02  0.000000000E+00  0.00000E+00  9.000E+00
      21    -1     0     0   501   511  0.000000000E+00  0.000000000E+00 -3.501004004E+02  3.501004004E+02  0.000000000E+00  0.00000E+00  9.000E+00
      25     1     1     2     0     0  7.590917794E+01 -3.321915832E+02  8.549673114E+01  3.728915959E+02  1.250000000E+02  0.00000E+00  9.000E+00
      25     1     1     2     0     0  5.430302430E+01  3.830656525E+02  1.912443062E+02  4.493189259E+02  1.250000000E+02  0.00000E+00  9.000E+00
      21     1     1     2   502   511 -1.302122022E+02 -5.087406927E+01 -1.421299771E+01  1.405183185E+02  1.625797951E-06  0.00000E+00  9.000E+00
#rwgt            2          11   3.5612100612470786E-003           3      418584           0
</event>
<event>
      5   9999  3.79277E-02  8.02869E+00 -1.00000E+00  2.07467E-01
      21    -1     0     0   512   501  0.000000000E+00  0.000000000E+00  9.594430293E+01  9.594430293E+01  0.000000000E+00  0.00000E+00  9.000E+00
      21    -1     0     0   501   502  0.000000000E+00  0.000000000E+00 -6.488089239E+02  6.488089239E+02  0.000000000E+00  0.00000E+00  9.000E+00
      25     1     1     2     0     0  1.541010751E+02  1.201362379E+02 -3.410440460E+02  4.124510860E+02  1.250000000E+02  0.00000E+00  9.000E+00
      25     1     1     2     0     0 -1.510016742E+02 -1.127299221E+02 -2.236228863E+02  3.180278860E+02  1.250000000E+02  0.00000E+00  9.000E+00
      21     1     1     2   512   502 -3.099400899E+00 -7.406315852E+00  1.180231134E+01  1.427425492E+01  4.460403188E-07  0.00000E+00  9.000E+00
#rwgt            1           1   3.5633970804527057E-002           3      418634           0
</event>
<event>
      5   9999  3.79277E-02  1.17444E+01 -1.00000E+00  1.88017E-01
      21    -1     0     0   502   501  0.000000000E+00  0.000000000E+00  9.956443896E+02  9.956443896E+02  0.000000000E+00  0.00000E+00  9.000E+00
      21    -1     0     0   501   511  0.000000000E+00  0.000000000E+00 -1.828874945E+02  1.828874945E+02  0.000000000E+00  0.00000E+00  9.000E+00
      25     1     1     2     0     0  1.070046326E+02 -7.622857531E+01  3.414192152E+01  1.845303712E+02  1.250000000E+02  0.00000E+00  9.000E+00
      25     1     1     2     0     0 -9.986768745E+01  8.555562468E+01  8.766689201E+02  8.952467344E+02  1.250000000E+02  0.00000E+00  9.000E+00
      21     1     1     2   502   511 -7.136945181E+00 -9.327049371E+00 -9.805394653E+01  9.875477845E+01  1.348699152E-06  0.00000E+00  9.000E+00
#rwgt            1           1   3.7218087110928673E-002           3      418943           0
</event>
<event>
      5   9999  3.79277E-02  2.05656E+01 -1.00000E+00  1.65376E-01
      21    -1     0     0   502   501  0.000000000E+00  0.000000000E+00  6.461495967E+02  6.461495967E+02  0.000000000E+00  0.00000E+00  9.000E+00
      21    -1     0     0   501   512  0.000000000E+00  0.000000000E+00 -6.934873438E+01  6.934873438E+01  0.000000000E+00  0.00000E+00  9.000E+00
      25     1     1     2     0     0  1.592899758E+01 -1.280728470E+02  1.392838690E+02  2.273353982E+02  1.250000000E+02  0.00000E+00  9.000E+00
      25     1     1     2     0     0 -2.629004683E+01  1.458378007E+02  4.124364879E+02  4.557287430E+02  1.250000000E+02  0.00000E+00  9.000E+00
      21     1     1     2   502   512  1.036104925E+01 -1.776495364E+01  2.508050541E+01  3.243418985E+01  3.371747881E-07  0.00000E+00  9.000E+00
#rwgt            1           1   3.5117699356074984E-002           3      419182           0
</event>
<event>
      5   9999  3.79277E-02  5.30764E+01 -1.00000E+00  1.37612E-01
      21    -1     0     0   502   501  0.000000000E+00  0.000000000E+00  1.444531162E+02  1.444531162E+02  0.000000000E+00  0.00000E+00  9.000E+00
      21    -1     0     0   501   511  0.000000000E+00  0.000000000E+00 -7.509706572E+02  7.509706572E+02  0.000000000E+00  0.00000E+00  9.000E+00
      25     1     1     2     0     0  2.147295791E+02  6.552865557E+01 -9.057931757E+01  2.724562527E+02  1.250000000E+02  0.00000E+00  9.000E+00
      25     1     1     2     0     0 -2.640054535E+02 -4.580566817E+01 -4.475744632E+02  5.364186227E+02  1.250000000E+02  0.00000E+00  9.000E+00
      21     1     1     2   502   511  4.927587440E+01 -1.972298740E+01 -6.836376025E+01  8.654889801E+01  0.000000000E+00  0.00000E+00  9.000E+00
#rwgt            1           1   3.3081787545860109E-002           3      419559           0
</event>
<event>
      5   9999  3.79277E-02  3.55547E+01 -1.00000E+00  1.48086E-01
       2    -1     0     0   502     0  0.000000000E+00  0.000000000E+00  2.163808337E+03  2.163808337E+03  0.000000000E+00  0.00000E+00  9.000E+00
      21    -1     0     0   501   502  0.000000000E+00  0.000000000E+00 -5.197636389E+01  5.197636389E+01  0.000000000E+00  0.00000E+00  9.000E+00
      25     1     1     2     0     0 -2.091345726E+02  2.023925269E+01  7.486399370E+02  7.875491427E+02  1.250000000E+02  0.00000E+00  9.000E+00
      25     1     1     2     0     0  2.201312128E+02  1.357215841E+01  4.672763982E+02  5.316146975E+02  1.250000000E+02  0.00000E+00  9.000E+00
       2     1     1     2   501     0 -1.099664014E+01 -3.381141109E+01  8.959156381E+02  8.966208609E+02  0.000000000E+00  0.00000E+00  9.000E+00
#rwgt            1           1   4.8897745641496425E-002           3      419638           0
</event>
<event>
      5   9999  3.79277E-02  3.86436E+01 -1.00000E+00  1.45775E-01
      21    -1     0     0   502   501  0.000000000E+00  0.000000000E+00  1.283336687E+03  1.283336687E+03  0.000000000E+00  0.00000E+00  9.000E+00
      21    -1     0     0   501   511  0.000000000E+00  0.000000000E+00 -2.616968439E+02  2.616968439E+02  0.000000000E+00  0.00000E+00  9.000E+00
      25     1     1     2     0     0 -1.805427110E+02 -1.093649770E+02  3.888741817E+02  4.597874486E+02  1.250000000E+02  0.00000E+00  9.000E+00
      25     1     1     2     0     0  2.026649747E+02  7.768002850E+01  8.389150565E+02  8.755059970E+02  1.250000000E+02  0.00000E+00  9.000E+00
      21     1     1     2   502   511 -2.212226375E+01  3.168494853E+01 -2.061493948E+02  2.097400856E+02  5.394796609E-06  0.00000E+00  9.000E+00
#rwgt            1           1   4.3517464020965520E-002           3      419887           0
</event>
<event>
      5   9999  3.79277E-02  1.94002E+01 -1.00000E+00  1.67468E-01
      21    -1     0     0   512   501  0.000000000E+00  0.000000000E+00  2.446854008E+02  2.446854008E+02  0.000000000E+00  0.00000E+00  9.000E+00
      21    -1     0     0   501   502  0.000000000E+00  0.000000000E+00 -1.483735285E+02  1.483735285E+02  0.000000000E+00  0.00000E+00  9.000E+00
      25     1     1     2     0     0 -1.222427377E+02  5.143216876E+01  5.660372898E+01  1.908337943E+02  1.250000000E+02  0.00000E+00  9.000E+00
      25     1     1     2     0     0  1.028815018E+02 -5.020331755E+01  1.408112486E+01  1.700830814E+02  1.250000000E+02  0.00000E+00  9.000E+00
      21     1     1     2   512   502  1.936123584E+01 -1.228851208E+00  2.562701851E+01  3.214205355E+01  3.371747881E-07  0.00000E+00  9.000E+00
#rwgt            1           1   9.4999887110050973E-002           3      420099           0
</event>
<event>
      5   9999  3.79277E-02  1.68686E+01 -1.00000E+00  1.72711E-01
      21    -1     0     0   502   511  0.000000000E+00  0.000000000E+00  4.884276329E+01  4.884276329E+01  0.000000000E+00  0.00000E+00  9.000E+00
      21    -1     0     0   501   502  0.000000000E+00  0.000000000E+00 -8.183776720E+02  8.183776720E+02  0.000000000E+00  0.00000E+00  9.000E+00
      25     1     1     2     0     0  9.225913163E+01  1.187180000E+02 -4.145513305E+02  4.583486844E+02  1.250000000E+02  0.00000E+00  9.000E+00
      25     1     1     2     0     0 -9.006520054E+01 -1.019926636E+02 -3.361885972E+02  3.836170182E+02  1.250000000E+02  0.00000E+00  9.000E+00
      21     1     1     2   501   511 -2.193931096E+00 -1.672533633E+01 -1.879498094E+01  2.525473258E+01  3.371747881E-07  0.00000E+00  9.000E+00
#rwgt            1           1   3.3274178712884669E-002           3      420254           0
</event>
<event>
      5   9999  3.79277E-02  3.07659E+01 -1.00000E+00  1.52283E-01
      21    -1     0     0   502   501  0.000000000E+00  0.000000000E+00  1.666832572E+02  1.666832572E+02  0.000000000E+00  0.00000E+00  9.000E+00
      21    -1     0     0   512   502  0.000000000E+00  0.000000000E+00 -2.612753137E+02  2.612753137E+02  0.000000000E+00  0.00000E+00  9.000E+00
      25     1     1     2     0     0  8.566893506E+01 -7.286326321E+01  3.349014963E+01  1.714491519E+02  1.250000000E+02  0.00000E+00  9.000E+00
      25     1     1     2     0     0 -8.771136944E+01  4.216527638E+01 -4.025909678E+01  1.634533259E+02  1.250000000E+02  0.00000E+00  9.000E+00
      21     1     1     2   512   501  2.042434377E+00  3.069798682E+01 -8.782310937E+01  9.305609315E+01  9.536743164E-07  0.00000E+00  9.000E+00
#rwgt            1           1   3.8595109013199118E-002           3      420508           0
</event>
<event>
      5   9999  3.79277E-02  1.68383E+02 -1.00000E+00  1.14438E-01
      21    -1     0     0   502   501  0.000000000E+00  0.000000000E+00  5.936948351E+02  5.936948351E+02  0.000000000E+00  0.00000E+00  9.000E+00
      21    -1     0     0   501   511  0.000000000E+00  0.000000000E+00 -3.364228171E+02  3.364228171E+02  0.000000000E+00  0.00000E+00  9.000E+00
      25     1     1     2     0     0 -1.536843787E+02 -1.632040462E+02  3.535644452E+02  4.369064726E+02  1.250000000E+02  0.00000E+00  9.000E+00
      25     1     1     2     0     0  9.945583090E+01  3.792806041E+00  1.335801249E+02  2.082654495E+02  1.250000000E+02  0.00000E+00  9.000E+00
      21     1     1     2   502   511  5.422854782E+01  1.594112401E+02 -2.298725521E+02  2.849457301E+02  2.697398305E-06  0.00000E+00  9.000E+00
#rwgt            1           1   3.6002214578262262E-002           3      420638           0
</event>
<event>
      5   9999  3.79277E-02  1.72372E+01 -1.00000E+00  1.71878E-01
      21    -1     0     0   502   501  0.000000000E+00  0.000000000E+00  6.651392186E+02  6.651392186E+02  0.000000000E+00  0.00000E+00  9.000E+00
      21    -1     0     0   512   502  0.000000000E+00  0.000000000E+00 -1.103311943E+03  1.103311943E+03  0.000000000E+00  0.00000E+00  9.000E+00
      25     1     1     2     0     0  8.958561426E+01  5.553875643E+01  4.493677375E+02  4.781908607E+02  1.250000000E+02  0.00000E+00  9.000E+00
      25     1     1     2     0     0 -1.067759419E+02 -5.680872750E+01  1.637148164E+02  2.388637151E+02  1.250000000E+02  0.00000E+00  9.000E+00
      21     1     1     2   512   501  1.719032760E+01  1.269971080E+00 -1.051255278E+03  1.051396586E+03  0.000000000E+00  0.00000E+00  9.000E+00
#rwgt            1           1   3.9666975606033612E-002           3      420702           0
</event>
<event>
      5   9999  3.79277E-02  3.43024E+01 -1.00000E+00  1.49104E-01
      21    -1     0     0   502   511  0.000000000E+00  0.000000000E+00  3.433109003E+02  3.433109003E+02  0.000000000E+00  0.00000E+00  9.000E+00
      21    -1     0     0   501   502  0.000000000E+00  0.000000000E+00 -2.771657972E+02  2.771657972E+02  0.000000000E+00  0.00000E+00  9.000E+00
      25     1     1     2     0     0  7.747845136E+01 -1.382985670E+02 -1.409302309E+02  2.462026280E+02  1.250000000E+02  0.00000E+00  9.000E+00
      25     1     1     2     0     0 -5.532103816E+01  1.121125951E+02  1.308403375E+01  1.772733572E+02  1.250000000E+02  0.00000E+00  9.000E+00
      21     1     1     2   501   511 -2.215741321E+01  2.618597191E+01  1.939913002E+02  1.970007123E+02  0.000000000E+00  0.00000E+00  9.000E+00
#rwgt            1           1   1.7566468599340138E-002           3      420878           0
</event>
<event>
      5   9999  3.79277E-02  1.07201E+02 -1.00000E+00  1.22485E-01
      21    -1     0     0   502   512  0.000000000E+00  0.000000000E+00  6.579275284E+02  6.579275284E+02  0.000000000E+00  0.00000E+00  9.000E+00
      21    -1     0     0   501   502  0.000000000E+00  0.000000000E+00 -1.337142403E+02  1.337142403E+02  0.000000000E+00  0.00000E+00  9.000E+00
      25     1     1     2     0     0 -5.700416739E+01  1.115139724E+01  1.919727371E+02  2.363310402E+02  1.250000000E+02  0.00000E+00  9.000E+00
      25     1     1     2     0     0  1.613639757E+02  1.336435568E+01 -1.726314212E+00  2.045603061E+02  1.250000000E+02  0.00000E+00  9.000E+00
      21     1     1     2   501   512 -1.043598083E+02 -2.451575292E+01  3.339668652E+02  3.507504224E+02  3.814697266E-06  0.00000E+00  9.000E+00
#rwgt            1           1   4.2645736568654891E-002           3      421074           0
</event>
<event>
      5   9999  3.79277E-02  1.83754E+01 -1.00000E+00  1.69463E-01
       3    -1     0     0   502     0  0.000000000E+00  0.000000000E+00  1.248331413E+03  1.248331413E+03  0.000000000E+00  0.00000E+00  9.000E+00
      21    -1     0     0   501   502  0.000000000E+00  0.000000000E+00 -8.840766978E+01  8.840766978E+01  0.000000000E+00  0.00000E+00  9.000E+00
      25     1     1     2     0     0 -3.418312293E+01  7.200569700E+01  2.861032325E+02  3.222318512E+02  1.250000000E+02  0.00000E+00  9.000E+00
      25     1     1     2     0     0  1.685155942E+01 -6.590066149E+01  1.827677416E+00  1.423208089E+02  1.250000000E+02  0.00000E+00  9.000E+00
       3     1     1     2   501     0  1.733156351E+01 -6.105035513E+00  8.719928332E+02  8.721864226E+02  1.078959322E-05  0.00000E+00  9.000E+00
#rwgt            1           1   3.7559128991897298E-002           3      421120           0
</event>
<event>
      5   9999  3.79277E-02  3.99615E+01 -1.00000E+00  1.44866E-01
      21    -1     0     0   502   501  0.000000000E+00  0.000000000E+00  9.320509808E+01  9.320509808E+01  0.000000000E+00  0.00000E+00  9.000E+00
      21    -1     0     0   501   511  0.000000000E+00  0.000000000E+00 -9.125480973E+02  9.125480973E+02  0.000000000E+00  0.00000E+00  9.000E+00
      25     1     1     2     0     0  1.850468574E+00 -4.834659369E+01  1.667668875E+01  1.350700903E+02  1.250000000E+02  0.00000E+00  9.000E+00
      25     1     1     2     0     0  3.570060182E+00  8.793879492E+01 -3.368619669E+02  3.699283197E+02  1.250000000E+02  0.00000E+00  9.000E+00
      21     1     1     2   502   511 -5.420528755E+00 -3.959220123E+01 -4.991577210E+02  5.007547853E+02  0.000000000E+00  0.00000E+00  9.000E+00
#rwgt            1           1   2.2895038548499162E-002           3      421339           0
</event>
<event>
      5   9999  3.79277E-02  1.35808E+02 -1.00000E+00  1.18130E-01
      21    -1     0     0   512   501  0.000000000E+00  0.000000000E+00  7.184081364E+02  7.184081364E+02  0.000000000E+00  0.00000E+00  9.000E+00
      21    -1     0     0   501   502  0.000000000E+00  0.000000000E+00 -2.978112937E+02  2.978112937E+02  0.000000000E+00  0.00000E+00  9.000E+00
      25     1     1     2     0     0  1.671555903E+02  3.665282192E+02  3.972861147E+01  4.236594026E+02  1.250000000E+02  0.00000E+00  9.000E+00
      25     1     1     2     0     0 -5.717833089E+01 -2.868482257E+02  2.626548994E+02  4.125092269E+02  1.250000000E+02  0.00000E+00  9.000E+00
      21     1     1     2   512   502 -1.099772594E+02 -7.967999356E+01  1.182133318E+02  1.800508005E+02  1.348699152E-06  0.00000E+00  9.000E+00
#rwgt            1           1   3.6039958835757259E-002           3      421421           0
</event>
<event>
      5   9999  3.79277E-02  3.37931E+01 -1.00000E+00  1.49533E-01
      21    -1     0     0   502   501  0.000000000E+00  0.000000000E+00  1.836012513E+03  1.836012513E+03  0.000000000E+00  0.00000E+00  9.000E+00
      21    -1     0     0   501   511  0.000000000E+00  0.000000000E+00 -5.763781551E+01  5.763781551E+01  0.000000000E+00  0.00000E+00  9.000E+00
      25     1     1     2     0     0 -6.580086624E+01 -1.305040011E+02  1.517357952E+03  1.529497043E+03  1.250000000E+02  0.00000E+00  9.000E+00
      25     1     1     2     0     0  8.790933589E+01  1.560615858E+02  2.392430181E+02  3.239529157E+02  1.250000000E+02  0.00000E+00  9.000E+00
      21     1     1     2   502   511 -2.210846965E+01 -2.555758466E+01  2.177372717E+01  4.020037013E+01  5.840038640E-07  0.00000E+00  9.000E+00
#rwgt            1           1   4.6329490610528622E-002           3      421519           0
</event>
<event>
      5   9999  3.79277E-02  1.72558E+01 -1.00000E+00  1.71837E-01
      21    -1     0     0   512   501  0.000000000E+00  0.000000000E+00  5.200820267E+02  5.200820267E+02  0.000000000E+00  0.00000E+00  9.000E+00
      21    -1     0     0   501   502  0.000000000E+00  0.000000000E+00 -1.603058989E+02  1.603058989E+02  0.000000000E+00  0.00000E+00  9.000E+00
      25     1     1     2     0     0 -1.602665195E+02 -4.835830647E+01  1.876979284E+02  2.808547585E+02  1.250000000E+02  0.00000E+00  9.000E+00
      25     1     1     2     0     0  1.748337281E+02  3.910850985E+01 -8.030607081E+00  2.185996310E+02  1.250000000E+02  0.00000E+00  9.000E+00
      21     1     1     2   512   502 -1.456720862E+01  9.249796620E+00  1.801088065E+02  1.809335361E+02  1.907348633E-06  0.00000E+00  9.000E+00
#rwgt            1           1   3.9373429933728443E-002           3      421766           0
</event>
<event>
      5   9999  3.79277E-02  1.64003E+01 -1.00000E+00  1.73808E-01
      21    -1     0     0   502   501  0.000000000E+00  0.000000000E+00  5.667899061E+02  5.667899061E+02  0.000000000E+00  0.00000E+00  9.000E+00
      21    -1     0     0   501   511  0.000000000E+00  0.000000000E+00 -2.580271529E+02  2.580271529E+02  0.000000000E+00  0.00000E+00  9.000E+00
      25     1     1     2     0     0 -3.984593610E+00 -1.456021528E+02  3.996820754E+02  4.433809032E+02  1.250000000E+02  0.00000E+00  9.000E+00
      25     1     1     2     0     0  2.038047994E+01  1.452230253E+02  8.079184539E+01  2.089435649E+02  1.250000000E+02  0.00000E+00  9.000E+00
      21     1     1     2   502   511 -1.639588633E+01  3.791274985E-01 -1.717111676E+02  1.724925909E+02  1.907348633E-06  0.00000E+00  9.000E+00
#rwgt            1           1   3.8004207467017936E-002           3      422019           0
</event>
<event>
      5   9999  3.79277E-02  2.96552E+01 -1.00000E+00  1.53389E-01
      21    -1     0     0   502   501  0.000000000E+00  0.000000000E+00  7.081931401E+02  7.081931401E+02  0.000000000E+00  0.00000E+00  9.000E+00
      21    -1     0     0   501   512  0.000000000E+00  0.000000000E+00 -9.752023354E+01  9.752023354E+01  0.000000000E+00  0.00000E+00  9.000E+00
      25     1     1     2     0     0  3.788308928E+01  1.332991987E+02  4.805236386E+02  5.154917769E+02  1.250000000E+02  0.00000E+00  9.000E+00
      25     1     1     2     0     0 -4.541577084E+01 -1.046166383E+02  1.704552065E+02  2.401816202E+02  1.250000000E+02  0.00000E+00  9.000E+00
      21     1     1     2   502   512  7.532681558E+00 -2.868256036E+01 -4.030593859E+01  5.003997647E+01  4.768371582E-07  0.00000E+00  9.000E+00
#rwgt            1           1   4.0742395232009856E-002           3      422219           0
</event>
<event>
      5   9999  3.79277E-02  2.74064E+01 -1.00000E+00  1.55818E-01
      21    -1     0     0   511   501  0.000000000E+00  0.000000000E+00  8.607411402E+02  8.607411402E+02  0.000000000E+00  0.00000E+00  9.000E+00
      21    -1     0     0   501   502  0.000000000E+00  0.000000000E+00 -5.610121180E+01  5.610121180E+01  0.000000000E+00  0.00000E+00  9.000E+00
      25     1     1     2     0     0 -3.132544886E+01  1.013852577E+02  1.282346666E+02  2.081571136E+02  1.250000000E+02  0.00000E+00  9.000E+00
      25     1     1     2     0     0  3.488878291E+01 -1.285590529E+02  5.576108599E+02  5.867704222E+02  1.250000000E+02  0.00000E+00  9.000E+00
      21     1     1     2   511   502 -3.563334051E+00  2.717379519E+01  1.187944018E+02  1.219148162E+02  0.000000000E+00  0.00000E+00  9.000E+00
#rwgt            1           1   4.7034879565639329E-002           3      422388           0
</event>
<event>
      5   9999  3.79277E-02  1.76435E+02 -1.00000E+00  1.13667E-01
      21    -1     0     0   512   501  0.000000000E+00  0.000000000E+00  1.360226731E+02  1.360226731E+02  0.000000000E+00  0.00000E+00  9.000E+00
      21    -1     0     0   501   502  0.000000000E+00  0.000000000E+00 -1.117941732E+03  1.117941732E+03  0.000000000E+00  0.00000E+00  9.000E+00
      25     1     1     2     0     0 -2.710309046E+01  4.693954793E+01 -8.608467397E+02  8.715618210E+02  1.250000000E+02  0.00000E+00  9.000E+00
      25     1     1     2     0     0  4.158027680E+01  1.289003195E+02 -8.182888958E+01  2.016560908E+02  1.250000000E+02  0.00000E+00  9.000E+00
      21     1     1     2   512   502 -1.447718635E+01 -1.758398675E+02 -3.924342927E+01  1.807464928E+02  2.078484985E-06  0.00000E+00  9.000E+00
#rwgt            1           1   4.0662603965769047E-002           3      422477           0
</event>
<event>
      5   9999  3.79277E-02  3.25396E+01 -1.00000E+00  1.50628E-01
      21    -1     0     0   502   511  0.000000000E+00  0.000000000E+00  3.281219368E+02  3.281219368E+02  0.000000000E+00  0.00000E+00  9.000E+00
      21    -1     0     0   501   502  0.000000000E+00  0.000000000E+00 -2.533272279E+02  2.533272279E+02  0.000000000E+00  0.00000E+00  9.000E+00
      25     1     1     2     0     0 -1.239020726E+02  9.160821309E+01 -2.496733458E+01  1.999803893E+02  1.250000000E+02  0.00000E+00  9.000E+00
      25     1     1     2     0     0  1.563966721E+02 -9.331891622E+01 -5.144200463E+01  2.268030401E+02  1.250000000E+02  0.00000E+00  9.000E+00
      21     1     1     2   501   511 -3.249459957E+01  1.710703132E+00  1.512040481E+02  1.546657352E+02  3.303624740E-06  0.00000E+00  9.000E+00
#rwgt            1           1   3.2485308333606480E-002           3      422537           0
</event>
<event>
      5   9999  3.79277E-02  9.48478E+01 -1.00000E+00  1.24870E-01
      21    -1     0     0   502   512  0.000000000E+00  0.000000000E+00  2.878116194E+02  2.878116194E+02  0.000000000E+00  0.00000E+00  9.000E+00
      21    -1     0     0   501   502  0.000000000E+00  0.000000000E+00 -9.951661394E+02  9.951661394E+02  0.000000000E+00  0.00000E+00  9.000E+00
      25     1     1     2     0     0 -2.086297362E+01  1.595059208E+02 -8.060923652E+02  8.314368910E+02  1.250000000E+02  0.00000E+00  9.000E+00
      25     1     1     2     0     0  7.502399207E+01 -2.373691983E+02 -4.211599960E+01  2.817294679E+02  1.250000000E+02  0.00000E+00  9.000E+00
      21     1     1     2   501   512 -5.416101845E+01  7.786327752E+01  1.408538448E+02  1.698113998E+02  1.907348633E-06  0.00000E+00  9.000E+00
#rwgt            1           1   5.6950177698401452E-002           3      422630           0
</event>
<event>
      5   9999  3.79277E-02  1.12540E+02 -1.00000E+00  1.21563E-01
       1    -1     0     0   502     0  0.000000000E+00  0.000000000E+00  1.954077184E+03  1.954077184E+03  0.000000000E+00  0.00000E+00  9.000E+00
      21    -1     0     0   501   502  0.000000000E+00  0.000000000E+00 -4.447637149E+01  4.447637149E+01  0.000000000E+00  0.00000E+00  9.000E+00
      25     1     1     2     0     0  1.651918049E+02 -6.092754749E+01  8.966012236E+02  9.222360070E+02  1.250000000E+02  0.00000E+00  9.000E+00
      25     1     1     2     0     0 -1.000322257E+02 -3.083062847E+01  2.119633755E+02  2.674143720E+02  1.250000000E+02  0.00000E+00  9.000E+00
       1     1     1     2   501     0 -6.515957923E+01  9.175817596E+01  8.010362132E+02  8.089031762E+02  0.000000000E+00  0.00000E+00  9.000E+00
#rwgt            1           1   3.4345497269936631E-002           3      422768           0
</event>
<event>
      5   9999  3.79277E-02  5.95806E+01 -1.00000E+00  1.34866E-01
      21    -1     0     0   502   501  0.000000000E+00  0.000000000E+00  1.917302841E+02  1.917302841E+02  0.000000000E+00  0.00000E+00  9.000E+00
      -2    -1     0     0     0   502  0.000000000E+00  0.000000000E+00 -2.316262779E+02  2.316262779E+02  0.000000000E+00  0.00000E+00  9.000E+00
      25     1     1     2     0     0 -2.264643031E+00  6.743922647E+01  7.865448729E+01  1.623721227E+02  1.250000000E+02  0.00000E+00  9.000E+00
      25     1     1     2     0     0 -5.050642258E+01 -9.509902538E+01 -5.509141828E+01  1.739390345E+02  1.250000000E+02  0.00000E+00  9.000E+00
      -2     1     1     2     0   501  5.277106561E+01  2.765979891E+01 -6.345906280E+01  8.704540478E+01  1.168007728E-06  0.00000E+00  9.000E+00
#rwgt            1           1   4.9959413263882882E-002           3      422893           0
</event>
<event>
      5   9999  3.79277E-02  2.58410E+01 -1.00000E+00  1.57682E-01
       1    -1     0     0   502     0  0.000000000E+00  0.000000000E+00  1.199232555E+03  1.199232555E+03  0.000000000E+00  0.00000E+00  9.000E+00
      21    -1     0     0   501   502  0.000000000E+00  0.000000000E+00 -2.263365944E+02  2.263365944E+02  0.000000000E+00  0.00000E+00  9.000E+00
      25     1     1     2     0     0 -1.718841856E+02 -8.987013078E+01  2.831618753E+02  3.652758701E+02  1.250000000E+02  0.00000E+00  9.000E+00
      25     1     1     2     0     0  1.628118199E+02  1.140661857E+02 -1.105810453E+02  2.595610738E+02  1.250000000E+02  0.00000E+00  9.000E+00
       1     1     1     2   501     0  9.072365667E+00 -2.419605495E+01  8.003151304E+02  8.007322055E+02  1.525878906E-05  0.00000E+00  9.000E+00
#rwgt            1           1   3.5565014907930584E-002           3      422999           0
</event>
<event>
      5   9999 -3.79277E-02  8.53250E+01 -1.00000E+00  1.27009E-01
      21    -1     0     0   502   501  0.000000000E+00  0.000000000E+00  2.253775531E+02  2.253775531E+02  0.000000000E+00  0.00000E+00  9.000E+00
      21    -1     0     0   501   511  0.000000000E+00  0.000000000E+00 -2.458806373E+02  2.458806373E+02  0.000000000E+00  0.00000E+00  9.000E+00
      25     1     1     2     0     0  4.486639976E+00 -1.196941654E+02 -3.517286416E+01  1.766605602E+02  1.250000000E+02  0.00000E+00  9.000E+00
      25     1     1     2     0     0 -8.759477654E+01  1.390177636E+02  2.762282655E+01  2.082949928E+02  1.250000000E+02  0.00000E+00  9.000E+00
      21     1     1     2   502   511  8.310813656E+01 -1.932359815E+01 -1.295304656E+01  8.630263741E+01  6.307962682E-07  0.00000E+00  9.000E+00
#rwgt            1           1 -0.32270908671842841                3      423151           0
</event>
<event>
      5   9999 -3.79277E-02  2.93336E+01 -1.00000E+00  1.53721E-01
      21    -1     0     0   502   501  0.000000000E+00  0.000000000E+00  1.505756786E+02  1.505756786E+02  0.000000000E+00  0.00000E+00  9.000E+00
      21    -1     0     0   512   502  0.000000000E+00  0.000000000E+00 -2.773736409E+02  2.773736409E+02  0.000000000E+00  0.00000E+00  9.000E+00
      25     1     1     2     0     0 -9.201935948E+01  5.507015478E+01  4.595195115E+00  1.647616469E+02  1.250000000E+02  0.00000E+00  9.000E+00
      25     1     1     2     0     0  1.184607705E+02 -6.777091871E+01 -7.513264346E+01  1.997392442E+02  1.250000000E+02  0.00000E+00  9.000E+00
      21     1     1     2   512   501 -2.644141104E+01  1.270076393E+01 -5.626051403E+01  6.344842836E+01  0.000000000E+00  0.00000E+00  9.000E+00
#rwgt            1           1 -0.13825938785277866                3      423223           0
</event>
<event>
      5   9999  3.79277E-02  9.89833E+01 -1.00000E+00  1.24028E-01
      21    -1     0     0   511   501  0.000000000E+00  0.000000000E+00  5.092354077E+02  5.092354077E+02  0.000000000E+00  0.00000E+00  9.000E+00
      21    -1     0     0   501   502  0.000000000E+00  0.000000000E+00 -1.781665899E+02  1.781665899E+02  0.000000000E+00  0.00000E+00  9.000E+00
      25     1     1     2     0     0  2.874791348E+01  7.797996525E+01  2.600200900E+02  3.002378469E+02  1.250000000E+02  0.00000E+00  9.000E+00
      25     1     1     2     0     0 -2.514558584E+01  2.093777645E+01 -1.172205035E+02  1.744601313E+02  1.250000000E+02  0.00000E+00  9.000E+00
      21     1     1     2   511   502 -3.602327643E+00 -9.891774170E+01  1.882692314E+02  2.127040194E+02  2.697398305E-06  0.00000E+00  9.000E+00
#rwgt            1           1   4.5405025701379657E-002           3      423331           0
</event>
<event>
      5   9999 -3.79277E-02  6.95763E+01 -1.00000E+00  1.31354E-01
       4    -1     0     0   502     0  0.000000000E+00  0.000000000E+00  2.015799873E+03  2.015799873E+03  0.000000000E+00  0.00000E+00  9.000E+00
      21    -1     0     0   501   502  0.000000000E+00  0.000000000E+00 -4.737134823E+02  4.737134823E+02  0.000000000E+00  0.00000E+00  9.000E+00
      25     1     1     2     0     0 -5.728779243E+01  1.356125384E+02 -3.979577616E+02  4.423437936E+02  1.250000000E+02  0.00000E+00  9.000E+00
      25     1     1     2     0     0 -1.066217347E+01 -1.206571695E+02  9.024752717E+01  1.960649144E+02  1.250000000E+02  0.00000E+00  9.000E+00
       4     1     1     2   501     0  6.794996591E+01 -1.495536892E+01  1.849796625E+03  1.851104648E+03  0.000000000E+00  0.00000E+00  9.000E+00
#rwgt            1           1  -9.6402752175995227E-002           3      423432           0
</event>
<event>
      5   9999  3.79277E-02  1.32976E+02 -1.00000E+00  1.18505E-01
      21    -1     0     0   511   501  0.000000000E+00  0.000000000E+00  1.478417240E+02  1.478417240E+02  0.000000000E+00  0.00000E+00  9.000E+00
      21    -1     0     0   501   502  0.000000000E+00  0.000000000E+00 -8.627624455E+02  8.627624455E+02  0.000000000E+00  0.00000E+00  9.000E+00
      25     1     1     2     0     0 -1.423130250E+02  1.600582576E+02 -7.859801116E+01  2.601428267E+02  1.250000000E+02  0.00000E+00  9.000E+00
      25     1     1     2     0     0  1.373213013E+02 -2.717600972E+01 -5.734355989E+02  6.033647830E+02  1.250000000E+02  0.00000E+00  9.000E+00
      21     1     1     2   511   502  4.991723652E+00 -1.328822479E+02 -6.288711141E+01  1.470965597E+02  3.438521648E-06  0.00000E+00  9.000E+00
#rwgt            1           1   4.5560405565583169E-002           3      423568           0
</event>
<event>
      5   9999  3.79277E-02  1.01398E+02 -1.00000E+00  1.23557E-01
       2    -1     0     0   502     0  0.000000000E+00  0.000000000E+00  3.094068379E+02  3.094068379E+02  0.000000000E+00  0.00000E+00  9.000E+00
      21    -1     0     0   501   502  0.000000000E+00  0.000000000E+00 -2.672766191E+02  2.672766191E+02  0.000000000E+00  0.00000E+00  9.000E+00
      25     1     1     2     0     0  3.603708769E+01 -8.310239272E+01 -1.874604925E+02  2.428396912E+02  1.250000000E+02  0.00000E+00  9.000E+00
      25     1     1     2     0     0 -6.335657592E+01 -1.454548522E+01  1.375404629E+02  1.968959263E+02  1.250000000E+02  0.00000E+00  9.000E+00
       2     1     1     2   501     0  2.731948823E+01  9.764787794E+01  9.205024844E+01  1.369478395E+02  1.348699152E-06  0.00000E+00  9.000E+00
#rwgt            1           1   2.9077308493250829E-002           3      423683           0
</event>
<event>
      5   9999  3.79277E-02  1.19232E+02 -1.00000E+00  1.20487E-01
      21    -1     0     0   502   511  0.000000000E+00  0.000000000E+00  7.285814825E+02  7.285814825E+02  0.000000000E+00  0.00000E+00  9.000E+00
      21    -1     0     0   501   502  0.000000000E+00  0.000000000E+00 -8.962022817E+01  8.962022817E+01  0.000000000E+00  0.00000E+00  9.000E+00
      25     1     1     2     0     0 -8.619070190E+01 -7.086402388E+01  2.968376782E+02  3.408638352E+02  1.250000000E+02  0.00000E+00  9.000E+00
      25     1     1     2     0     0 -1.334623810E+01  5.224081528E+00  1.205614452E+01  1.263952678E+02  1.250000000E+02  0.00000E+00  9.000E+00
      21     1     1     2   501   511  9.953693999E+01  6.563994235E+01  3.300674316E+02  3.509426077E+02  6.607249480E-06  0.00000E+00  9.000E+00
#rwgt            2          11   1.3872024290000379E-003           3      423730           0
</event>
<event>
      5   9999  3.79277E-02  5.47656E+01 -1.00000E+00  1.36857E-01
      21    -1     0     0   502   501  0.000000000E+00  0.000000000E+00  1.534924410E+02  1.534924410E+02  0.000000000E+00  0.00000E+00  9.000E+00
      21    -1     0     0   512   502  0.000000000E+00  0.000000000E+00 -4.834651405E+02  4.834651405E+02  0.000000000E+00  0.00000E+00  9.000E+00
      25     1     1     2     0     0  8.749309849E+01  1.879620642E+02 -2.436048616E+02  3.434430207E+02  1.250000000E+02  0.00000E+00  9.000E+00
      25     1     1     2     0     0 -3.342176596E+01 -1.792692833E+02 -4.689398875E+01  2.260056118E+02  1.250000000E+02  0.00000E+00  9.000E+00
      21     1     1     2   512   501 -5.407133253E+01 -8.692780943E+00 -3.947384921E+01  6.750894914E+01  1.430511475E-06  0.00000E+00  9.000E+00
#rwgt            1           1   3.8173164800013142E-002           3      423900           0
</event>
<event>
      5   9999  3.79277E-02  8.97344E+01 -1.00000E+00  1.25981E-01
      21    -1     0     0   502   501  0.000000000E+00  0.000000000E+00  9.347315569E+02  9.347315569E+02  0.000000000E+00  0.00000E+00  9.000E+00
      21    -1     0     0   511   502  0.000000000E+00  0.000000000E+00 -3.208968349E+02  3.208968349E+02  0.000000000E+00  0.00000E+00  9.000E+00
      25     1     1     2     0     0  1.548438821E+02 -9.701777352E+01  5.407115904E+02  5.842799844E+02  1.250000000E+02  0.00000E+00  9.000E+00
      25     1     1     2     0     0 -7.003388184E+01  1.263355707E+02  3.398909547E+02  3.898926546E+02  1.250000000E+02  0.00000E+00  9.000E+00
      21     1     1     2   511   501 -8.481000023E+01 -2.931779717E+01 -2.667678231E+02  2.814557528E+02  6.607249480E-06  0.00000E+00  9.000E+00
#rwgt            1           1   3.4447312438238932E-002           3      424119           0
</event>
<event>
      5   9999  3.79277E-02  1.52733E+01 -1.00000E+00  1.76648E-01
      21    -1     0     0   502   501  0.000000000E+00  0.000000000E+00  3.418428052E+01  3.418428052E+01  0.000000000E+00  0.00000E+00  9.000E+00
      21    -1     0     0   501   512  0.000000000E+00  0.000000000E+00 -1.606282737E+03  1.606282737E+03  0.000000000E+00  0.00000E+00  9.000E+00
      25     1     1     2     0     0  1.715446367E+02  4.015917794E+01 -8.013078413E+02  8.299154044E+02  1.250000000E+02  0.00000E+00  9.000E+00
      25     1     1     2     0     0 -1.764624160E+02 -5.461905108E+01 -6.183197686E+02  6.573177019E+02  1.250000000E+02  0.00000E+00  9.000E+00
      21     1     1     2   502   512  4.917779266E+00  1.445987314E+01 -1.524708470E+02  1.532339116E+02  1.907348633E-06  0.00000E+00  9.000E+00
#rwgt            1           1   5.0472826513861153E-002           3      424217           0
</event>
<event>
      5   9999  3.79277E-02  8.01663E+01 -1.00000E+00  1.28306E-01
      21    -1     0     0   502   501  0.000000000E+00  0.000000000E+00  1.787463104E+02  1.787463104E+02  0.000000000E+00  0.00000E+00  9.000E+00
      -3    -1     0     0     0   502  0.000000000E+00  0.000000000E+00 -6.278700889E+02  6.278700889E+02  0.000000000E+00  0.00000E+00  9.000E+00
      25     1     1     2     0     0 -2.693901518E+01  9.969844142E+01 -3.350952416E+01  1.655698583E+02  1.250000000E+02  0.00000E+00  9.000E+00
      25     1     1     2     0     0 -4.246527752E+01 -5.957770567E+01  6.142082550E+01  1.573223462E+02  1.250000000E+02  0.00000E+00  9.000E+00
      -3     1     1     2     0   501  6.940429271E+01 -4.012073575E+01 -4.770350798E+02  4.837241948E+02  7.629394531E-06  0.00000E+00  9.000E+00
#rwgt            1           1   4.6952236033218693E-002           3      424484           0
</event>
<event>
      5   9999  3.79277E-02  2.62692E+01 -1.00000E+00  1.57157E-01
       2    -1     0     0   502     0  0.000000000E+00  0.000000000E+00  1.229358743E+03  1.229358743E+03  0.000000000E+00  0.00000E+00  9.000E+00
      21    -1     0     0   501   502  0.000000000E+00  0.000000000E+00 -1.324806039E+02  1.324806039E+02  0.000000000E+00  0.00000E+00  9.000E+00
      25     1     1     2     0     0  1.216845563E+02 -6.207466909E+01  1.025080216E+02  2.116442541E+02  1.250000000E+02  0.00000E+00  9.000E+00
      25     1     1     2     0     0 -1.201364300E+02  8.829821469E+01  4.401689576E+01  1.994788802E+02  1.250000000E+02  0.00000E+00  9.000E+00
       2     1     1     2   501     0 -1.548126296E+00 -2.622354560E+01  9.503532213E+02  9.507162122E+02  0.000000000E+00  0.00000E+00  9.000E+00
#rwgt            1           1   4.4693393066833766E-002           3      424527           0
</event>
<event>
      5   9999  3.79277E-02  4.78908E+00 -1.00000E+00  2.46311E-01
      21    -1     0     0   502   501  0.000000000E+00  0.000000000E+00  9.796466537E+01  9.796466537E+01  0.000000000E+00  0.00000E+00  9.000E+00
      21    -1     0     0   511   502  0.000000000E+00  0.000000000E+00 -6.654537570E+02  6.654537570E+02  0.000000000E+00  0.00000E+00  9.000E+00
      25     1     1     2     0     0 -1.982767327E+02 -8.878138036E+01 -3.046897605E+02  3.945334541E+02  1.250000000E+02  0.00000E+00  9.000E+00
      25     1     1     2     0     0  1.938552126E+02  9.062133532E+01 -2.379056700E+02  3.435348275E+02  1.250000000E+02  0.00000E+00  9.000E+00
      21     1     1     2   511   501  4.421520069E+00 -1.839954956E+00 -2.489366115E+01  2.535014082E+01  3.371747881E-07  0.00000E+00  9.000E+00
#rwgt            1           1   2.5995913882641795E-002           3      424742           0
</event>
<event>
      5   9999  3.79277E-02  2.71484E+01 -1.00000E+00  1.56115E-01
      21    -1     0     0   512   501  0.000000000E+00  0.000000000E+00  1.241210763E+02  1.241210763E+02  0.000000000E+00  0.00000E+00  9.000E+00
      21    -1     0     0   501   502  0.000000000E+00  0.000000000E+00 -3.430428830E+02  3.430428830E+02  0.000000000E+00  0.00000E+00  9.000E+00
      25     1     1     2     0     0 -8.859520792E+01  1.411128797E+01 -2.390309350E+02  2.842692864E+02  1.250000000E+02  0.00000E+00  9.000E+00
      25     1     1     2     0     0  8.789620894E+01  1.302811520E+01  2.476323298E+01  1.553502270E+02  1.250000000E+02  0.00000E+00  9.000E+00
      21     1     1     2   512   502  6.989989855E-01 -2.713940318E+01 -4.654104659E+00  2.754444580E+01  4.986882368E-07  0.00000E+00  9.000E+00
#rwgt            1           1   3.0199959902067291E-002           3      425390           0
</event>
<event>
      5   9999  3.79277E-02  2.10462E+01 -1.00000E+00  1.64563E-01
      21    -1     0     0   502   501  0.000000000E+00  0.000000000E+00  1.527089951E+02  1.527089951E+02  0.000000000E+00  0.00000E+00  9.000E+00
      21    -1     0     0   501   511  0.000000000E+00  0.000000000E+00 -4.224174951E+02  4.224174951E+02  0.000000000E+00  0.00000E+00  9.000E+00
      25     1     1     2     0     0 -6.699464858E+01  8.486292883E+01  5.999815614E+01  1.758259889E+02  1.250000000E+02  0.00000E+00  9.000E+00
      25     1     1     2     0     0  4.642435972E+01 -8.041258722E+01 -1.430046891E+02  2.114160507E+02  1.250000000E+02  0.00000E+00  9.000E+00
      21     1     1     2   502   511  2.057028886E+01 -4.450341608E+00 -1.867019670E+02  1.878844507E+02  4.672030912E-06  0.00000E+00  9.000E+00
#rwgt            1           1   4.3672062782053010E-002           3      425587           0
</event>
<event>
      5   9999  3.79277E-02  8.37273E+00 -1.00000E+00  2.05118E-01
      21    -1     0     0   512   501  0.000000000E+00  0.000000000E+00  3.124720021E+01  3.124720021E+01  0.000000000E+00  0.00000E+00  9.000E+00
      21    -1     0     0   501   502  0.000000000E+00  0.000000000E+00 -1.737538356E+03  1.737538356E+03  0.000000000E+00  0.00000E+00  9.000E+00
      25     1     1     2     0     0 -4.500256836E+01  1.025423715E+02 -2.835536121E+02  3.294963127E+02  1.250000000E+02  0.00000E+00  9.000E+00
      25     1     1     2     0     0  5.337316253E+01 -1.023533528E+02 -1.420457591E+03  1.430611643E+03  1.250000000E+02  0.00000E+00  9.000E+00
      21     1     1     2   512   502 -8.370594173E+00 -1.890186877E-01 -2.279952365E+00  8.677600916E+00  5.161913656E-08  0.00000E+00  9.000E+00
#rwgt            1           1   5.9224251117972672E-002           3      425822           0
</event>
<event>
      5   9999  3.79277E-02  1.62942E+01 -1.00000E+00  1.74063E-01
      21    -1     0     0   511   501  0.000000000E+00  0.000000000E+00  2.552822809E+02  2.552822809E+02  0.000000000E+00  0.00000E+00  9.000E+00
      21    -1     0     0   501   502  0.000000000E+00  0.000000000E+00 -1.716305072E+02  1.716305072E+02  0.000000000E+00  0.00000E+00  9.000E+00
      25     1     1     2     0     0 -1.363468350E+02  3.850802488E+01  1.793839369E+01  1.897896556E+02  1.250000000E+02  0.00000E+00  9.000E+00
      25     1     1     2     0     0  1.524300977E+02 -4.112123696E+01  3.792911121E+01  2.049134166E+02  1.250000000E+02  0.00000E+00  9.000E+00
      21     1     1     2   511   502 -1.608326270E+01  2.613212076E+00  2.778426875E+01  3.220971603E+01  3.371747881E-07  0.00000E+00  9.000E+00
#rwgt            1           1   2.8510224640010115E-002           3      426113           0
</event>
<event>
      5   9999  3.79277E-02  1.21623E+01 -1.00000E+00  1.86417E-01
      21    -1     0     0   502   501  0.000000000E+00  0.000000000E+00  1.830456525E+02  1.830456525E+02  0.000000000E+00  0.00000E+00  9.000E+00
      21    -1     0     0   512   502  0.000000000E+00  0.000000000E+00 -1.868481776E+02  1.868481776E+02  0.000000000E+00  0.00000E+00  9.000E+00
      25     1     1     2     0     0 -1.008226787E+02  1.275127202E+01  2.329811262E+01  1.627747202E+02  1.250000000E+02  0.00000E+00  9.000E+00
      25     1     1     2     0     0  1.110186354E+02 -1.938176700E+01  9.480154113E+00  1.685694623E+02  1.250000000E+02  0.00000E+00  9.000E+00
      21     1     1     2   512   501 -1.019595665E+01  6.630494982E+00 -3.658079187E+01  3.854964759E+01  0.000000000E+00  0.00000E+00  9.000E+00
#rwgt            1           1   4.4711418000676226E-002           3      426355           0
</event>
<event>
      5   9999 -3.79277E-02  7.64954E+01 -1.00000E+00  1.29298E-01
      21    -1     0     0   511   501  0.000000000E+00  0.000000000E+00  2.037674852E+03  2.037674852E+03  0.000000000E+00  0.00000E+00  9.000E+00
      21    -1     0     0   501   502  0.000000000E+00  0.000000000E+00 -1.530763794E+02  1.530763794E+02  0.000000000E+00  0.00000E+00  9.000E+00
      25     1     1     2     0     0  2.488104259E+01  1.343679541E+02  1.467436533E+02  2.362890458E+02  1.250000000E+02  0.00000E+00  9.000E+00
      25     1     1     2     0     0 -5.446517219E+01 -2.049110143E+02  3.350896679E+01  2.484005428E+02  1.250000000E+02  0.00000E+00  9.000E+00
      21     1     1     2   511   502  2.958412961E+01  7.054306022E+01  1.704345852E+03  1.706061643E+03  2.157918644E-05  0.00000E+00  9.000E+00
#rwgt            1           1 -0.15609361284706441                3      426580           0
</event>
<event>
      5   9999 -3.79277E-02  1.17004E+02 -1.00000E+00  1.20836E-01
      21    -1     0     0   502   501  0.000000000E+00  0.000000000E+00  2.188331249E+03  2.188331249E+03  0.000000000E+00  0.00000E+00  9.000E+00
      21    -1     0     0   501   512  0.000000000E+00  0.000000000E+00 -1.657155471E+02  1.657155471E+02  0.000000000E+00  0.00000E+00  9.000E+00
      25     1     1     2     0     0  1.036957419E+02 -1.567554338E+02  5.446403779E+02  5.895618832E+02  1.250000000E+02  0.00000E+00  9.000E+00
      25     1     1     2     0     0 -1.941015316E+01  2.379093990E+02  1.583900125E+03  1.606655607E+03  1.250000000E+02  0.00000E+00  9.000E+00
      21     1     1     2   502   512 -8.428558876E+01 -8.115396519E+01 -1.059248000E+02  1.578293059E+02  0.000000000E+00  0.00000E+00  9.000E+00
#rwgt            1           1 -0.19586148992063473                3      426704           0
</event>
<event>
      5   9999  3.79277E-02  4.09775E+00 -1.00000E+00  2.61024E-01
      21    -1     0     0   502   501  0.000000000E+00  0.000000000E+00  4.546050561E+02  4.546050561E+02  0.000000000E+00  0.00000E+00  9.000E+00
       2    -1     0     0   501     0  0.000000000E+00  0.000000000E+00 -1.038137732E+03  1.038137732E+03  0.000000000E+00  0.00000E+00  9.000E+00
      25     1     1     2     0     0 -1.556626494E+02 -8.619690630E+01 -1.432235807E+00  2.174576243E+02  1.250000000E+02  0.00000E+00  9.000E+00
      25     1     1     2     0     0  1.579733209E+02  8.958103449E+01  3.115277524E+02  3.816475761E+02  1.250000000E+02  0.00000E+00  9.000E+00
       2     1     1     2   502     0 -2.310671534E+00 -3.384128192E+00 -8.936281925E+02  8.936375876E+02  1.078959322E-05  0.00000E+00  9.000E+00
#rwgt            1           1   2.8921197237316051E-002           3      426795           0
</event>
<event>
      5   9999  3.79277E-02  9.91697E+00 -1.00000E+00  1.96177E-01
      21    -1     0     0   511   501  0.000000000E+00  0.000000000E+00  1.298997355E+03  1.298997355E+03  0.000000000E+00  0.00000E+00  9.000E+00
      21    -1     0     0   501   502  0.000000000E+00  0.000000000E+00 -1.540568945E+02  1.540568945E+02  0.000000000E+00  0.00000E+00  9.000E+00
      25     1     1     2     0     0  1.913990448E+02 -1.010691449E+01  8.720863329E+01  2.448797455E+02  1.250000000E+02  0.00000E+00  9.000E+00
      25     1     1     2     0     0 -1.991729871E+02  1.626418911E+01  1.095213267E+02  2.599121460E+02  1.250000000E+02  0.00000E+00  9.000E+00
      21     1     1     2   511   502  7.773942368E+00 -6.157274621E+00  9.482105007E+02  9.482623582E+02  1.078959322E-05  0.00000E+00  9.000E+00
#rwgt            1           1   3.6241273803025414E-002           3      427328           0
</event>
<event>
      5   9999  3.79277E-02  3.88587E+01 -1.00000E+00  1.45624E-01
      21    -1     0     0   502   501  0.000000000E+00  0.000000000E+00  3.462276522E+02  3.462276522E+02  0.000000000E+00  0.00000E+00  9.000E+00
      21    -1     0     0   512   502  0.000000000E+00  0.000000000E+00 -1.824566128E+02  1.824566128E+02  0.000000000E+00  0.00000E+00  9.000E+00
      25     1     1     2     0     0  5.316272510E+01 -3.003846169E+01 -6.000107670E+01  1.515048307E+02  1.250000000E+02  0.00000E+00  9.000E+00
      25     1     1     2     0     0 -9.059493309E+01  1.960630041E+01  2.731355431E+02  3.143562848E+02  1.250000000E+02  0.00000E+00  9.000E+00
      21     1     1     2   512   501  3.743220799E+01  1.043216128E+01 -4.936342704E+01  6.282314950E+01  6.743495762E-07  0.00000E+00  9.000E+00
#rwgt            1           1   5.2658928312616468E-002           3      427629           0
</event>
<event>
      5   9999  3.79277E-02  9.13672E+00 -1.00000E+00  2.00402E-01
      21    -1     0     0   502   501  0.000000000E+00  0.000000000E+00  5.372127066E+02  5.372127066E+02  0.000000000E+00  0.00000E+00  9.000E+00
      21    -1     0     0   501   511  0.000000000E+00  0.000000000E+00 -1.101425377E+02  1.101425377E+02  0.000000000E+00  0.00000E+00  9.000E+00
      25     1     1     2     0     0  1.125216464E+02  8.383777046E+01  2.946049369E+01  1.902178050E+02  1.250000000E+02  0.00000E+00  9.000E+00
      25     1     1     2     0     0 -1.214155381E+02 -8.174533925E+01  4.029445747E+02  4.465572345E+02  1.250000000E+02  0.00000E+00  9.000E+00
      21     1     1     2   502   511  8.893891788E+00 -2.092431214E+00 -5.334899486E+00  1.058020473E+01  2.308477966E-07  0.00000E+00  9.000E+00
#rwgt            1           1   5.0813388623500023E-002           3      427729           0
</event>
<event>
      5   9999  3.79277E-02  1.36461E+01 -1.00000E+00  1.81343E-01
      21    -1     0     0   502   512  0.000000000E+00  0.000000000E+00  1.316290549E+02  1.316290549E+02  0.000000000E+00  0.00000E+00  9.000E+00
      21    -1     0     0   501   502  0.000000000E+00  0.000000000E+00 -5.238293549E+02  5.238293549E+02  0.000000000E+00  0.00000E+00  9.000E+00
      25     1     1     2     0     0  1.592650548E+02 -8.964636356E+01 -3.178438026E+02  3.873648293E+02  1.250000000E+02  0.00000E+00  9.000E+00
      25     1     1     2     0     0 -1.584520520E+02  7.602447182E+01 -1.010109024E+02  2.381490615E+02  1.250000000E+02  0.00000E+00  9.000E+00
      21     1     1     2   501   512 -8.130027664E-01  1.362189175E+01  2.665440494E+01  2.994451888E+01  4.768371582E-07  0.00000E+00  9.000E+00
#rwgt            1           1   3.8171766631812827E-002           3      428013           0
</event>
<event>
      5   9999  3.79277E-02  1.37437E+02 -1.00000E+00  1.17919E-01
      21    -1     0     0   502   501  0.000000000E+00  0.000000000E+00  2.101679399E+02  2.101679399E+02  0.000000000E+00  0.00000E+00  9.000E+00
      21    -1     0     0   511   502  0.000000000E+00  0.000000000E+00 -4.838617399E+02  4.838617399E+02  0.000000000E+00  0.00000E+00  9.000E+00
      25     1     1     2     0     0  6.916696369E+01  5.462728243E+01  7.761239074E+01  1.715135331E+02  1.250000000E+02  0.00000E+00  9.000E+00
      25     1     1     2     0     0 -2.050257674E+02 -3.385773681E+01 -2.696383778E+02  3.626455107E+02  1.250000000E+02  0.00000E+00  9.000E+00
      21     1     1     2   511   501  1.358588037E+02 -2.076954562E+01 -8.166781292E+01  1.598706359E+02  2.132480600E-06  0.00000E+00  9.000E+00
#rwgt            1           1   5.2857414231951477E-002           3      428187           0
</event>
<event>
      5   9999  3.79277E-02  8.41896E+00 -1.00000E+00  2.04814E-01
      21    -1     0     0   502   501  0.000000000E+00  0.000000000E+00  3.359025631E+02  3.359025631E+02  0.000000000E+00  0.00000E+00  9.000E+00
      21    -1     0     0   501   512  0.000000000E+00  0.000000000E+00 -2.786420112E+02  2.786420112E+02  0.000000000E+00  0.00000E+00  9.000E+00
      25     1     1     2     0     0  2.129938650E+02 -1.277939909E+02  1.370282502E+02  3.099990839E+02  1.250000000E+02  0.00000E+00  9.000E+00
      25     1     1     2     0     0 -2.188848033E+02  1.338086231E+02 -7.888960555E+01  2.960808582E+02  1.250000000E+02  0.00000E+00  9.000E+00
      21     1     1     2   502   512  5.890938255E+00 -6.014632177E+00 -8.780927208E-01  8.464632336E+00  1.281846354E-07  0.00000E+00  9.000E+00
#rwgt            1           1   3.3150140375726687E-002           3      428368           0
</event>
<event>
      5   9999  3.79277E-02  4.83606E+01 -1.00000E+00  1.39907E-01
      21    -1     0     0   502   511  0.000000000E+00  0.000000000E+00  6.443885054E+01  6.443885054E+01  0.000000000E+00  0.00000E+00  9.000E+00
      21    -1     0     0   501   502  0.000000000E+00  0.000000000E+00 -7.026597762E+02  7.026597762E+02  0.000000000E+00  0.00000E+00  9.000E+00
      25     1     1     2     0     0  8.895871800E+01 -5.507882112E+01 -4.971025233E+02  5.231474445E+02  1.250000000E+02  0.00000E+00  9.000E+00
      25     1     1     2     0     0 -4.336030769E+01  7.118885009E+01 -1.131564967E+02  1.880887062E+02  1.250000000E+02  0.00000E+00  9.000E+00
      21     1     1     2   501   511 -4.559841031E+01 -1.611002897E+01 -2.796190568E+01  5.586247601E+01  4.768371582E-07  0.00000E+00  9.000E+00
#rwgt            1           1   4.4473617650384017E-002           3      428690           0
</event>
<event>
      5   9999  3.79277E-02  1.37961E+01 -1.00000E+00  1.80876E-01
      21    -1     0     0   502   512  0.000000000E+00  0.000000000E+00  7.102692650E+02  7.102692650E+02  0.000000000E+00  0.00000E+00  9.000E+00
      21    -1     0     0   501   502  0.000000000E+00  0.000000000E+00 -1.022158902E+02  1.022158902E+02  0.000000000E+00  0.00000E+00  9.000E+00
      25     1     1     2     0     0 -7.794270242E+01 -9.218354177E+01  1.051239595E+00  1.737785238E+02  1.250000000E+02  0.00000E+00  9.000E+00
      25     1     1     2     0     0  6.501457872E+01  9.699983650E+01  4.552130796E+02  4.862918995E+02  1.250000000E+02  0.00000E+00  9.000E+00
      21     1     1     2   501   512  1.292812370E+01 -4.816294728E+00  1.517890556E+02  1.524147319E+02  1.907348633E-06  0.00000E+00  9.000E+00
#rwgt            2          11   4.9787344981808515E-004           3      428817           0
</event>
<event>
      5   9999  3.79277E-02  2.20349E+01 -1.00000E+00  1.62970E-01
      21    -1     0     0   511   501  0.000000000E+00  0.000000000E+00  2.138765537E+03  2.138765537E+03  0.000000000E+00  0.00000E+00  9.000E+00
      21    -1     0     0   501   502  0.000000000E+00  0.000000000E+00 -3.156484979E+01  3.156484979E+01  0.000000000E+00  0.00000E+00  9.000E+00
      25     1     1     2     0     0  3.015776266E+01  1.272401585E+02  3.048535806E+02  3.544859013E+02  1.250000000E+02  0.00000E+00  9.000E+00
      25     1     1     2     0     0 -3.652512035E+01 -1.483349868E+02  1.545540730E+03  1.558094510E+03  1.250000000E+02  0.00000E+00  9.000E+00
      21     1     1     2   511   502  6.367357686E+00  2.109482828E+01  2.568063760E+02  2.577499753E+02  3.814697266E-06  0.00000E+00  9.000E+00
#rwgt            1           1   2.4723135247633678E-002           3      428867           0
</event>
<event>
      5   9999  3.79277E-02  1.13796E+02 -1.00000E+00  1.21355E-01
      21    -1     0     0   502   501  0.000000000E+00  0.000000000E+00  4.423658569E+02  4.423658569E+02  0.000000000E+00  0.00000E+00  9.000E+00
      21    -1     0     0   501   512  0.000000000E+00  0.000000000E+00 -1.950642306E+02  1.950642306E+02  0.000000000E+00  0.00000E+00  9.000E+00
      25     1     1     2     0     0  2.740350567E+01  6.071078787E+01  3.352237646E+02  3.639185681E+02  1.250000000E+02  0.00000E+00  9.000E+00
      25     1     1     2     0     0  4.854190445E+01  2.403437288E+01 -8.317832262E+01  1.596170446E+02  1.250000000E+02  0.00000E+00  9.000E+00
      21     1     1     2   502   512 -7.594541012E+01 -8.474516076E+01 -4.743815708E+00  1.138944747E+02  2.383440617E-06  0.00000E+00  9.000E+00
#rwgt            1           1   2.1682330964139455E-002           3      429065           0
</event>
<event>
      5   9999  3.79277E-02  1.47955E+01 -1.00000E+00  1.77947E-01
      -1    -1     0     0     0   501  0.000000000E+00  0.000000000E+00  3.117524916E+02  3.117524916E+02  0.000000000E+00  0.00000E+00  9.000E+00
      21    -1     0     0   501   502  0.000000000E+00  0.000000000E+00 -6.625206314E+02  6.625206314E+02  0.000000000E+00  0.00000E+00  9.000E+00
      25     1     1     2     0     0  1.055345416E+02  5.410225617E+01 -5.051451314E+02  5.337238962E+02  1.250000000E+02  0.00000E+00  9.000E+00
      25     1     1     2     0     0 -1.049348285E+02 -3.931890947E+01 -9.354947116E+01  1.921816808E+02  1.250000000E+02  0.00000E+00  9.000E+00
      -1     1     1     2     0   502 -5.997130959E-01 -1.478334669E+01  2.479264628E+02  2.483675461E+02  3.814697266E-06  0.00000E+00  9.000E+00
#rwgt            1           1   3.1535054411336319E-002           3      429316           0
</event>
<event>
      5   9999  3.79277E-02  1.44025E+01 -1.00000E+00  1.79063E-01
      21    -1     0     0   511   501  0.000000000E+00  0.000000000E+00  8.203839522E+01  8.203839522E+01  0.000000000E+00  0.00000E+00  9.000E+00
      21    -1     0     0   501   502  0.000000000E+00  0.000000000E+00 -5.891123088E+02  5.891123088E+02  0.000000000E+00  0.00000E+00  9.000E+00
      25     1     1     2     0     0  4.328951563E+01 -9.506946704E+01 -1.462144351E+02  2.188968861E+02  1.250000000E+02  0.00000E+00  9.000E+00
      25     1     1     2     0     0 -5.631117767E+01  1.012231970E+02 -3.867472845E+02  4.226293251E+02  1.250000000E+02  0.00000E+00  9.000E+00
      21     1     1     2   511   502  1.302166204E+01 -6.153729997E+00  2.588780600E+01  2.962449282E+01  4.768371582E-07  0.00000E+00  9.000E+00
#rwgt            1           1   4.0042390302740531E-002           3      429569           0
</event>
<event>
      5   9999  3.79277E-02  4.22405E+01 -1.00000E+00  1.43387E-01
      21    -1     0     0   502   501  0.000000000E+00  0.000000000E+00  8.020761883E+01  8.020761883E+01  0.000000000E+00  0.00000E+00  9.000E+00
      21    -1     0     0   501   512  0.000000000E+00  0.000000000E+00 -1.125799754E+03  1.125799754E+03  0.000000000E+00  0.00000E+00  9.000E+00
      25     1     1     2     0     0 -1.078075193E+02 -7.957708191E+01 -6.186456811E+02  6.452150431E+02  1.250000000E+02  0.00000E+00  9.000E+00
      25     1     1     2     0     0  1.379873029E+02  1.091310693E+02 -1.122231598E+02  2.432470424E+02  1.250000000E+02  0.00000E+00  9.000E+00
      21     1     1     2   502   512 -3.017978357E+01 -2.955398736E+01 -3.147232943E+02  3.175452873E+02  3.814697266E-06  0.00000E+00  9.000E+00
#rwgt            1           1   3.3778685738983759E-002           3      429752           0
</event>
<event>
      5   9999  3.79277E-02  1.96108E+01 -1.00000E+00  1.67076E-01
      21    -1     0     0   511   501  0.000000000E+00  0.000000000E+00  1.185839406E+03  1.185839406E+03  0.000000000E+00  0.00000E+00  9.000E+00
      21    -1     0     0   501   502  0.000000000E+00  0.000000000E+00 -6.158677827E+01  6.158677827E+01  0.000000000E+00  0.00000E+00  9.000E+00
      25     1     1     2     0     0  6.169733236E+01 -1.922253177E+02  7.507523200E+02  7.874078864E+02  1.250000000E+02  0.00000E+00  9.000E+00
      25     1     1     2     0     0 -8.130815365E+01  1.922219702E+02  3.130490246E+02  3.964656271E+02  1.250000000E+02  0.00000E+00  9.000E+00
      21     1     1     2   511   502  1.961082129E+01  3.347502090E-03  6.045128302E+01  6.355267061E+01  6.743495762E-07  0.00000E+00  9.000E+00
#rwgt            1           1   3.2778084425059119E-002           3      429993           0
</event>
<event>
      5   9999  3.79277E-02  5.14683E+01 -1.00000E+00  1.38362E-01
      21    -1     0     0   502   501  0.000000000E+00  0.000000000E+00  3.115270318E+02  3.115270318E+02  0.000000000E+00  0.00000E+00  9.000E+00
      21    -1     0     0   512   502  0.000000000E+00  0.000000000E+00 -3.757211161E+02  3.757211161E+02  0.000000000E+00  0.00000E+00  9.000E+00
      25     1     1     2     0     0 -1.507705883E+02 -1.558814238E+02 -1.013547240E+02  2.700528998E+02  1.250000000E+02  0.00000E+00  9.000E+00
      25     1     1     2     0     0  1.051960984E+02  1.319658169E+02  1.728970019E+02  2.720286183E+02  1.250000000E+02  0.00000E+00  9.000E+00
      21     1     1     2   512   501  4.557448988E+01  2.391560694E+01 -1.357363622E+02  1.451666298E+02  2.697398305E-06  0.00000E+00  9.000E+00
#rwgt            1           1   7.8589022687823404E-002           3      430466           0
</event>
<event>
      5   9999 -3.79277E-02  9.43313E+01 -1.00000E+00  1.24979E-01
      21    -1     0     0   511   501  0.000000000E+00  0.000000000E+00  2.551980953E+02  2.551980953E+02  0.000000000E+00  0.00000E+00  9.000E+00
      21    -1     0     0   501   502  0.000000000E+00  0.000000000E+00 -3.438068415E+02  3.438068415E+02  0.000000000E+00  0.00000E+00  9.000E+00
      25     1     1     2     0     0 -1.684687944E+01 -2.187090326E+02 -1.365058092E+02  2.870127074E+02  1.250000000E+02  0.00000E+00  9.000E+00
      25     1     1     2     0     0  3.075320440E+01  1.254083736E+02 -3.881676162E+01  1.838607102E+02  1.250000000E+02  0.00000E+00  9.000E+00
      21     1     1     2   511   502 -1.390632496E+01  9.330065894E+01  8.671382458E+01  1.281315192E+02  1.348699152E-06  0.00000E+00  9.000E+00
#rwgt            1           1 -0.11650928649832917                3      430609           0
</event>
<event>
      5   9999  3.79277E-02  6.12516E+01 -1.00000E+00  1.34226E-01
      21    -1     0     0   502   501  0.000000000E+00  0.000000000E+00  6.325900090E+01  6.325900090E+01  0.000000000E+00  0.00000E+00  9.000E+00
       2    -1     0     0   501     0  0.000000000E+00  0.000000000E+00 -1.816382024E+03  1.816382024E+03  0.000000000E+00  0.00000E+00  9.000E+00
      25     1     1     2     0     0 -1.301762262E+02 -5.310794360E+01 -1.545703059E+02  2.434815866E+02  1.250000000E+02  0.00000E+00  9.000E+00
      25     1     1     2     0     0  7.307226244E+01  7.526414358E+01 -3.507300236E+02  3.868343267E+02  1.250000000E+02  0.00000E+00  9.000E+00
       2     1     1     2   502     0  5.710396379E+01 -2.215619998E+01 -1.247822694E+03  1.249325112E+03  0.000000000E+00  0.00000E+00  9.000E+00
#rwgt            1           1   3.6676130707716768E-002           3      430694           0
</event>
<event>
      5   9999  3.79277E-02  8.40642E+00 -1.00000E+00  2.04896E-01
      21    -1     0     0   502   501  0.000000000E+00  0.000000000E+00  3.192281281E+02  3.192281281E+02  0.000000000E+00  0.00000E+00  9.000E+00
      21    -1     0     0   501   511  0.000000000E+00  0.000000000E+00 -4.171215516E+02  4.171215516E+02  0.000000000E+00  0.00000E+00  9.000E+00
      25     1     1     2     0     0  3.142147239E+01  9.458500857E+01 -2.671690125E+02  3.113485411E+02  1.250000000E+02  0.00000E+00  9.000E+00
      25     1     1     2     0     0 -3.566376652E+01 -1.018424749E+02  2.740141054E+02  3.199258100E+02  1.250000000E+02  0.00000E+00  9.000E+00
      21     1     1     2   502   511  4.242294133E+00  7.257466343E+00 -1.047385164E+02  1.050753287E+02  1.348699152E-06  0.00000E+00  9.000E+00
#rwgt            1           1   4.2842352836611808E-002           3      430815           0
</event>
<event>
      5   9999  3.79277E-02  3.10043E+01 -1.00000E+00  1.52053E-01
      21    -1     0     0   512   501  0.000000000E+00  0.000000000E+00  6.172373850E+02  6.172373850E+02  0.000000000E+00  0.00000E+00  9.000E+00
      21    -1     0     0   501   502  0.000000000E+00  0.000000000E+00 -2.283140386E+02  2.283140386E+02  0.000000000E+00  0.00000E+00  9.000E+00
      25     1     1     2     0     0 -2.463221996E+01  6.414318528E+01 -1.461697611E+02  2.042344083E+02  1.250000000E+02  0.00000E+00  9.000E+00
      25     1     1     2     0     0  8.159065031E+00 -3.787722719E+01  2.870221658E+01  1.339778785E+02  1.250000000E+02  0.00000E+00  9.000E+00
      21     1     1     2   512   502  1.647315493E+01 -2.626595809E+01  5.063908908E+02  5.073391368E+02  1.078959322E-05  0.00000E+00  9.000E+00
#rwgt            1           1   4.3428233441305052E-002           3      431230           0
</event>
<event>
      5   9999  3.79277E-02  2.65741E+01 -1.00000E+00  1.56790E-01
      21    -1     0     0   502   501  0.000000000E+00  0.000000000E+00  3.490196799E+02  3.490196799E+02  0.000000000E+00  0.00000E+00  9.000E+00
      21    -1     0     0   501   511  0.000000000E+00  0.000000000E+00 -2.909606498E+02  2.909606498E+02  0.000000000E+00  0.00000E+00  9.000E+00
      25     1     1     2     0     0 -6.460805107E+01  8.390782586E+01  9.983356928E+01  1.918501109E+02  1.250000000E+02  0.00000E+00  9.000E+00
      25     1     1     2     0     0  4.411152250E+01 -1.008215222E+02  1.680710428E+02  2.366087090E+02  1.250000000E+02  0.00000E+00  9.000E+00
      21     1     1     2   502   511  2.049652857E+01  1.691369634E+01 -2.098455820E+02  2.115215097E+02  0.000000000E+00  0.00000E+00  9.000E+00
#rwgt            1           1   3.6778952045856982E-002           3      431323           0
</event>
<event>
      5   9999  3.79277E-02  9.77784E+00 -1.00000E+00  1.96892E-01
      21    -1     0     0   502   501  0.000000000E+00  0.000000000E+00  2.097274207E+01  2.097274207E+01  0.000000000E+00  0.00000E+00  9.000E+00
      21    -1     0     0   501   512  0.000000000E+00  0.000000000E+00 -1.203425330E+03  1.203425330E+03  0.000000000E+00  0.00000E+00  9.000E+00
      25     1     1     2     0     0 -4.672914778E+01 -5.887468774E+01 -3.993513870E+02  4.251545277E+02  1.250000000E+02  0.00000E+00  9.000E+00
      25     1     1     2     0     0  5.627326676E+01  6.099974931E+01 -7.345077322E+02  7.496761025E+02  1.250000000E+02  0.00000E+00  9.000E+00
      21     1     1     2   502   512 -9.544118982E+00 -2.125061569E+00 -4.859346882E+01  4.956744200E+01  0.000000000E+00  0.00000E+00  9.000E+00
#rwgt            1           1   5.3019372784861032E-002           3      431454           0
</event>
<event>
      5   9999  3.79277E-02  5.22129E+01 -1.00000E+00  1.38011E-01
      21    -1     0     0   502   501  0.000000000E+00  0.000000000E+00  9.012525640E+02  9.012525640E+02  0.000000000E+00  0.00000E+00  9.000E+00
      21    -1     0     0   501   511  0.000000000E+00  0.000000000E+00 -1.050755695E+02  1.050755695E+02  0.000000000E+00  0.00000E+00  9.000E+00
      25     1     1     2     0     0 -2.203276411E+01 -2.549478617E+02  4.403488265E+02  5.244196258E+02  1.250000000E+02  0.00000E+00  9.000E+00
      25     1     1     2     0     0 -1.552235314E+01  2.186738735E+02  3.468339738E+02  4.289265809E+02  1.250000000E+02  0.00000E+00  9.000E+00
      21     1     1     2   502   511  3.755511724E+01  3.627398823E+01  8.994194177E+00  5.298192694E+01  5.960464478E-07  0.00000E+00  9.000E+00
#rwgt            1           1   2.3893400226614028E-002           3      431755           0
</event>
<event>
      5   9999  3.79277E-02  2.05022E+01 -1.00000E+00  1.65485E-01
      21    -1     0     0   502   501  0.000000000E+00  0.000000000E+00  3.576236778E+01  3.576236778E+01  0.000000000E+00  0.00000E+00  9.000E+00
      21    -1     0     0   512   502  0.000000000E+00  0.000000000E+00 -1.160242407E+03  1.160242407E+03  0.000000000E+00  0.00000E+00  9.000E+00
      25     1     1     2     0     0  4.012950615E+01 -1.296089807E+02 -4.689058372E+02  5.038914063E+02  1.250000000E+02  0.00000E+00  9.000E+00
      25     1     1     2     0     0 -6.036996789E+01  1.328744303E+02 -5.081310033E+02  5.432515658E+02  1.250000000E+02  0.00000E+00  9.000E+00
      21     1     1     2   512   501  2.024046174E+01 -3.265449589E+00 -1.474431991E+02  1.488618030E+02  1.907348633E-06  0.00000E+00  9.000E+00
#rwgt            1           1   3.8104198617508599E-002           3      431895           0
</event>
<event>
      5   9999  3.79277E-02  1.82305E+02  7.55638E-03  1.13133E-01
      -1    -1     0     0     0   501  0.000000000E+00  0.000000000E+00  2.736098350E+02  2.736098350E+02  0.000000000E+00  0.00000E+00  9.000E+00
       1    -1     0     0   502     0  0.000000000E+00  0.000000000E+00 -2.475761737E+02  2.475761737E+02  0.000000000E+00  0.00000E+00  9.000E+00
      25     1     1     2     0     0  3.305821676E+01 -7.664930588E+01  4.734863303E+01  1.575907828E+02  1.250000000E+02  0.00000E+00  9.000E+00
      25     1     1     2     0     0 -7.532208177E+01 -1.006890251E+02  1.416822747E+01  1.778691498E+02  1.250000000E+02  0.00000E+00  9.000E+00
      21     1     1     2   502   501  4.226386502E+01  1.773383309E+02 -3.548319921E+01  1.857260761E+02  2.078484985E-06  0.00000E+00  9.000E+00
#rwgt            3           5   6.9422170092002630E-004           3      432145           0
</event>
<event>
      5   9999 -3.79277E-02  2.16834E+01 -1.00000E+00  1.63524E-01
      -5    -1     0     0     0   501  0.000000000E+00  0.000000000E+00  3.801407190E+02  3.801407190E+02  0.000000000E+00  0.00000E+00  9.000E+00
      21    -1     0     0   501   502  0.000000000E+00  0.000000000E+00 -9.042768813E+02  9.042768813E+02  0.000000000E+00  0.00000E+00  9.000E+00
      25     1     1     2     0     0  1.180946255E+02 -5.697943118E+01 -3.785802260E+02  4.196915339E+02  1.250000000E+02  0.00000E+00  9.000E+00
      25     1     1     2     0     0 -1.071328182E+02  3.827088524E+01 -4.906530171E+02  5.189484411E+02  1.250000000E+02  0.00000E+00  9.000E+00
      -5     1     1     2     0   502 -1.096180736E+01  1.870854595E+01  3.450970808E+02  3.457776252E+02  1.009274029E-05  0.00000E+00  9.000E+00
#rwgt            1           1 -0.29276551864718253                3      432284           0
</event>
<event>
      5   9999  3.79277E-02  1.48362E+01 -1.00000E+00  1.77834E-01
      21    -1     0     0   511   501  0.000000000E+00  0.000000000E+00  1.083296704E+02  1.083296704E+02  0.000000000E+00  0.00000E+00  9.000E+00
      21    -1     0     0   501   502  0.000000000E+00  0.000000000E+00 -3.129073774E+03  3.129073774E+03  0.000000000E+00  0.00000E+00  9.000E+00
      25     1     1     2     0     0 -2.843652165E+01 -5.212654535E+02 -9.027749089E+02  1.050311309E+03  1.250000000E+02  0.00000E+00  9.000E+00
      25     1     1     2     0     0  3.331566592E+01  5.072544570E+02 -2.097327935E+03  2.161672150E+03  1.250000000E+02  0.00000E+00  9.000E+00
      21     1     1     2   511   502 -4.879144272E+00  1.401099652E+01 -2.064125936E+01  2.541998545E+01  5.331201500E-07  0.00000E+00  9.000E+00
#rwgt            2          11   1.8150098010275027E-002           3      432406           0
</event>
<event>
      5   9999  3.79277E-02  3.54769E+01 -1.00000E+00  1.48148E-01
      21    -1     0     0   502   501  0.000000000E+00  0.000000000E+00  2.799964953E+02  2.799964953E+02  0.000000000E+00  0.00000E+00  9.000E+00
      -1    -1     0     0     0   502  0.000000000E+00  0.000000000E+00 -1.209003225E+03  1.209003225E+03  0.000000000E+00  0.00000E+00  9.000E+00
      25     1     1     2     0     0  3.021613131E+02 -5.835448236E+01 -9.589623077E+01  3.457279159E+02  1.250000000E+02  0.00000E+00  9.000E+00
      25     1     1     2     0     0 -3.147351393E+02  2.518051353E+01 -3.168223165E+01  3.410586900E+02  1.250000000E+02  0.00000E+00  9.000E+00
      -1     1     1     2     0   501  1.257382626E+01  3.317396883E+01 -8.014282672E+02  8.022131143E+02  0.000000000E+00  0.00000E+00  9.000E+00
#rwgt            1           1   7.5522126929286185E-002           3      432486           0
</event>
<event>
      5   9999  3.79277E-02  2.53944E+02 -1.00000E+00  1.07999E-01
      21    -1     0     0   502   501  0.000000000E+00  0.000000000E+00  5.666951156E+02  5.666951156E+02  0.000000000E+00  0.00000E+00  9.000E+00
      21    -1     0     0   501   511  0.000000000E+00  0.000000000E+00 -3.376660283E+02  3.376660283E+02  0.000000000E+00  0.00000E+00  9.000E+00
      25     1     1     2     0     0 -2.247951978E+02 -1.099744936E+02  9.337390033E+01  2.949083849E+02  1.250000000E+02  0.00000E+00  9.000E+00
      25     1     1     2     0     0  6.312529602E+01  3.058065212E+02  1.115859455E+02  3.543710691E+02  1.250000000E+02  0.00000E+00  9.000E+00
      21     1     1     2   502   511  1.616699018E+02 -1.958320276E+02  2.406924139E+01  2.550816900E+02  2.311553887E-06  0.00000E+00  9.000E+00
#rwgt            1           1   3.6949267252362882E-002           3      432630           0
</event>
<event>
      5   9999  3.79277E-02  5.34432E+01 -1.00000E+00  1.37445E-01
      21    -1     0     0   502   501  0.000000000E+00  0.000000000E+00  5.944025437E+02  5.944025437E+02  0.000000000E+00  0.00000E+00  9.000E+00
      21    -1     0     0   501   512  0.000000000E+00  0.000000000E+00 -1.268634972E+02  1.268634972E+02  0.000000000E+00  0.00000E+00  9.000E+00
      25     1     1     2     0     0  6.298994835E+01  1.715118095E+02  1.651906635E+02  2.762190973E+02  1.250000000E+02  0.00000E+00  9.000E+00
      25     1     1     2     0     0 -7.785747759E+01 -2.228452965E+02  2.804334082E+02  3.872850493E+02  1.250000000E+02  0.00000E+00  9.000E+00
      21     1     1     2   502   512  1.486752924E+01  5.133348702E+01  2.191497478E+01  5.776189432E+01  8.259061849E-07  0.00000E+00  9.000E+00
#rwgt            1           1   3.9134796578947778E-002           3      432678           0
</event>
<event>
      5   9999  3.79277E-02  1.62983E+01 -1.00000E+00  1.74053E-01
      21    -1     0     0   502   501  0.000000000E+00  0.000000000E+00  3.349077534E+02  3.349077534E+02  0.000000000E+00  0.00000E+00  9.000E+00
      21    -1     0     0   511   502  0.000000000E+00  0.000000000E+00 -4.916567186E+02  4.916567186E+02  0.000000000E+00  0.00000E+00  9.000E+00
      25     1     1     2     0     0  1.569792489E+01 -6.620451826E+01  2.237472132E+02  2.651740532E+02  1.250000000E+02  0.00000E+00  9.000E+00
      25     1     1     2     0     0 -2.086401555E+01  8.166242606E+01  2.734693208E+01  1.532217794E+02  1.250000000E+02  0.00000E+00  9.000E+00
      21     1     1     2   511   501  5.166090657E+00 -1.545790780E+01 -4.078431105E+02  4.081686394E+02  5.394796609E-06  0.00000E+00  9.000E+00
#rwgt            1           1   4.2937660823008289E-002           3      432907           0
</event>
<event>
      5   9999 -3.79277E-02  2.57718E+01 -1.00000E+00  1.57768E-01
      21    -1     0     0   502   501  0.000000000E+00  0.000000000E+00  2.122870466E+02  2.122870466E+02  0.000000000E+00  0.00000E+00  9.000E+00
      21    -1     0     0   501   512  0.000000000E+00  0.000000000E+00 -2.509722868E+02  2.509722868E+02  0.000000000E+00  0.00000E+00  9.000E+00
      25     1     1     2     0     0 -2.102191845E+01 -5.260515759E+01 -2.392259098E+01  1.393072648E+02  1.250000000E+02  0.00000E+00  9.000E+00
      25     1     1     2     0     0 -1.137185197E+00  3.944622230E+01  1.254212886E+02  1.814188449E+02  1.250000000E+02  0.00000E+00  9.000E+00
      21     1     1     2   502   512  2.215910364E+01  1.315893529E+01 -1.401839378E+02  1.425332238E+02  0.000000000E+00  0.00000E+00  9.000E+00
#rwgt            1           1 -0.10801192106584544                3      433180           0
</event>
<event>
      5   9999  3.79277E-02  1.04489E+01 -1.00000E+00  1.93578E-01
      21    -1     0     0   502   501  0.000000000E+00  0.000000000E+00  3.976033216E+02  3.976033216E+02  0.000000000E+00  0.00000E+00  9.000E+00
       4    -1     0     0   501     0  0.000000000E+00  0.000000000E+00 -1.599011741E+02  1.599011741E+02  0.000000000E+00  0.00000E+00  9.000E+00
      25     1     1     2     0     0 -7.270893916E+01  1.273396197E+02  7.863233551E+01  2.081105782E+02  1.250000000E+02  0.00000E+00  9.000E+00
      25     1     1     2     0     0  7.007161803E+01 -1.172290260E+02  2.200211458E+02  2.875534399E+02  1.250000000E+02  0.00000E+00  9.000E+00
       4     1     1     2   502     0  2.637321131E+00 -1.011059378E+01 -6.095133384E+01  6.184047757E+01  6.743495762E-07  0.00000E+00  9.000E+00
#rwgt            1           1   4.4624596339138158E-002           3      433373           0
</event>
<event>
      5   9999  3.79277E-02  8.99741E+00 -1.00000E+00  2.01215E-01
      21    -1     0     0   502   501  0.000000000E+00  0.000000000E+00  3.789223849E+02  3.789223849E+02  0.000000000E+00  0.00000E+00  9.000E+00
      21    -1     0     0   501   511  0.000000000E+00  0.000000000E+00 -1.468564769E+02  1.468564769E+02  0.000000000E+00  0.00000E+00  9.000E+00
      25     1     1     2     0     0 -4.654753052E+01  4.217429150E+01 -8.122207550E+01  1.617633117E+02  1.250000000E+02  0.00000E+00  9.000E+00
      25     1     1     2     0     0  5.554013087E+01 -4.246834213E+01  3.214208261E+02  3.518872173E+02  1.250000000E+02  0.00000E+00  9.000E+00
      21     1     1     2   502   511 -8.992600349E+00  2.940506329E-01 -8.132842702E+00  1.212833283E+01  0.000000000E+00  0.00000E+00  9.000E+00
#rwgt            1           1   3.5674383211052756E-002           3      433659           0
</event>
<event>
      5   9999  3.79277E-02  4.98130E+01 -1.00000E+00  1.39168E-01
      21    -1     0     0   502   501  0.000000000E+00  0.000000000E+00  3.416939393E+02  3.416939393E+02  0.000000000E+00  0.00000E+00  9.000E+00
      21    -1     0     0   512   502  0.000000000E+00  0.000000000E+00 -3.691543772E+02  3.691543772E+02  0.000000000E+00  0.00000E+00  9.000E+00
      25     1     1     2     0     0  1.492903309E+02 -2.605153568E+02 -1.075718868E+02  3.425676063E+02  1.250000000E+02  0.00000E+00  9.000E+00
      25     1     1     2     0     0 -1.372776295E+02  2.121725625E+02  1.180636051E+02  3.056572569E+02  1.250000000E+02  0.00000E+00  9.000E+00
      21     1     1     2   512   501 -1.201270148E+01  4.834279426E+01 -3.795215615E+01  6.262345335E+01  8.259061849E-07  0.00000E+00  9.000E+00
#rwgt            1           1   3.4875714951659635E-002           3      433961           0
</event>
<event>
      5   9999  3.79277E-02  8.16217E+01 -1.00000E+00  1.27929E-01
      21    -1     0     0   502   501  0.000000000E+00  0.000000000E+00  1.212293708E+03  1.212293708E+03  0.000000000E+00  0.00000E+00  9.000E+00
      21    -1     0     0   501   511  0.000000000E+00  0.000000000E+00 -1.061356705E+02  1.061356705E+02  0.000000000E+00  0.00000E+00  9.000E+00
      25     1     1     2     0     0 -8.008582974E+01  4.452303011E+01  5.183021564E+02  5.409788958E+02  1.250000000E+02  0.00000E+00  9.000E+00
      25     1     1     2     0     0  2.822483439E+01 -1.075510735E+02  6.523266184E+02  6.734381128E+02  1.250000000E+02  0.00000E+00  9.000E+00
      21     1     1     2   502   511  5.186099535E+01  6.302804342E+01 -6.447073746E+01  1.040123699E+02  2.697398305E-06  0.00000E+00  9.000E+00
#rwgt            1           1   3.1328011670428660E-002           3      434063           0
</event>
<event>
      5   9999  3.79277E-02  1.11855E+01 -1.00000E+00  1.90296E-01
      21    -1     0     0   502   501  0.000000000E+00  0.000000000E+00  1.022478804E+02  1.022478804E+02  0.000000000E+00  0.00000E+00  9.000E+00
       2    -1     0     0   501     0  0.000000000E+00  0.000000000E+00 -1.235990620E+03  1.235990620E+03  0.000000000E+00  0.00000E+00  9.000E+00
      25     1     1     2     0     0  9.129843115E+01 -2.772440603E+01  2.494596719E+01  1.592210649E+02  1.250000000E+02  0.00000E+00  9.000E+00
      25     1     1     2     0     0 -1.021569113E+02  2.503945705E+01 -6.503053690E+02  6.705110603E+02  1.250000000E+02  0.00000E+00  9.000E+00
       2     1     1     2   502     0  1.085848019E+01  2.684948973E+00 -5.083833375E+02  5.085063749E+02  0.000000000E+00  0.00000E+00  9.000E+00
#rwgt            1           1   4.9072992453337454E-002           3      434145           0
</event>
<event>
      5   9999  3.79277E-02  6.72168E+01 -1.00000E+00  1.32119E-01
      21    -1     0     0   502   501  0.000000000E+00  0.000000000E+00  6.490452360E+02  6.490452360E+02  0.000000000E+00  0.00000E+00  9.000E+00
      21    -1     0     0   511   502  0.000000000E+00  0.000000000E+00 -1.044562104E+02  1.044562104E+02  0.000000000E+00  0.00000E+00  9.000E+00
      25     1     1     2     0     0 -1.015968174E+02 -8.638889324E+01  6.099543587E+01  1.926924943E+02  1.250000000E+02  0.00000E+00  9.000E+00
      25     1     1     2     0     0  3.796811961E+01  1.080564831E+02  4.588732242E+02  4.891905739E+02  1.250000000E+02  0.00000E+00  9.000E+00
      21     1     1     2   511   501  6.362869777E+01 -2.166758985E+01  2.472036540E+01  7.161837820E+01  1.507891493E-06  0.00000E+00  9.000E+00
#rwgt            1           1  0.10807027734574466                3      434385           0
</event>
<event>
      5   9999  3.79277E-02  1.01632E+02 -1.00000E+00  1.23513E-01
      21    -1     0     0   502   501  0.000000000E+00  0.000000000E+00  1.058384330E+02  1.058384330E+02  0.000000000E+00  0.00000E+00  9.000E+00
       1    -1     0     0   501     0  0.000000000E+00  0.000000000E+00 -1.104937578E+03  1.104937578E+03  0.000000000E+00  0.00000E+00  9.000E+00
      25     1     1     2     0     0  8.832550069E+01 -1.529686027E+02 -2.230341955E+02  3.107572040E+02  1.250000000E+02  0.00000E+00  9.000E+00
      25     1     1     2     0     0 -1.197675317E+02  5.632278799E+01 -8.393337224E+01  2.004652815E+02  1.250000000E+02  0.00000E+00  9.000E+00
       1     1     1     2   502     0  3.144203101E+01  9.664581474E+01 -6.921315771E+02  6.995535254E+02  1.078959322E-05  0.00000E+00  9.000E+00
#rwgt            1           1   3.5087033479175335E-002           3      434553           0
</event>
<event>
      5   9999  3.79277E-02  1.00090E+02 -1.00000E+00  1.23810E-01
       3    -1     0     0   502     0  0.000000000E+00  0.000000000E+00  1.033491182E+03  1.033491182E+03  0.000000000E+00  0.00000E+00  9.000E+00
      21    -1     0     0   501   502  0.000000000E+00  0.000000000E+00 -1.910201729E+02  1.910201729E+02  0.000000000E+00  0.00000E+00  9.000E+00
      25     1     1     2     0     0 -1.380109169E+02  1.077767527E+02  4.045432414E+00  2.151841238E+02  1.250000000E+02  0.00000E+00  9.000E+00
      25     1     1     2     0     0  4.985302619E+01 -6.038176079E+01 -1.662891724E+01  1.484345046E+02  1.250000000E+02  0.00000E+00  9.000E+00
       3     1     1     2   501     0  8.815789072E+01 -4.739499187E+01  8.550544935E+02  8.608927261E+02  1.078959322E-05  0.00000E+00  9.000E+00
#rwgt            1           1   4.6442269278101217E-002           3      434633           0
</event>
<event>
      5   9999  5.29373E-02  4.70287E+01 -1.00000E+00  1.40611E-01
      21    -1     0     0   502   501  0.000000000E+00  0.000000000E+00  3.827294362E+02  3.827294362E+02  0.000000000E+00  0.00000E+00  9.000E+00
      21    -1     0     0   511   502  0.000000000E+00  0.000000000E+00 -8.407686477E+02  8.407686477E+02  0.000000000E+00  0.00000E+00  9.000E+00
      25     1     1     2     0     0  2.743051451E+02  3.669627162E+02 -4.031128003E+02  6.229204423E+02  1.250000000E+02  0.00000E+00  9.000E+00
      25     1     1     2     0     0 -3.048241436E+02 -3.311815942E+02  6.510737256E+01  4.716598105E+02  1.250000000E+02  0.00000E+00  9.000E+00
      21     1     1     2   511   501  3.051899854E+01 -3.578112201E+01 -1.200337837E+02  1.289178311E+02  1.348699152E-06  0.00000E+00  9.000E+00
#rwgt            1           1   1.1870949801772397                3      434783           0
</event>
<event>
      5   9999  3.79277E-02  1.34835E+01 -1.00000E+00  1.81858E-01
      21    -1     0     0   512   501  0.000000000E+00  0.000000000E+00  1.101029275E+03  1.101029275E+03  0.000000000E+00  0.00000E+00  9.000E+00
      21    -1     0     0   501   502  0.000000000E+00  0.000000000E+00 -9.177909601E+01  9.177909601E+01  0.000000000E+00  0.00000E+00  9.000E+00
      25     1     1     2     0     0  1.908901549E+02  6.766321968E+01  3.694810217E+02  4.394981091E+02  1.250000000E+02  0.00000E+00  9.000E+00
      25     1     1     2     0     0 -1.775235885E+02 -6.589147834E+01  1.704213782E+02  2.837688453E+02  1.250000000E+02  0.00000E+00  9.000E+00
      21     1     1     2   512   502 -1.336656636E+01 -1.771741343E+00  4.693477794E+02  4.695414169E+02  0.000000000E+00  0.00000E+00  9.000E+00
#rwgt            1           1   3.7411765569315199E-002           3      434951           0
</event>
<event>
      5   9999  3.79277E-02  1.51873E+01 -1.00000E+00  1.76877E-01
      21    -1     0     0   502   501  0.000000000E+00  0.000000000E+00  2.688983408E+02  2.688983408E+02  0.000000000E+00  0.00000E+00  9.000E+00
      21    -1     0     0   511   502  0.000000000E+00  0.000000000E+00 -1.038432578E+03  1.038432578E+03  0.000000000E+00  0.00000E+00  9.000E+00
      25     1     1     2     0     0 -1.357951139E+02  8.589544753E+01 -7.349605305E+00  2.037090022E+02  1.250000000E+02  0.00000E+00  9.000E+00
      25     1     1     2     0     0  1.227166068E+02 -7.817486856E+01  1.167488217E+02  2.245572600E+02  1.250000000E+02  0.00000E+00  9.000E+00
      21     1     1     2   511   501  1.307850718E+01 -7.720578964E+00 -8.789334539E+02  8.790646569E+02  1.525878906E-05  0.00000E+00  9.000E+00
#rwgt            1           1   2.3489737151601263E-002           3      435197           0
</event>
<event>
      5   9999  3.79277E-02  2.58074E+01 -1.00000E+00  1.57724E-01
      21    -1     0     0   502   501  0.000000000E+00  0.000000000E+00  6.960395714E+02  6.960395714E+02  0.000000000E+00  0.00000E+00  9.000E+00
      -3    -1     0     0     0   502  0.000000000E+00  0.000000000E+00 -9.500148508E+01  9.500148508E+01  0.000000000E+00  0.00000E+00  9.000E+00
      25     1     1     2     0     0  6.150533653E+01  9.865277123E+00  6.068734240E+01  1.522766681E+02  1.250000000E+02  0.00000E+00  9.000E+00
      25     1     1     2     0     0 -5.073371199E+01 -3.331726952E+01  5.772479411E+02  5.937374298E+02  1.250000000E+02  0.00000E+00  9.000E+00
      -3     1     1     2     0   501 -1.077162454E+01  2.345199240E+01 -3.689719720E+01  4.502695864E+01  1.261592536E-06  0.00000E+00  9.000E+00
#rwgt            1           1   4.4504553841545016E-002           3      435464           0
</event>
<event>
      5   9999 -3.79277E-02  1.56547E+02 -1.00000E+00  1.15663E-01
      21    -1     0     0   502   501  0.000000000E+00  0.000000000E+00  9.818381749E+02  9.818381749E+02  0.000000000E+00  0.00000E+00  9.000E+00
      21    -1     0     0   501   511  0.000000000E+00  0.000000000E+00 -2.047222009E+02  2.047222009E+02  0.000000000E+00  0.00000E+00  9.000E+00
      25     1     1     2     0     0 -9.972530127E+01 -6.282246387E+01  2.741509413E-01  1.718047521E+02  1.250000000E+02  0.00000E+00  9.000E+00
      25     1     1     2     0     0  1.915138218E+02  1.896360160E+02  8.028563563E+02  8.560623175E+02  1.250000000E+02  0.00000E+00  9.000E+00
      21     1     1     2   502   511 -9.178852052E+01 -1.268135521E+02 -2.601453324E+01  1.586933062E+02  1.936921693E-06  0.00000E+00  9.000E+00
#rwgt            1           1 -0.23348757046250723                3      435613           0
</event>
<event>
      5   9999  3.79277E-02  4.49352E+01 -1.00000E+00  1.41775E-01
       2    -1     0     0   502     0  0.000000000E+00  0.000000000E+00  1.219880578E+03  1.219880578E+03  0.000000000E+00  0.00000E+00  9.000E+00
      21    -1     0     0   501   502  0.000000000E+00  0.000000000E+00 -2.306271703E+02  2.306271703E+02  0.000000000E+00  0.00000E+00  9.000E+00
      25     1     1     2     0     0  1.356370296E+01 -1.249467992E+02 -1.379993122E+02  2.246430209E+02  1.250000000E+02  0.00000E+00  9.000E+00
      25     1     1     2     0     0  2.758169509E+01  1.068851283E+02  9.360013880E+01  1.912358924E+02  1.250000000E+02  0.00000E+00  9.000E+00
       2     1     1     2   501     0 -4.114539805E+01  1.806167088E+01  1.033652581E+03  1.034628835E+03  2.157918644E-05  0.00000E+00  9.000E+00
#rwgt            1           1   3.6277302396024162E-002           3      435691           0
</event>
<event>
      5   9999  3.79277E-02  1.62298E+02 -1.00000E+00  1.15053E-01
      21    -1     0     0   502   501  0.000000000E+00  0.000000000E+00  1.052403670E+02  1.052403670E+02  0.000000000E+00  0.00000E+00  9.000E+00
      21    -1     0     0   511   502  0.000000000E+00  0.000000000E+00 -9.457699698E+02  9.457699698E+02  0.000000000E+00  0.00000E+00  9.000E+00
      25     1     1     2     0     0 -2.077346685E+02 -3.099239022E+00 -3.917981872E+02  4.607538576E+02  1.250000000E+02  0.00000E+00  9.000E+00
      25     1     1     2     0     0  1.042335208E+02 -1.219127559E+02 -1.588807898E+02  2.580609469E+02  1.250000000E+02  0.00000E+00  9.000E+00
      21     1     1     2   511   501  1.035011477E+02  1.250119949E+02 -2.898506258E+02  3.321955323E+02  0.000000000E+00  0.00000E+00  9.000E+00
#rwgt            1           1   3.3393889371551605E-002           3      435807           0
</event>
<event>
      5   9999  3.79277E-02  1.97686E+01 -1.00000E+00  1.66787E-01
      21    -1     0     0   502   501  0.000000000E+00  0.000000000E+00  1.256313386E+03  1.256313386E+03  0.000000000E+00  0.00000E+00  9.000E+00
      21    -1     0     0   512   502  0.000000000E+00  0.000000000E+00 -2.703780440E+01  2.703780440E+01  0.000000000E+00  0.00000E+00  9.000E+00
      25     1     1     2     0     0 -5.461015326E+01 -2.264622508E+01  9.305572042E+02  9.407745907E+02  1.250000000E+02  0.00000E+00  9.000E+00
      25     1     1     2     0     0  7.150541705E+01  3.291020107E+01  2.688306312E+02  3.067425864E+02  1.250000000E+02  0.00000E+00  9.000E+00
      21     1     1     2   512   501 -1.689526378E+01 -1.026397599E+01  2.988774661E+01  3.583401372E+01  6.743495762E-07  0.00000E+00  9.000E+00
#rwgt            1           1   4.7542262743805797E-002           3      435899           0
</event>
<event>
      5   9999  3.79277E-02  2.92770E+01 -1.00000E+00  1.53779E-01
      21    -1     0     0   502   501  0.000000000E+00  0.000000000E+00  2.167857499E+02  2.167857499E+02  0.000000000E+00  0.00000E+00  9.000E+00
      -3    -1     0     0     0   502  0.000000000E+00  0.000000000E+00 -4.728881233E+02  4.728881233E+02  0.000000000E+00  0.00000E+00  9.000E+00
      25     1     1     2     0     0 -2.224567700E+01 -1.971927042E+02 -4.643870619E+01  2.390844750E+02  1.250000000E+02  0.00000E+00  9.000E+00
      25     1     1     2     0     0  5.092362457E+01  2.030851272E+02 -5.058626004E+00  2.439003365E+02  1.250000000E+02  0.00000E+00  9.000E+00
      -3     1     1     2     0   501 -2.867794757E+01 -5.892422979E+00 -2.046050412E+02  2.066890617E+02  3.814697266E-06  0.00000E+00  9.000E+00
#rwgt            1           1   4.1862498654274244E-002           3      436077           0
</event>
<event>
      5   9999  3.79277E-02  2.60560E+02 -1.00000E+00  1.07620E-01
      21    -1     0     0   502   511  0.000000000E+00  0.000000000E+00  4.282625580E+02  4.282625580E+02  0.000000000E+00  0.00000E+00  9.000E+00
      21    -1     0     0   501   502  0.000000000E+00  0.000000000E+00 -3.514366718E+02  3.514366718E+02  0.000000000E+00  0.00000E+00  9.000E+00
      25     1     1     2     0     0  8.062170507E+01  2.228028591E+02 -1.159613534E+02  2.919126733E+02  1.250000000E+02  0.00000E+00  9.000E+00
      25     1     1     2     0     0  1.189654433E+02 -5.530175954E+01  3.943675864E+01  1.854489667E+02  1.250000000E+02  0.00000E+00  9.000E+00
      21     1     1     2   501   511 -1.995871484E+02 -1.675010996E+02  1.533504810E+02  3.023375898E+02  2.697398305E-06  0.00000E+00  9.000E+00
#rwgt            2          11   1.3591551107754924E-003           3      436467           0
</event>
<event>
      5   9999  3.79277E-02  2.60879E+02 -1.00000E+00  1.07602E-01
      21    -1     0     0   512   501  0.000000000E+00  0.000000000E+00  1.794929642E+02  1.794929642E+02  0.000000000E+00  0.00000E+00  9.000E+00
      21    -1     0     0   501   502  0.000000000E+00  0.000000000E+00 -2.620327754E+03  2.620327754E+03  0.000000000E+00  0.00000E+00  9.000E+00
      25     1     1     2     0     0 -1.074154170E+02 -8.478150020E+01 -9.677337656E+01  2.090838612E+02  1.250000000E+02  0.00000E+00  9.000E+00
      25     1     1     2     0     0 -7.576566744E+00  3.189495816E+02 -2.300945092E+03  2.326318885E+03  1.250000000E+02  0.00000E+00  9.000E+00
      21     1     1     2   512   502  1.149919837E+02 -2.341680814E+02 -4.311632147E+01  2.644179719E+02  3.784777609E-06  0.00000E+00  9.000E+00
#rwgt            1           1  0.20243456937805460                3      436502           0
</event>
<event>
      5   9999  3.79277E-02  3.61172E+01 -1.00000E+00  1.47645E-01
      21    -1     0     0   511   501  0.000000000E+00  0.000000000E+00  1.116695425E+02  1.116695425E+02  0.000000000E+00  0.00000E+00  9.000E+00
      21    -1     0     0   501   502  0.000000000E+00  0.000000000E+00 -8.874209591E+02  8.874209591E+02  0.000000000E+00  0.00000E+00  9.000E+00
      25     1     1     2     0     0 -3.435464346E+01  1.639013207E+02 -2.557617223E+02  3.302770701E+02  1.250000000E+02  0.00000E+00  9.000E+00
      25     1     1     2     0     0  6.035448995E+01 -1.388321792E+02 -5.724183291E+02  6.051485619E+02  1.250000000E+02  0.00000E+00  9.000E+00
      21     1     1     2   511   502 -2.599984649E+01 -2.506914151E+01  5.242863479E+01  6.366486959E+01  1.168007728E-06  0.00000E+00  9.000E+00
#rwgt            1           1   4.6453552848681662E-002           3      436588           0
</event>
<event>
      5   9999  3.79277E-02  1.64870E+01 -1.00000E+00  1.73602E-01
      21    -1     0     0   512   501  0.000000000E+00  0.000000000E+00  3.785458379E+01  3.785458379E+01  0.000000000E+00  0.00000E+00  9.000E+00
      21    -1     0     0   501   502  0.000000000E+00  0.000000000E+00 -1.207025152E+03  1.207025152E+03  0.000000000E+00  0.00000E+00  9.000E+00
      25     1     1     2     0     0  1.440213117E+02 -5.460400881E+01 -5.633457729E+02  5.972496931E+02  1.250000000E+02  0.00000E+00  9.000E+00
      25     1     1     2     0     0 -1.523958672E+02  4.040236597E+01 -5.945107552E+02  6.276343597E+02  1.250000000E+02  0.00000E+00  9.000E+00
      21     1     1     2   512   502  8.374555474E+00  1.420164284E+01 -1.131404037E+01  1.999568324E+01  5.591411304E-07  0.00000E+00  9.000E+00
#rwgt            1           1   4.9023710814227239E-002           3      436711           0
</event>
<event>
      5   9999  3.79277E-02  2.91602E+01 -1.00000E+00  1.53901E-01
      21    -1     0     0   511   501  0.000000000E+00  0.000000000E+00  1.313447981E+03  1.313447981E+03  0.000000000E+00  0.00000E+00  9.000E+00
      21    -1     0     0   501   502  0.000000000E+00  0.000000000E+00 -7.981974424E+01  7.981974424E+01  0.000000000E+00  0.00000E+00  9.000E+00
      25     1     1     2     0     0  1.133015441E+01  4.944693476E+01 -1.063845439E+01  1.353201702E+02  1.250000000E+02  0.00000E+00  9.000E+00
      25     1     1     2     0     0  7.825231849E+00 -7.143307526E+01  8.122508451E+02  8.249486977E+02  1.250000000E+02  0.00000E+00  9.000E+00
      21     1     1     2   511   502 -1.915538626E+01  2.198614050E+01  4.320158464E+02  4.329988576E+02  5.394796609E-06  0.00000E+00  9.000E+00
#rwgt            1           1   5.2721688122472549E-002           3      436911           0
</event>
<event>
      5   9999  3.79277E-02  1.42150E+01 -1.00000E+00  1.79611E-01
      21    -1     0     0   512   501  0.000000000E+00  0.000000000E+00  1.591134138E+02  1.591134138E+02  0.000000000E+00  0.00000E+00  9.000E+00
      21    -1     0     0   501   502  0.000000000E+00  0.000000000E+00 -5.527823013E+02  5.527823013E+02  0.000000000E+00  0.00000E+00  9.000E+00
      25     1     1     2     0     0 -8.342159917E+01 -7.394373068E+01 -8.426869978E+01  1.874914725E+02  1.250000000E+02  0.00000E+00  9.000E+00
      25     1     1     2     0     0  9.535864660E+01  8.166215540E+01 -3.974850926E+02  4.351797076E+02  1.250000000E+02  0.00000E+00  9.000E+00
      21     1     1     2   512   502 -1.193704743E+01 -7.718424722E+00  8.808490479E+01  8.922453493E+01  9.536743164E-07  0.00000E+00  9.000E+00
#rwgt            1           1   4.7644114856168214E-002           3      437074           0
</event>
<event>
      5   9999  3.79277E-02  1.99244E+01 -1.00000E+00  1.66505E-01
      21    -1     0     0   502   501  0.000000000E+00  0.000000000E+00  1.658095079E+02  1.658095079E+02  0.000000000E+00  0.00000E+00  9.000E+00
      21    -1     0     0   501   511  0.000000000E+00  0.000000000E+00 -3.850419155E+02  3.850419155E+02  0.000000000E+00  0.00000E+00  9.000E+00
      25     1     1     2     0     0 -1.284278606E+02  1.388656629E+02 -1.584099120E+02  2.765792616E+02  1.250000000E+02  0.00000E+00  9.000E+00
      25     1     1     2     0     0  1.430262799E+02 -1.524254720E+02 -4.254639644E+01  2.472351858E+02  1.250000000E+02  0.00000E+00  9.000E+00
      21     1     1     2   502   511 -1.459841926E+01  1.355980907E+01 -1.827609913E+01  2.703697592E+01  5.331201500E-07  0.00000E+00  9.000E+00
#rwgt            1           1   3.9951038745526836E-002           3      437250           0
</event>
<event>
      5   9999  3.79277E-02  3.55560E+01 -1.00000E+00  1.48085E-01
      21    -1     0     0   502   501  0.000000000E+00  0.000000000E+00  3.442306101E+02  3.442306101E+02  0.000000000E+00  0.00000E+00  9.000E+00
      21    -1     0     0   501   512  0.000000000E+00  0.000000000E+00 -1.774699333E+02  1.774699333E+02  0.000000000E+00  0.00000E+00  9.000E+00
      25     1     1     2     0     0 -1.829526621E+01  1.897001582E+02  1.234900465E+02  2.592212538E+02  1.250000000E+02  0.00000E+00  9.000E+00
      25     1     1     2     0     0  5.162582570E+01 -1.773187443E+02  3.274650117E+01  2.253985277E+02  1.250000000E+02  0.00000E+00  9.000E+00
      21     1     1     2   502   512 -3.333055949E+01 -1.238141395E+01  1.052412910E+01  3.708076187E+01  2.384185791E-07  0.00000E+00  9.000E+00
#rwgt            1           1   3.4736088324749288E-002           3      437499           0
</event>
<event>
      5   9999  3.79277E-02  5.58848E+01 -1.00000E+00  1.36373E-01
       2    -1     0     0   502     0  0.000000000E+00  0.000000000E+00  1.395119175E+03  1.395119175E+03  0.000000000E+00  0.00000E+00  9.000E+00
      21    -1     0     0   501   502  0.000000000E+00  0.000000000E+00 -5.826868613E+01  5.826868613E+01  0.000000000E+00  0.00000E+00  9.000E+00
      25     1     1     2     0     0 -3.101699250E+01 -6.688501015E+01  1.943468560E+02  2.425517653E+02  1.250000000E+02  0.00000E+00  9.000E+00
      25     1     1     2     0     0 -1.938818604E+01  9.101852509E+01  1.484960978E+02  2.152588319E+02  1.250000000E+02  0.00000E+00  9.000E+00
       2     1     1     2   501     0  5.040517854E+01 -2.413351494E+01  9.940075354E+02  9.955772642E+02  2.157918644E-05  0.00000E+00  9.000E+00
#rwgt            1           1  0.11256503102597665                3      437726           0
</event>
<event>
      5   9999  3.79277E-02  1.91166E+01 -1.00000E+00  1.68004E-01
      21    -1     0     0   502   511  0.000000000E+00  0.000000000E+00  6.224928667E+02  6.224928667E+02  0.000000000E+00  0.00000E+00  9.000E+00
      21    -1     0     0   501   502  0.000000000E+00  0.000000000E+00 -6.785903531E+01  6.785903531E+01  0.000000000E+00  0.00000E+00  9.000E+00
      25     1     1     2     0     0  1.793166001E+01  8.775881551E+01  5.565292696E+01  1.635402165E+02  1.250000000E+02  0.00000E+00  9.000E+00
      25     1     1     2     0     0  1.982331990E-01 -8.169650276E+01  4.280527279E+02  4.533525071E+02  1.250000000E+02  0.00000E+00  9.000E+00
      21     1     1     2   501   511 -1.812989321E+01 -6.062312745E+00  7.092817651E+01  7.345917837E+01  9.536743164E-07  0.00000E+00  9.000E+00
#rwgt            1           1   3.9856464975693978E-002           3      437841           0
</event>
<event>
      5   9999  3.79277E-02  1.82852E+01 -1.00000E+00  1.69647E-01
      21    -1     0     0   502   512  0.000000000E+00  0.000000000E+00  3.641936310E+02  3.641936310E+02  0.000000000E+00  0.00000E+00  9.000E+00
      21    -1     0     0   501   502  0.000000000E+00  0.000000000E+00 -1.993748308E+02  1.993748308E+02  0.000000000E+00  0.00000E+00  9.000E+00
      25     1     1     2     0     0 -8.923491814E+01  1.622300087E+01  3.011253615E+02  3.384191775E+02  1.250000000E+02  0.00000E+00  9.000E+00
      25     1     1     2     0     0  7.156695720E+01 -1.151233072E+01 -1.451727485E+02  2.048279523E+02  1.250000000E+02  0.00000E+00  9.000E+00
      21     1     1     2   501   512  1.766796094E+01 -4.710670147E+00  8.866187296E+00  2.032133200E+01  2.064765462E-07  0.00000E+00  9.000E+00
#rwgt            1           1   4.0983509882615676E-002           3      438027           0
</event>
<event>
      5   9999  3.79277E-02  4.34505E+01 -1.00000E+00  1.42646E-01
      21    -1     0     0   502   511  0.000000000E+00  0.000000000E+00  3.809448038E+01  3.809448038E+01  0.000000000E+00  0.00000E+00  9.000E+00
      21    -1     0     0   501   502  0.000000000E+00  0.000000000E+00 -1.156694963E+03  1.156694963E+03  0.000000000E+00  0.00000E+00  9.000E+00
      25     1     1     2     0     0  8.210197334E+01 -6.813867181E+01 -2.459208843E+02  2.957798066E+02  1.250000000E+02  0.00000E+00  9.000E+00
      25     1     1     2     0     0 -6.563475900E+01  2.792946616E+01 -8.103427226E+02  8.230238786E+02  1.250000000E+02  0.00000E+00  9.000E+00
      21     1     1     2   501   511 -1.646721434E+01  4.020920565E+01 -6.233687516E+01  7.598575769E+01  1.507891493E-06  0.00000E+00  9.000E+00
#rwgt            1           1   4.5111192425369838E-002           3      438208           0
</event>
<event>
      5   9999  3.79277E-02  3.81635E+01 -1.00000E+00  1.46117E-01
      21    -1     0     0   502   512  0.000000000E+00  0.000000000E+00  4.757166638E+02  4.757166638E+02  0.000000000E+00  0.00000E+00  9.000E+00
      21    -1     0     0   501   502  0.000000000E+00  0.000000000E+00 -2.479601604E+02  2.479601604E+02  0.000000000E+00  0.00000E+00  9.000E+00
      25     1     1     2     0     0  1.382191299E+01  1.977607881E+02  2.569523625E+01  2.357660276E+02  1.250000000E+02  0.00000E+00  9.000E+00
      25     1     1     2     0     0  9.868937253E-01 -2.329340131E+02 -1.761660392E+01  2.649425847E+02  1.250000000E+02  0.00000E+00  9.000E+00
      21     1     1     2   501   512 -1.480880672E+01  3.517322502E+01  2.196778711E+02  2.229682120E+02  0.000000000E+00  0.00000E+00  9.000E+00
#rwgt            1           1   4.5123661254032839E-002           3      438338           0
</event>
<event>
      5   9999 -4.77140E-02  6.46680E+01 -1.00000E+00  1.32987E-01
      21    -1     0     0   502   511  0.000000000E+00  0.000000000E+00  1.631816563E+03  1.631816563E+03  0.000000000E+00  0.00000E+00  9.000E+00
      21    -1     0     0   501   502  0.000000000E+00  0.000000000E+00 -5.635190622E+01  5.635190622E+01  0.000000000E+00  0.00000E+00  9.000E+00
      25     1     1     2     0     0  8.343131631E+01 -1.980917014E+02  4.502762237E+02  5.143683353E+02  1.250000000E+02  0.00000E+00  9.000E+00
      25     1     1     2     0     0 -2.020508447E+01  1.845123189E+02  5.327309036E+02  5.778237247E+02  1.250000000E+02  0.00000E+00  9.000E+00
      21     1     1     2   501   511 -6.322623184E+01  1.357938255E+01  5.924575291E+02  5.959764088E+02  0.000000000E+00  0.00000E+00  9.000E+00
#rwgt            1           1 -0.41378750732140124                3      438526           0
</event>
<event>
      5   9999  3.79277E-02  3.34372E+01 -1.00000E+00  1.49838E-01
      21    -1     0     0   502   501  0.000000000E+00  0.000000000E+00  3.562760301E+01  3.562760301E+01  0.000000000E+00  0.00000E+00  9.000E+00
      -1    -1     0     0     0   502  0.000000000E+00  0.000000000E+00 -1.211423223E+03  1.211423223E+03  0.000000000E+00  0.00000E+00  9.000E+00
      25     1     1     2     0     0  3.796165158E+01  2.642889454E+01 -1.762232230E+02  2.209506682E+02  1.250000000E+02  0.00000E+00  9.000E+00
      25     1     1     2     0     0 -2.372433875E+01  3.825791550E+00 -3.020315903E+02  3.277583904E+02  1.250000000E+02  0.00000E+00  9.000E+00
      -1     1     1     2     0   501 -1.423731283E+01 -3.025468609E+01 -6.975408063E+02  6.983417670E+02  1.078959322E-05  0.00000E+00  9.000E+00
#rwgt            1           1   1.6834229834311348E-002           3      438592           0
</event>
<event>
      5   9999  3.79277E-02  1.78535E+01 -1.00000E+00  1.70543E-01
      21    -1     0     0   502   501  0.000000000E+00  0.000000000E+00  2.002064274E+02  2.002064274E+02  0.000000000E+00  0.00000E+00  9.000E+00
       1    -1     0     0   501     0  0.000000000E+00  0.000000000E+00 -1.402768638E+02  1.402768638E+02  0.000000000E+00  0.00000E+00  9.000E+00
      25     1     1     2     0     0 -5.707747659E+01  4.587347810E+01  4.708754707E+01  1.523300739E+02  1.250000000E+02  0.00000E+00  9.000E+00
      25     1     1     2     0     0  5.681530735E+01 -2.802189043E+01 -2.860359298E+01  1.430257705E+02  1.250000000E+02  0.00000E+00  9.000E+00
       1     1     1     2   502     0  2.621692321E-01 -1.785158767E+01  4.144560950E+01  4.512744688E+01  8.259061849E-07  0.00000E+00  9.000E+00
#rwgt            1           1   8.8029171748472176E-002           3      438740           0
</event>
<event>
      5   9999  3.79277E-02  2.49902E+01 -1.00000E+00  1.58764E-01
      21    -1     0     0   502   511  0.000000000E+00  0.000000000E+00  1.157095135E+02  1.157095135E+02  0.000000000E+00  0.00000E+00  9.000E+00
      21    -1     0     0   501   502  0.000000000E+00  0.000000000E+00 -1.076573555E+03  1.076573555E+03  0.000000000E+00  0.00000E+00  9.000E+00
      25     1     1     2     0     0 -4.867998076E+01  3.878488894E+01 -1.509831267E+02  2.056572700E+02  1.250000000E+02  0.00000E+00  9.000E+00
      25     1     1     2     0     0  4.955841169E+01 -6.375962300E+01 -8.901771172E+02  9.025306786E+02  1.250000000E+02  0.00000E+00  9.000E+00
      21     1     1     2   501   511 -8.784309286E-01  2.497473406E+01  8.029620273E+01  8.409511968E+01  2.336015456E-06  0.00000E+00  9.000E+00
#rwgt            1           1   5.9256173517141644E-002           3      438840           0
</event>
<event>
      5   9999  3.79277E-02  2.15553E+01 -1.00000E+00  1.63730E-01
       2    -1     0     0   502     0  0.000000000E+00  0.000000000E+00  2.808327978E+03  2.808327978E+03  0.000000000E+00  0.00000E+00  9.000E+00
      21    -1     0     0   501   502  0.000000000E+00  0.000000000E+00 -2.335283252E+02  2.335283252E+02  0.000000000E+00  0.00000E+00  9.000E+00
      25     1     1     2     0     0  7.358005021E+01 -2.401852633E+00 -1.988374700E+02  2.461323468E+02  1.250000000E+02  0.00000E+00  9.000E+00
      25     1     1     2     0     0 -8.766569710E+01 -1.391456717E+01  5.235863387E+02  5.455699256E+02  1.250000000E+02  0.00000E+00  9.000E+00
       2     1     1     2   501     0  1.408564688E+01  1.631641980E+01  2.250050784E+03  2.250154030E+03  3.051757812E-05  0.00000E+00  9.000E+00
#rwgt            1           1   2.1718545817075042E-002           3      438989           0
</event>
<event>
      5   9999  3.79277E-02  8.42580E+01 -1.00000E+00  1.27269E-01
      21    -1     0     0   502   501  0.000000000E+00  0.000000000E+00  6.011843930E+02  6.011843930E+02  0.000000000E+00  0.00000E+00  9.000E+00
      21    -1     0     0   511   502  0.000000000E+00  0.000000000E+00 -2.220601766E+02  2.220601766E+02  0.000000000E+00  0.00000E+00  9.000E+00
      25     1     1     2     0     0 -1.728683673E+02 -1.091548951E+02  3.045658625E+01  2.415592415E+02  1.250000000E+02  0.00000E+00  9.000E+00
      25     1     1     2     0     0  1.398163157E+02  1.866595483E+02  4.025090364E+02  4.816937964E+02  1.250000000E+02  0.00000E+00  9.000E+00
      21     1     1     2   511   501  3.305205157E+01 -7.750465321E+01 -5.384140623E+01  9.999153168E+01  2.336015456E-06  0.00000E+00  9.000E+00
#rwgt            1           1   4.0843100097409046E-002           3      439246           0
</event>
<event>
      5   9999  3.79277E-02  8.78039E+01 -1.00000E+00  1.26423E-01
      21    -1     0     0   512   501  0.000000000E+00  0.000000000E+00  1.527275008E+02  1.527275008E+02  0.000000000E+00  0.00000E+00  9.000E+00
      21    -1     0     0   501   502  0.000000000E+00  0.000000000E+00 -4.028482071E+02  4.028482071E+02  0.000000000E+00  0.00000E+00  9.000E+00
      25     1     1     2     0     0 -7.427501801E+01  1.657980753E+02 -7.247206654E+01  2.321270783E+02  1.250000000E+02  0.00000E+00  9.000E+00
      25     1     1     2     0     0  2.902261002E+01 -9.055354213E+01 -1.756428178E+02  2.356218482E+02  1.250000000E+02  0.00000E+00  9.000E+00
      21     1     1     2   512   502  4.525240799E+01 -7.524453317E+01 -2.005821932E+00  8.782678135E+01  1.735713456E-06  0.00000E+00  9.000E+00
#rwgt            1           1   2.5934154934946958E-002           3      439335           0
</event>
<event>
      5   9999  3.79277E-02  9.20004E+01 -1.00000E+00  1.25479E-01
      21    -1     0     0   502   511  0.000000000E+00  0.000000000E+00  4.535206234E+02  4.535206234E+02  0.000000000E+00  0.00000E+00  9.000E+00
      21    -1     0     0   501   502  0.000000000E+00  0.000000000E+00 -2.068347692E+02  2.068347692E+02  0.000000000E+00  0.00000E+00  9.000E+00
      25     1     1     2     0     0  1.695109659E+02 -1.577282365E+02  9.927623177E+00  2.633167709E+02  1.250000000E+02  0.00000E+00  9.000E+00
      25     1     1     2     0     0 -9.905523336E+01  9.856688895E+01  5.844058505E+01  1.963865393E+02  1.250000000E+02  0.00000E+00  9.000E+00
      21     1     1     2   501   511 -7.045573254E+01  5.916134754E+01  1.783176460E+02  2.006520824E+02  1.907348633E-06  0.00000E+00  9.000E+00
#rwgt            1           1   5.0966364534394584E-002           3      439473           0
</event>
<event>
      5   9999 -3.79277E-02  1.04198E+02 -1.00000E+00  1.23030E-01
      21    -1     0     0   502   512  0.000000000E+00  0.000000000E+00  3.304442053E+02  3.304442053E+02  0.000000000E+00  0.00000E+00  9.000E+00
      21    -1     0     0   501   502  0.000000000E+00  0.000000000E+00 -3.404084375E+02  3.404084375E+02  0.000000000E+00  0.00000E+00  9.000E+00
      25     1     1     2     0     0 -1.035509022E+01 -2.738442590E+02 -1.363276227E+02  3.306177956E+02  1.250000000E+02  0.00000E+00  9.000E+00
      25     1     1     2     0     0  3.240215808E+00  1.698897043E+02  9.554771232E+01  2.315758536E+02  1.250000000E+02  0.00000E+00  9.000E+00
      21     1     1     2   501   512  7.114874416E+00  1.039545546E+02  3.081567812E+01  1.086589936E+02  8.259061849E-07  0.00000E+00  9.000E+00
#rwgt            1           1 -0.17378124431108902                3      439597           0
</event>
<event>
      5   9999  3.79277E-02  3.52540E+01 -1.00000E+00  1.48326E-01
      21    -1     0     0   502   501  0.000000000E+00  0.000000000E+00  4.989113253E+02  4.989113253E+02  0.000000000E+00  0.00000E+00  9.000E+00
       2    -1     0     0   501     0  0.000000000E+00  0.000000000E+00 -3.410107199E+02  3.410107199E+02  0.000000000E+00  0.00000E+00  9.000E+00
      25     1     1     2     0     0  1.739544397E+02  3.610999153E+01  1.031333938E+02  2.404694898E+02  1.250000000E+02  0.00000E+00  9.000E+00
      25     1     1     2     0     0 -1.391006621E+02 -3.081301358E+01  2.982784094E+02  3.534026677E+02  1.250000000E+02  0.00000E+00  9.000E+00
       2     1     1     2   502     0 -3.485377768E+01 -5.296977951E+00 -2.435111978E+02  2.460498877E+02  2.697398305E-06  0.00000E+00  9.000E+00
#rwgt            1           1   3.5418819884990335E-002           3      439666           0
</event>
<event>
      5   9999  3.79277E-02  1.78135E+01 -1.00000E+00  1.70627E-01
      21    -1     0     0   502   501  0.000000000E+00  0.000000000E+00  1.631470705E+02  1.631470705E+02  0.000000000E+00  0.00000E+00  9.000E+00
      21    -1     0     0   501   511  0.000000000E+00  0.000000000E+00 -4.107760378E+02  4.107760378E+02  0.000000000E+00  0.00000E+00  9.000E+00
      25     1     1     2     0     0  1.788515768E+02 -2.590808470E+01 -1.133751301E+01  2.200287585E+02  1.250000000E+02  0.00000E+00  9.000E+00
      25     1     1     2     0     0 -1.940230534E+02  3.524338111E+01 -1.798743898E+02  2.947318056E+02  1.250000000E+02  0.00000E+00  9.000E+00
      21     1     1     2   502   511  1.517147654E+01 -9.335296415E+00 -5.641706448E+01  5.916254410E+01  9.536743164E-07  0.00000E+00  9.000E+00
#rwgt            1           1   3.9188963813754356E-002           3      439795           0
</event>
<event>
      5   9999  3.79277E-02  3.49240E+01 -1.00000E+00  1.48593E-01
      21    -1     0     0   512   501  0.000000000E+00  0.000000000E+00  2.495715970E+02  2.495715970E+02  0.000000000E+00  0.00000E+00  9.000E+00
      21    -1     0     0   501   502  0.000000000E+00  0.000000000E+00 -3.717714822E+02  3.717714822E+02  0.000000000E+00  0.00000E+00  9.000E+00
      25     1     1     2     0     0  7.204804956E+01 -1.183686260E+02 -1.231460400E+01  1.870259408E+02  1.250000000E+02  0.00000E+00  9.000E+00
      25     1     1     2     0     0 -3.927892558E+01  1.062910618E+02 -2.434855183E+02  2.962276514E+02  1.250000000E+02  0.00000E+00  9.000E+00
      21     1     1     2   512   502 -3.276912398E+01  1.207756411E+01  1.336002371E+02  1.380894869E+02  2.697398305E-06  0.00000E+00  9.000E+00
#rwgt            1           1   4.2531386096486733E-002           3      439940           0
</event>
<event>
      5   9999  3.79277E-02  1.68048E+02 -1.00000E+00  1.14471E-01
      21    -1     0     0   502   501  0.000000000E+00  0.000000000E+00  2.568516262E+02  2.568516262E+02  0.000000000E+00  0.00000E+00  9.000E+00
       1    -1     0     0   501     0  0.000000000E+00  0.000000000E+00 -1.817621584E+03  1.817621584E+03  0.000000000E+00  0.00000E+00  9.000E+00
      25     1     1     2     0     0 -4.648477256E+01 -1.476815849E+02  5.387020216E+01  2.061496624E+02  1.250000000E+02  0.00000E+00  9.000E+00
      25     1     1     2     0     0 -3.119261929E+01  2.966996442E+02 -9.179807924E+01  3.362373354E+02  1.250000000E+02  0.00000E+00  9.000E+00
       1     1     1     2   502     0  7.767739185E+01 -1.490180593E+02 -1.522842081E+03  1.532086213E+03  2.157918644E-05  0.00000E+00  9.000E+00
#rwgt            1           1  0.23201635089633077                3      440139           0
</event>
<event>
      5   9999  3.79277E-02  2.86075E+01 -1.00000E+00  1.54487E-01
      21    -1     0     0   502   501  0.000000000E+00  0.000000000E+00  2.547686514E+02  2.547686514E+02  0.000000000E+00  0.00000E+00  9.000E+00
      21    -1     0     0   501   511  0.000000000E+00  0.000000000E+00 -2.661967194E+02  2.661967194E+02  0.000000000E+00  0.00000E+00  9.000E+00
      25     1     1     2     0     0  9.696754631E+01 -1.003035122E+02  1.589178452E+02  2.456488981E+02  1.250000000E+02  0.00000E+00  9.000E+00
      25     1     1     2     0     0 -7.107213863E+01  1.124615069E+02 -1.652987324E+02  2.462671524E+02  1.250000000E+02  0.00000E+00  9.000E+00
      21     1     1     2   502   511 -2.589540768E+01 -1.215799465E+01 -5.047180779E+00  2.904932025E+01  6.049210766E-07  0.00000E+00  9.000E+00
#rwgt            1           1   4.3206926054973782E-002           3      440199           0
</event>
<event>
      5   9999  3.79277E-02  1.59115E+01 -1.00000E+00  1.75003E-01
      21    -1     0     0   502   512  0.000000000E+00  0.000000000E+00  2.220496546E+03  2.220496546E+03  0.000000000E+00  0.00000E+00  9.000E+00
      21    -1     0     0   501   502  0.000000000E+00  0.000000000E+00 -2.259404493E+01  2.259404493E+01  0.000000000E+00  0.00000E+00  9.000E+00
      25     1     1     2     0     0  7.513775323E+01 -1.302717955E+02  1.488422939E+03  1.501214265E+03  1.250000000E+02  0.00000E+00  9.000E+00
      25     1     1     2     0     0 -7.230027647E+01  1.146153000E+02  5.197175526E+02  5.514483942E+02  1.250000000E+02  0.00000E+00  9.000E+00
      21     1     1     2   501   512 -2.837476757E+00  1.565649548E+01  1.897620099E+02  1.904279326E+02  0.000000000E+00  0.00000E+00  9.000E+00
#rwgt            1           1   8.4793720466918451E-002           3      440399           0
</event>
<event>
      5   9999  3.79277E-02  1.68038E+02 -1.00000E+00  1.14472E-01
      21    -1     0     0   502   511  0.000000000E+00  0.000000000E+00  3.999281938E+02  3.999281938E+02  0.000000000E+00  0.00000E+00  9.000E+00
      21    -1     0     0   501   502  0.000000000E+00  0.000000000E+00 -6.867130946E+02  6.867130946E+02  0.000000000E+00  0.00000E+00  9.000E+00
      25     1     1     2     0     0  8.942664802E+01  2.269678042E+02 -5.507011503E+01  2.795876018E+02  1.250000000E+02  0.00000E+00  9.000E+00
      25     1     1     2     0     0 -1.314225031E+02 -6.426217504E+01 -4.743608703E+02  5.119030541E+02  1.250000000E+02  0.00000E+00  9.000E+00
      21     1     1     2   501   511  4.199585504E+01 -1.627056291E+02  2.426460845E+02  2.951506326E+02  2.697398305E-06  0.00000E+00  9.000E+00
#rwgt            2          11   2.5570424534366791E-003           3      440662           0
</event>
<event>
      5   9999  3.79277E-02  1.36497E+01 -1.00000E+00  1.81332E-01
      21    -1     0     0   502   501  0.000000000E+00  0.000000000E+00  5.041662238E+02  5.041662238E+02  0.000000000E+00  0.00000E+00  9.000E+00
      21    -1     0     0   512   502  0.000000000E+00  0.000000000E+00 -1.647267603E+02  1.647267603E+02  0.000000000E+00  0.00000E+00  9.000E+00
      25     1     1     2     0     0  5.742976895E+01 -1.043339516E+02  3.546893344E+02  3.944784858E+02  1.250000000E+02  0.00000E+00  9.000E+00
      25     1     1     2     0     0 -6.867175210E+01  1.120755754E+02  6.524856301E+01  1.927670073E+02  1.250000000E+02  0.00000E+00  9.000E+00
      21     1     1     2   512   501  1.124198315E+01 -7.741623791E+00 -8.049843395E+01  8.164749104E+01  9.536743164E-07  0.00000E+00  9.000E+00
#rwgt            1           1   3.9317799218207716E-002           3      440697           0
</event>
<event>
      5   9999  3.79277E-02  6.41931E+01 -1.00000E+00  1.33154E-01
      21    -1     0     0   502   501  0.000000000E+00  0.000000000E+00  3.045848977E+03  3.045848977E+03  0.000000000E+00  0.00000E+00  9.000E+00
      21    -1     0     0   501   511  0.000000000E+00  0.000000000E+00 -1.821871822E+01  1.821871822E+01  0.000000000E+00  0.00000E+00  9.000E+00
      25     1     1     2     0     0 -5.335359311E+00  1.388372104E+02  8.460089246E+02  8.664065660E+02  1.250000000E+02  0.00000E+00  9.000E+00
      25     1     1     2     0     0  2.693006934E+01 -7.838540216E+01  1.988547885E+03  1.994195876E+03  1.250000000E+02  0.00000E+00  9.000E+00
      21     1     1     2   502   511 -2.159471003E+01 -6.045180821E+01  1.930734499E+02  2.034652542E+02  3.814697266E-06  0.00000E+00  9.000E+00
#rwgt            1           1   4.3763925840917574E-002           3      440846           0
</event>
<event>
      5   9999 -3.79277E-02  7.04570E+00 -1.00000E+00  2.15155E-01
      21    -1     0     0   502   501  0.000000000E+00  0.000000000E+00  1.020966565E+03  1.020966565E+03  0.000000000E+00  0.00000E+00  9.000E+00
      21    -1     0     0   501   512  0.000000000E+00  0.000000000E+00 -3.570467825E+01  3.570467825E+01  0.000000000E+00  0.00000E+00  9.000E+00
      25     1     1     2     0     0 -1.031871276E+02  9.057751644E+01  4.607458231E+02  4.967530406E+02  1.250000000E+02  0.00000E+00  9.000E+00
      25     1     1     2     0     0  1.017497098E+02 -9.747503212E+01  5.120967680E+02  5.456395194E+02  1.250000000E+02  0.00000E+00  9.000E+00
      21     1     1     2   502   512  1.437417831E+00  6.897515676E+00  1.241929568E+01  1.427868333E+01  0.000000000E+00  0.00000E+00  9.000E+00
#rwgt            1           1  -6.5062763519394717E-002           3      440926           0
</event>
<event>
      5   9999  3.79277E-02  3.93036E+01 -1.00000E+00  1.45315E-01
      21    -1     0     0   502   501  0.000000000E+00  0.000000000E+00  1.664146539E+02  1.664146539E+02  0.000000000E+00  0.00000E+00  9.000E+00
      21    -1     0     0   501   511  0.000000000E+00  0.000000000E+00 -3.131314919E+02  3.131314919E+02  0.000000000E+00  0.00000E+00  9.000E+00
      25     1     1     2     0     0 -5.929595951E+00  5.174689427E+01 -1.210750079E+02  1.816509254E+02  1.250000000E+02  0.00000E+00  9.000E+00
      25     1     1     2     0     0 -3.328267349E+01 -4.906907521E+01  9.709392248E+01  1.690199405E+02  1.250000000E+02  0.00000E+00  9.000E+00
      21     1     1     2   502   511  3.921226944E+01 -2.677819058E+00 -1.227357526E+02  1.288752798E+02  1.348699152E-06  0.00000E+00  9.000E+00
#rwgt            1           1   5.8933086287640858E-002           3      441390           0
</event>
<event>
      5   9999  3.79277E-02  4.45382E+01 -1.00000E+00  1.42004E-01
      21    -1     0     0   502   501  0.000000000E+00  0.000000000E+00  1.407462456E+02  1.407462456E+02  0.000000000E+00  0.00000E+00  9.000E+00
      21    -1     0     0   512   502  0.000000000E+00  0.000000000E+00 -7.414288850E+02  7.414288850E+02  0.000000000E+00  0.00000E+00  9.000E+00
      25     1     1     2     0     0 -4.462513327E+01  2.105454570E+02 -5.254930683E+02  5.814540023E+02  1.250000000E+02  0.00000E+00  9.000E+00
      25     1     1     2     0     0  6.103697065E+01 -1.691413207E+02 -6.792765251E+00  2.191014373E+02  1.250000000E+02  0.00000E+00  9.000E+00
      21     1     1     2   512   501 -1.641183738E+01 -4.140413628E+01 -6.839680591E+01  8.161969104E+01  1.348699152E-06  0.00000E+00  9.000E+00
#rwgt            1           1   4.8126173342325579E-002           3      441718           0
</event>
<event>
      5   9999  3.79277E-02  3.59377E+01 -1.00000E+00  1.47785E-01
      21    -1     0     0   502   501  0.000000000E+00  0.000000000E+00  7.669886703E+02  7.669886703E+02  0.000000000E+00  0.00000E+00  9.000E+00
      21    -1     0     0   501   511  0.000000000E+00  0.000000000E+00 -8.822717437E+01  8.822717437E+01  0.000000000E+00  0.00000E+00  9.000E+00
      25     1     1     2     0     0  1.552545880E+02  5.282602756E+01  4.130439224E+02  4.616544791E+02  1.250000000E+02  0.00000E+00  9.000E+00
      25     1     1     2     0     0 -1.448527255E+02 -8.722544489E+01  2.838955712E+02  3.532878227E+02  1.250000000E+02  0.00000E+00  9.000E+00
      21     1     1     2   502   511 -1.040186242E+01  3.439941733E+01 -1.817799766E+01  4.027354284E+01  1.039242493E-06  0.00000E+00  9.000E+00
#rwgt            1           1   2.4380558768814235E-002           3      441929           0
</event>
<event>
      5   9999  3.79277E-02  5.90866E+01 -1.00000E+00  1.35060E-01
      21    -1     0     0   502   501  0.000000000E+00  0.000000000E+00  1.241205223E+02  1.241205223E+02  0.000000000E+00  0.00000E+00  9.000E+00
      21    -1     0     0   501   512  0.000000000E+00  0.000000000E+00 -9.689053416E+02  9.689053416E+02  0.000000000E+00  0.00000E+00  9.000E+00
      25     1     1     2     0     0  1.260125008E+02 -8.701220597E+01 -4.325940566E+01  2.023527873E+02  1.250000000E+02  0.00000E+00  9.000E+00
      25     1     1     2     0     0 -7.723968710E+01  1.203654450E+02 -1.655639770E+02  2.519726971E+02  1.250000000E+02  0.00000E+00  9.000E+00
      21     1     1     2   502   512 -4.877281367E+01 -3.335323905E+01 -6.359614366E+02  6.387003795E+02  7.629394531E-06  0.00000E+00  9.000E+00
#rwgt            1           1   5.2615312221764340E-002           3      441979           0
</event>
<event>
      5   9999  3.79277E-02  3.69697E+01 -1.00000E+00  1.46994E-01
      21    -1     0     0   502   501  0.000000000E+00  0.000000000E+00  1.919118601E+02  1.919118601E+02  0.000000000E+00  0.00000E+00  9.000E+00
      21    -1     0     0   511   502  0.000000000E+00  0.000000000E+00 -9.711090832E+02  9.711090832E+02  0.000000000E+00  0.00000E+00  9.000E+00
      25     1     1     2     0     0  1.780790200E+02  1.406201078E+02  2.638044245E+01  2.603979259E+02  1.250000000E+02  0.00000E+00  9.000E+00
      25     1     1     2     0     0 -1.425090960E+02 -1.506967233E+02 -2.581777848E+02  3.539761481E+02  1.250000000E+02  0.00000E+00  9.000E+00
      21     1     1     2   511   501 -3.556992402E+01  1.007661553E+01 -5.473998808E+02  5.486468693E+02  0.000000000E+00  0.00000E+00  9.000E+00
#rwgt            1           1   3.6340227035692341E-002           3      442065           0
</event>
<event>
      5   9999  3.79277E-02  6.76240E+01 -1.00000E+00  1.31985E-01
      21    -1     0     0   502   512  0.000000000E+00  0.000000000E+00  3.626798684E+02  3.626798684E+02  0.000000000E+00  0.00000E+00  9.000E+00
      21    -1     0     0   501   502  0.000000000E+00  0.000000000E+00 -2.778173463E+02  2.778173463E+02  0.000000000E+00  0.00000E+00  9.000E+00
      25     1     1     2     0     0  1.557063357E+02  8.230715910E+01 -1.155375839E+02  2.449344090E+02  1.250000000E+02  0.00000E+00  9.000E+00
      25     1     1     2     0     0 -1.959642383E+02 -1.366423070E+02  1.351912207E+02  3.016202395E+02  1.250000000E+02  0.00000E+00  9.000E+00
      21     1     1     2   501   512  4.025790259E+01  5.433514789E+01  6.520888539E+01  9.394256624E+01  1.651812370E-06  0.00000E+00  9.000E+00
#rwgt            1           1   3.7895584789046054E-002           3      442214           0
</event>
<event>
      5   9999  3.79277E-02  1.01722E+01 -1.00000E+00  1.94904E-01
      21    -1     0     0   502   511  0.000000000E+00  0.000000000E+00  8.289115371E+02  8.289115371E+02  0.000000000E+00  0.00000E+00  9.000E+00
      21    -1     0     0   501   502  0.000000000E+00  0.000000000E+00 -8.936304841E+01  8.936304841E+01  0.000000000E+00  0.00000E+00  9.000E+00
      25     1     1     2     0     0 -1.519980045E+02  1.207248739E+02  3.297120101E+02  4.025082585E+02  1.250000000E+02  0.00000E+00  9.000E+00
      25     1     1     2     0     0  1.620900347E+02 -1.194503430E+02  2.129372434E+02  3.186045094E+02  1.250000000E+02  0.00000E+00  9.000E+00
      21     1     1     2   501   511 -1.009203021E+01 -1.274530901E+00  1.968992352E+02  1.971618176E+02  0.000000000E+00  0.00000E+00  9.000E+00
#rwgt            1           1   2.5552738721166809E-002           3      442331           0
</event>
<event>
      5   9999 -3.80899E-02  3.13564E+01 -1.00000E+00  1.51718E-01
       3    -1     0     0   502     0  0.000000000E+00  0.000000000E+00  2.285775223E+02  2.285775223E+02  0.000000000E+00  0.00000E+00  9.000E+00
      21    -1     0     0   501   502  0.000000000E+00  0.000000000E+00 -1.116667978E+03  1.116667978E+03  0.000000000E+00  0.00000E+00  9.000E+00
      25     1     1     2     0     0  2.776313506E+01  1.998964252E+02 -3.018820183E+02  3.840405258E+02  1.250000000E+02  0.00000E+00  9.000E+00
      25     1     1     2     0     0  1.596302334E+00 -1.888852538E+02 -7.556597160E+02  7.888769192E+02  1.250000000E+02  0.00000E+00  9.000E+00
       3     1     1     2   501     0 -2.935943740E+01 -1.101117138E+01  1.694512792E+02  1.723280548E+02  2.697398305E-06  0.00000E+00  9.000E+00
#rwgt            1           1 -0.31757022502519355                3      442652           0
</event>
<event>
      5   9999  3.79277E-02  1.37353E+01 -1.00000E+00  1.81065E-01
      21    -1     0     0   502   501  0.000000000E+00  0.000000000E+00  4.934000309E+01  4.934000309E+01  0.000000000E+00  0.00000E+00  9.000E+00
      21    -1     0     0   501   511  0.000000000E+00  0.000000000E+00 -1.883379532E+03  1.883379532E+03  0.000000000E+00  0.00000E+00  9.000E+00
      25     1     1     2     0     0  6.891074462E+01 -1.677697359E+02 -3.218581798E+02  3.900167469E+02  1.250000000E+02  0.00000E+00  9.000E+00
      25     1     1     2     0     0 -5.529377181E+01  1.695691024E+02 -7.651248180E+02  7.955199990E+02  1.250000000E+02  0.00000E+00  9.000E+00
      21     1     1     2   502   511 -1.361697281E+01 -1.799366430E+00 -7.470565307E+02  7.471827887E+02  1.078959322E-05  0.00000E+00  9.000E+00
#rwgt            1           1   4.4354299957241265E-002           3      442776           0
</event>
<event>
      5   9999  4.07391E-02  5.11098E+01 -1.00000E+00  1.38534E-01
      21    -1     0     0   502   512  0.000000000E+00  0.000000000E+00  3.915425189E+01  3.915425189E+01  0.000000000E+00  0.00000E+00  9.000E+00
      21    -1     0     0   501   502  0.000000000E+00  0.000000000E+00 -1.733498793E+03  1.733498793E+03  0.000000000E+00  0.00000E+00  9.000E+00
      25     1     1     2     0     0 -1.038228248E+02  1.381865657E+02 -1.190422313E+03  1.209382069E+03  1.250000000E+02  0.00000E+00  9.000E+00
      25     1     1     2     0     0  1.266730139E+02 -9.246915454E+01 -4.029401986E+02  4.500915470E+02  1.250000000E+02  0.00000E+00  9.000E+00
      21     1     1     2   501   512 -2.285018915E+01 -4.571741119E+01 -1.009820301E+02  1.131794294E+02  3.015782986E-06  0.00000E+00  9.000E+00
#rwgt            1           1  0.46650985362380198                3      443024           0
</event>
<event>
      5   9999  3.79277E-02  2.03038E+01 -1.00000E+00  1.65831E-01
      21    -1     0     0   502   501  0.000000000E+00  0.000000000E+00  4.533615722E+02  4.533615722E+02  0.000000000E+00  0.00000E+00  9.000E+00
      21    -1     0     0   501   511  0.000000000E+00  0.000000000E+00 -1.232406085E+02  1.232406085E+02  0.000000000E+00  0.00000E+00  9.000E+00
      25     1     1     2     0     0  1.081482336E+02  1.523066784E+02  2.140666569E+02  3.103915242E+02  1.250000000E+02  0.00000E+00  9.000E+00
      25     1     1     2     0     0 -8.793285386E+01 -1.504143239E+02  1.197026545E+02  2.455817199E+02  1.250000000E+02  0.00000E+00  9.000E+00
      21     1     1     2   502   511 -2.021537977E+01 -1.892354483E+00 -3.648347773E+00  2.062893662E+01  4.020553101E-07  0.00000E+00  9.000E+00
#rwgt            1           1   3.8182497764492930E-002           3      443250           0
</event>
<event>
      5   9999  3.79277E-02  1.29228E+02 -1.00000E+00  1.19018E-01
      21    -1     0     0   512   501  0.000000000E+00  0.000000000E+00  4.134169454E+02  4.134169454E+02  0.000000000E+00  0.00000E+00  9.000E+00
      21    -1     0     0   501   502  0.000000000E+00  0.000000000E+00 -1.253859855E+03  1.253859855E+03  0.000000000E+00  0.00000E+00  9.000E+00
      25     1     1     2     0     0  4.997944502E+01  1.783239656E+01 -9.265306061E+02  9.364293370E+02  1.250000000E+02  0.00000E+00  9.000E+00
      25     1     1     2     0     0 -1.608424055E+02  4.857057217E+01 -2.759632480E+02  3.464247308E+02  1.250000000E+02  0.00000E+00  9.000E+00
      21     1     1     2   512   502  1.108629604E+02 -6.640296873E+01  3.620509449E+02  3.844227321E+02  5.394796609E-06  0.00000E+00  9.000E+00
#rwgt            1           1   4.3463107390243567E-002           3      443495           0
</event>
<event>
      5   9999  3.79277E-02  1.68764E+01 -1.00000E+00  1.72693E-01
      21    -1     0     0   502   511  0.000000000E+00  0.000000000E+00  6.236669150E+01  6.236669150E+01  0.000000000E+00  0.00000E+00  9.000E+00
      21    -1     0     0   501   502  0.000000000E+00  0.000000000E+00 -9.075085370E+02  9.075085370E+02  0.000000000E+00  0.00000E+00  9.000E+00
      25     1     1     2     0     0 -1.877938857E+02 -2.086743957E+01 -4.559588748E+02  5.091419144E+02  1.250000000E+02  0.00000E+00  9.000E+00
      25     1     1     2     0     0  1.709321335E+02  2.156984928E+01 -3.894849555E+02  4.438542364E+02  1.250000000E+02  0.00000E+00  9.000E+00
      21     1     1     2   501   511  1.686175214E+01 -7.024097171E-01  3.019848279E-01  1.687907757E+01  3.212617436E-07  0.00000E+00  9.000E+00
#rwgt            1           1   3.4604539139623948E-002           3      443531           0
</event>
<event>
      5   9999  3.79277E-02  9.21456E+00 -1.00000E+00  1.99956E-01
      21    -1     0     0   502   501  0.000000000E+00  0.000000000E+00  3.188704267E+02  3.188704267E+02  0.000000000E+00  0.00000E+00  9.000E+00
      21    -1     0     0   512   502  0.000000000E+00  0.000000000E+00 -2.752739909E+02  2.752739909E+02  0.000000000E+00  0.00000E+00  9.000E+00
      25     1     1     2     0     0 -9.592635038E+01  7.990162965E+01 -1.772276163E+02  2.502414096E+02  1.250000000E+02  0.00000E+00  9.000E+00
      25     1     1     2     0     0  1.043500212E+02 -8.363657425E+01  2.519574134E+02  3.114346507E+02  1.250000000E+02  0.00000E+00  9.000E+00
      21     1     1     2   512   501 -8.423670858E+00  3.734944603E+00 -3.113336131E+01  3.246835734E+01  4.768371582E-07  0.00000E+00  9.000E+00
#rwgt            1           1   4.2082330324294419E-002           3      443764           0
</event>
<event>
      5   9999  3.79277E-02  2.63862E+01 -1.00000E+00  1.57015E-01
      21    -1     0     0   502   511  0.000000000E+00  0.000000000E+00  3.339099401E+02  3.339099401E+02  0.000000000E+00  0.00000E+00  9.000E+00
      21    -1     0     0   501   502  0.000000000E+00  0.000000000E+00 -1.695962729E+02  1.695962729E+02  0.000000000E+00  0.00000E+00  9.000E+00
      25     1     1     2     0     0 -9.363300302E+01  3.754968466E+01 -2.934018512E+01  1.632879804E+02  1.250000000E+02  0.00000E+00  9.000E+00
      25     1     1     2     0     0  1.050431487E+02 -6.134126272E+01  3.312606826E+01  1.775363343E+02  1.250000000E+02  0.00000E+00  9.000E+00
      21     1     1     2   501   511 -1.141014569E+01  2.379157806E+01  1.605277840E+02  1.626818983E+02  0.000000000E+00  0.00000E+00  9.000E+00
#rwgt            1           1   3.0676978496161578E-002           3      443979           0
</event>
<event>
      5   9999  3.79277E-02  3.61575E+01 -1.00000E+00  1.47614E-01
      21    -1     0     0   502   501  0.000000000E+00  0.000000000E+00  1.545706026E+02  1.545706026E+02  0.000000000E+00  0.00000E+00  9.000E+00
      21    -1     0     0   512   502  0.000000000E+00  0.000000000E+00 -4.180201637E+02  4.180201637E+02  0.000000000E+00  0.00000E+00  9.000E+00
      25     1     1     2     0     0  2.397846302E+01 -5.402661964E+01 -1.284623101E+02  1.887363437E+02  1.250000000E+02  0.00000E+00  9.000E+00
      25     1     1     2     0     0 -5.880579983E+01  6.374360171E+01  7.580839330E+01  1.699802381E+02  1.250000000E+02  0.00000E+00  9.000E+00
      21     1     1     2   512   501  3.482733682E+01 -9.716982066E+00 -2.107956443E+02  2.138741845E+02  2.697398305E-06  0.00000E+00  9.000E+00
#rwgt            1           1   4.1354389411977339E-002           3      444108           0
</event>
<event>
      5   9999  3.79277E-02  4.67530E+02 -1.00000E+00  9.96875E-02
      21    -1     0     0   502   501  0.000000000E+00  0.000000000E+00  1.335334344E+03  1.335334344E+03  0.000000000E+00  0.00000E+00  9.000E+00
       2    -1     0     0   501     0  0.000000000E+00  0.000000000E+00 -4.641478753E+02  4.641478753E+02  0.000000000E+00  0.00000E+00  9.000E+00
      25     1     1     2     0     0  9.612452756E+01  1.496519409E+02  1.932089890E+02  2.908441879E+02  1.250000000E+02  0.00000E+00  9.000E+00
      25     1     1     2     0     0 -1.164763142E+02  3.174351044E+02  9.157262279E+02  9.841297180E+02  1.250000000E+02  0.00000E+00  9.000E+00
       2     1     1     2   502     0  2.035178667E+01 -4.670870453E+02 -2.377487484E+02  5.245083131E+02  1.265191952E-05  0.00000E+00  9.000E+00
#rwgt            2          13   1.2141054617307220E-004           3      444285           0
</event>
<event>
      5   9999  3.79277E-02  1.03532E+02 -1.00000E+00  1.23154E-01
      21    -1     0     0   502   501  0.000000000E+00  0.000000000E+00  1.375946538E+03  1.375946538E+03  0.000000000E+00  0.00000E+00  9.000E+00
       2    -1     0     0   501     0  0.000000000E+00  0.000000000E+00 -9.097166441E+02  9.097166441E+02  0.000000000E+00  0.00000E+00  9.000E+00
      25     1     1     2     0     0  1.685239957E+02  8.638901583E+00  6.042459333E+02  6.396976752E+02  1.250000000E+02  0.00000E+00  9.000E+00
      25     1     1     2     0     0 -8.549919928E+01  5.321379697E+01  7.423631888E+02  7.595195359E+02  1.250000000E+02  0.00000E+00  9.000E+00
       2     1     1     2   502     0 -8.302479640E+01 -6.185269855E+01 -8.803792285E+02  8.864459708E+02  0.000000000E+00  0.00000E+00  9.000E+00
#rwgt            1           1   2.7894469759824004E-002           3      444364           0
</event>
<event>
      5   9999  3.79277E-02  1.24407E+01 -1.00000E+00  1.85396E-01
      21    -1     0     0   511   501  0.000000000E+00  0.000000000E+00  5.599291506E+02  5.599291506E+02  0.000000000E+00  0.00000E+00  9.000E+00
      21    -1     0     0   501   502  0.000000000E+00  0.000000000E+00 -1.732064029E+02  1.732064029E+02  0.000000000E+00  0.00000E+00  9.000E+00
      25     1     1     2     0     0 -1.218372405E+02 -1.130122320E+02  1.015311068E+02  2.314079588E+02  1.250000000E+02  0.00000E+00  9.000E+00
      25     1     1     2     0     0  1.342652838E+02  1.135727909E+02 -5.079411483E-01  2.157572786E+02  1.250000000E+02  0.00000E+00  9.000E+00
      21     1     1     2   511   502 -1.242804332E+01 -5.605588540E-01  2.856995820E+02  2.859703160E+02  3.814697266E-06  0.00000E+00  9.000E+00
#rwgt            1           1   3.8959888229732169E-002           3      444475           0
</event>
<event>
      5   9999  3.79277E-02  7.32687E+01 -1.00000E+00  1.30225E-01
      21    -1     0     0   502   501  0.000000000E+00  0.000000000E+00  5.722595988E+02  5.722595988E+02  0.000000000E+00  0.00000E+00  9.000E+00
      21    -1     0     0   512   502  0.000000000E+00  0.000000000E+00 -3.463496374E+02  3.463496374E+02  0.000000000E+00  0.00000E+00  9.000E+00
      25     1     1     2     0     0 -2.118263223E+02  5.866683005E+01  1.667666050E+01  2.534073771E+02  1.250000000E+02  0.00000E+00  9.000E+00
      25     1     1     2     0     0  2.694474095E+02 -1.341071245E+01  3.781701409E+02  4.810607126E+02  1.250000000E+02  0.00000E+00  9.000E+00
      21     1     1     2   512   501 -5.762108723E+01 -4.525611760E+01 -1.689368401E+02  1.841411464E+02  1.907348633E-06  0.00000E+00  9.000E+00
#rwgt            1           1   3.6310424119788944E-002           3      444723           0
</event>
<event>
      5   9999  3.79277E-02  1.23866E+02 -1.00000E+00  1.19787E-01
      21    -1     0     0   511   501  0.000000000E+00  0.000000000E+00  5.536086252E+02  5.536086252E+02  0.000000000E+00  0.00000E+00  9.000E+00
      21    -1     0     0   501   502  0.000000000E+00  0.000000000E+00 -2.363066234E+02  2.363066234E+02  0.000000000E+00  0.00000E+00  9.000E+00
      25     1     1     2     0     0 -2.835289171E+02 -2.517237607E+01 -2.087940193E+01  3.115818428E+02  1.250000000E+02  0.00000E+00  9.000E+00
      25     1     1     2     0     0  1.689374313E+02 -2.185570035E+01  2.437413229E+02  3.225714801E+02  1.250000000E+02  0.00000E+00  9.000E+00
      21     1     1     2   511   502  1.145914859E+02  4.702807642E+01  9.444008080E+01  1.557619256E+02  1.348699152E-06  0.00000E+00  9.000E+00
#rwgt            1           1   2.8498898874150134E-003           3      444827           0
</event>
<event>
      5   9999  3.79277E-02  7.36814E+00 -1.00000E+00  2.12455E-01
      21    -1     0     0   512   501  0.000000000E+00  0.000000000E+00  6.575682774E+02  6.575682774E+02  0.000000000E+00  0.00000E+00  9.000E+00
      21    -1     0     0   501   502  0.000000000E+00  0.000000000E+00 -1.318266128E+02  1.318266128E+02  0.000000000E+00  0.00000E+00  9.000E+00
      25     1     1     2     0     0 -2.184232212E+02 -1.053398102E+01  6.346068807E+01  2.597535894E+02  1.250000000E+02  0.00000E+00  9.000E+00
      25     1     1     2     0     0  2.123208210E+02  1.466317311E+01  4.235785276E+02  4.902437238E+02  1.250000000E+02  0.00000E+00  9.000E+00
      21     1     1     2   512   502  6.102400208E+00 -4.129192094E+00  3.870244892E+01  3.939757693E+01  0.000000000E+00  0.00000E+00  9.000E+00
#rwgt            1           1   4.3919896186629649E-002           3      444965           0
</event>
<event>
      5   9999  3.79277E-02  9.52924E+01 -1.00000E+00  1.24777E-01
      21    -1     0     0   502   501  0.000000000E+00  0.000000000E+00  3.167939854E+02  3.167939854E+02  0.000000000E+00  0.00000E+00  9.000E+00
      21    -1     0     0   511   502  0.000000000E+00  0.000000000E+00 -3.022670799E+02  3.022670799E+02  0.000000000E+00  0.00000E+00  9.000E+00
      25     1     1     2     0     0 -9.614377235E+01  3.894368148E+01  6.733698234E+01  1.758394281E+02  1.250000000E+02  0.00000E+00  9.000E+00
      25     1     1     2     0     0  1.236844061E+02 -1.301695611E+02  1.172948277E+02  2.482438792E+02  1.250000000E+02  0.00000E+00  9.000E+00
      21     1     1     2   511   501 -2.754063377E+01  9.122587958E+01 -1.701049045E+02  1.949777581E+02  2.697398305E-06  0.00000E+00  9.000E+00
#rwgt            1           1   3.1254281679621534E-002           3      445370           0
</event>
<event>
      5   9999  3.79277E-02  4.37593E+01 -1.00000E+00  1.42462E-01
      21    -1     0     0   502   512  0.000000000E+00  0.000000000E+00  4.345162150E+01  4.345162150E+01  0.000000000E+00  0.00000E+00  9.000E+00
      21    -1     0     0   501   502  0.000000000E+00  0.000000000E+00 -1.240066904E+03  1.240066904E+03  0.000000000E+00  0.00000E+00  9.000E+00
      25     1     1     2     0     0  5.216949146E+01 -1.522871671E+02 -3.819154827E+02  4.328942978E+02  1.250000000E+02  0.00000E+00  9.000E+00
      25     1     1     2     0     0 -6.580687366E+01  1.107071669E+02 -7.582415122E+02  7.791930520E+02  1.250000000E+02  0.00000E+00  9.000E+00
      21     1     1     2   501   512  1.363738220E+01  4.158000028E+01 -5.645828712E+01  7.143117527E+01  1.168007728E-06  0.00000E+00  9.000E+00
#rwgt            1           1   3.8984255292790322E-002           3      445497           0
</event>
<event>
      5   9999  3.79277E-02  2.12640E+01 -1.00000E+00  1.64203E-01
      21    -1     0     0   502   511  0.000000000E+00  0.000000000E+00  9.847416495E+02  9.847416495E+02  0.000000000E+00  0.00000E+00  9.000E+00
      21    -1     0     0   501   502  0.000000000E+00  0.000000000E+00 -7.147743090E+01  7.147743090E+01  0.000000000E+00  0.00000E+00  9.000E+00
      25     1     1     2     0     0 -1.362042290E+02 -4.399475526E+00  4.484439440E+02  4.850751677E+02  1.250000000E+02  0.00000E+00  9.000E+00
      25     1     1     2     0     0  1.262778394E+02  2.320435125E+01  9.902811526E+01  2.047342234E+02  1.250000000E+02  0.00000E+00  9.000E+00
      21     1     1     2   501   511  9.926389601E+00 -1.880487572E+01  3.657921593E+02  3.664096893E+02  5.394796609E-06  0.00000E+00  9.000E+00
#rwgt            1           1   4.0375674955271453E-002           3      445772           0
</event>
<event>
      5   9999  3.79277E-02  1.26806E+02 -1.00000E+00  1.19360E-01
      21    -1     0     0   502   501  0.000000000E+00  0.000000000E+00  6.255282970E+02  6.255282970E+02  0.000000000E+00  0.00000E+00  9.000E+00
       1    -1     0     0   501     0  0.000000000E+00  0.000000000E+00 -4.446679463E+02  4.446679463E+02  0.000000000E+00  0.00000E+00  9.000E+00
      25     1     1     2     0     0  3.822921642E+01 -3.060459705E+01  5.203433116E+02  5.373828024E+02  1.250000000E+02  0.00000E+00  9.000E+00
      25     1     1     2     0     0 -7.590551082E+01  1.516837385E+02 -4.967373640E+01  2.164765188E+02  1.250000000E+02  0.00000E+00  9.000E+00
       1     1     1     2   502     0  3.767629440E+01 -1.210791414E+02 -2.898092246E+02  3.163369221E+02  5.394796609E-06  0.00000E+00  9.000E+00
#rwgt            1           1   3.9793953139482044E-002           3      445944           0
</event>
<event>
      5   9999  3.79277E-02  1.02579E+02 -1.00000E+00  1.23333E-01
       2    -1     0     0   502     0  0.000000000E+00  0.000000000E+00  2.604670806E+03  2.604670806E+03  0.000000000E+00  0.00000E+00  9.000E+00
      21    -1     0     0   501   502  0.000000000E+00  0.000000000E+00 -1.037924800E+02  1.037924800E+02  0.000000000E+00  0.00000E+00  9.000E+00
      25     1     1     2     0     0 -1.275227261E+02 -9.865854140E+01  1.351951069E+02  2.447412315E+02  1.250000000E+02  0.00000E+00  9.000E+00
      25     1     1     2     0     0  2.137511697E+02  1.542199990E+02  3.984832870E+02  4.938494716E+02  1.250000000E+02  0.00000E+00  9.000E+00
       2     1     1     2   501     0 -8.622844359E+01 -5.556145758E+01  1.967199932E+03  1.969872583E+03  2.157918644E-05  0.00000E+00  9.000E+00
#rwgt            1           1   3.1675915681469546E-002           3      446126           0
</event>
<event>
      5   9999  3.79277E-02  2.37613E+01 -1.00000E+00  1.60422E-01
      21    -1     0     0   502   511  0.000000000E+00  0.000000000E+00  4.132696480E+02  4.132696480E+02  0.000000000E+00  0.00000E+00  9.000E+00
      21    -1     0     0   501   502  0.000000000E+00  0.000000000E+00 -5.854845812E+02  5.854845812E+02  0.000000000E+00  0.00000E+00  9.000E+00
      25     1     1     2     0     0 -7.920834479E+01  4.643816478E+01 -4.485307245E+02  4.745895867E+02  1.250000000E+02  0.00000E+00  9.000E+00
      25     1     1     2     0     0  6.946142634E+01 -2.476794754E+01 -8.090164131E+01  1.661578061E+02  1.250000000E+02  0.00000E+00  9.000E+00
      21     1     1     2   501   511  9.746918449E+00 -2.167021724E+01  3.572174325E+02  3.580068363E+02  0.000000000E+00  0.00000E+00  9.000E+00
#rwgt            1           1   3.6661533334255460E-002           3      446214           0
</event>
<event>
      5   9999  3.79277E-02  4.97463E+01 -1.00000E+00  1.39202E-01
      21    -1     0     0   502   512  0.000000000E+00  0.000000000E+00  3.654286003E+02  3.654286003E+02  0.000000000E+00  0.00000E+00  9.000E+00
      21    -1     0     0   501   502  0.000000000E+00  0.000000000E+00 -1.303222963E+02  1.303222963E+02  0.000000000E+00  0.00000E+00  9.000E+00
      25     1     1     2     0     0 -1.293807443E+02 -9.078353178E+01  5.882878061E+01  2.099210615E+02  1.250000000E+02  0.00000E+00  9.000E+00
      25     1     1     2     0     0  8.932882121E+01  6.127870738E+01  9.559742437E+01  1.910460306E+02  1.250000000E+02  0.00000E+00  9.000E+00
      21     1     1     2   501   512  4.005192313E+01  2.950482440E+01  8.068009899E+01  9.478380443E+01  1.348699152E-06  0.00000E+00  9.000E+00
#rwgt            1           1   3.2958420069025711E-002           3      446352           0
</event>
<event>
      5   9999  3.79277E-02  6.09028E+01 -1.00000E+00  1.34358E-01
      21    -1     0     0   502   501  0.000000000E+00  0.000000000E+00  2.084837329E+02  2.084837329E+02  0.000000000E+00  0.00000E+00  9.000E+00
      21    -1     0     0   501   511  0.000000000E+00  0.000000000E+00 -6.114727561E+02  6.114727561E+02  0.000000000E+00  0.00000E+00  9.000E+00
      25     1     1     2     0     0  5.743653287E+01  3.464015447E+00 -2.631304533E+02  2.969403815E+02  1.250000000E+02  0.00000E+00  9.000E+00
      25     1     1     2     0     0 -1.081037128E+01 -4.264505964E+01  1.652884753E+02  2.118507619E+02  1.250000000E+02  0.00000E+00  9.000E+00
      21     1     1     2   502   511 -4.662616160E+01  3.918104419E+01 -3.051470451E+02  3.111653456E+02  3.814697266E-06  0.00000E+00  9.000E+00
#rwgt            1           1   3.2652696043006031E-002           3      446667           0
</event>
<event>
      5   9999  3.79277E-02  3.10512E+01 -1.00000E+00  1.52008E-01
      21    -1     0     0   502   501  0.000000000E+00  0.000000000E+00  3.544993521E+01  3.544993521E+01  0.000000000E+00  0.00000E+00  9.000E+00
       2    -1     0     0   501     0  0.000000000E+00  0.000000000E+00 -2.752878355E+03  2.752878355E+03  0.000000000E+00  0.00000E+00  9.000E+00
      25     1     1     2     0     0  6.666857492E+01 -8.091141869E+00 -1.351819445E+02  1.959829676E+02  1.250000000E+02  0.00000E+00  9.000E+00
      25     1     1     2     0     0 -3.917384011E+01 -6.338638859E+00 -8.710988655E+02  8.809160014E+02  1.250000000E+02  0.00000E+00  9.000E+00
       2     1     1     2   502     0 -2.749473481E+01  1.442978073E+01 -1.711147610E+03  1.711429321E+03  3.737624730E-05  0.00000E+00  9.000E+00
#rwgt            1           1   5.3039104271583266E-002           3      446819           0
</event>
<event>
      5   9999  3.79277E-02  1.30991E+02 -1.00000E+00  1.18775E-01
      -2    -1     0     0     0   501  0.000000000E+00  0.000000000E+00  2.153259782E+03  2.153259782E+03  0.000000000E+00  0.00000E+00  9.000E+00
      21    -1     0     0   501   502  0.000000000E+00  0.000000000E+00 -2.377828238E+02  2.377828238E+02  0.000000000E+00  0.00000E+00  9.000E+00
      25     1     1     2     0     0 -1.826718824E+02  9.113703875E+00  2.584539262E+01  2.230360073E+02  1.250000000E+02  0.00000E+00  9.000E+00
      25     1     1     2     0     0  9.429125590E+01 -1.057957245E+02 -7.184279743E+01  2.021632108E+02  1.250000000E+02  0.00000E+00  9.000E+00
      -2     1     1     2     0   502  8.838062654E+01  9.668202066E+01  1.961474363E+03  1.965843388E+03  3.051757812E-05  0.00000E+00  9.000E+00
#rwgt            1           1   3.8924562717057860E-002           3      446947           0
</event>
<event>
      5   9999  3.79277E-02  2.80393E+01 -1.00000E+00  1.55107E-01
      21    -1     0     0   502   501  0.000000000E+00  0.000000000E+00  1.008543982E+03  1.008543982E+03  0.000000000E+00  0.00000E+00  9.000E+00
      21    -1     0     0   501   511  0.000000000E+00  0.000000000E+00 -3.582371922E+02  3.582371922E+02  0.000000000E+00  0.00000E+00  9.000E+00
      25     1     1     2     0     0  2.027186950E+02  9.194633211E+01  7.356764333E+02  7.787129200E+02  1.250000000E+02  0.00000E+00  9.000E+00
      25     1     1     2     0     0 -2.184112046E+02 -6.870958115E+01  1.827365870E+02  3.184997976E+02  1.250000000E+02  0.00000E+00  9.000E+00
      21     1     1     2   502   511  1.569250962E+01 -2.323675096E+01 -2.681062310E+02  2.695684561E+02  3.814697266E-06  0.00000E+00  9.000E+00
#rwgt            1           1   4.6759335028445571E-002           3      447030           0
</event>
<event>
      5   9999  3.79277E-02  8.61081E+01 -1.00000E+00  1.26822E-01
      -2    -1     0     0     0   501  0.000000000E+00  0.000000000E+00  9.936273826E+02  9.936273826E+02  0.000000000E+00  0.00000E+00  9.000E+00
      21    -1     0     0   501   502  0.000000000E+00  0.000000000E+00 -7.318869852E+01  7.318869852E+01  0.000000000E+00  0.00000E+00  9.000E+00
      25     1     1     2     0     0 -4.395797102E+01 -1.909296509E+00  4.356629283E+01  1.394954139E+02  1.250000000E+02  0.00000E+00  9.000E+00
      25     1     1     2     0     0  1.581657826E+00  7.686835017E+01  2.176782274E+02  2.625262951E+02  1.250000000E+02  0.00000E+00  9.000E+00
      -2     1     1     2     0   502  4.237631319E+01 -7.495905366E+01  6.591941638E+02  6.647943721E+02  1.321449896E-05  0.00000E+00  9.000E+00
#rwgt            1           1   9.1100333731978483E-002           3      447199           0
</event>
<event>
      5   9999  3.79277E-02  5.66942E+01 -1.00000E+00  1.36032E-01
      21    -1     0     0   511   501  0.000000000E+00  0.000000000E+00  1.320506306E+02  1.320506306E+02  0.000000000E+00  0.00000E+00  9.000E+00
      21    -1     0     0   501   502  0.000000000E+00  0.000000000E+00 -7.436879181E+02  7.436879181E+02  0.000000000E+00  0.00000E+00  9.000E+00
      25     1     1     2     0     0 -1.495367660E+02 -5.159640415E+01 -1.101159905E+02  2.297258467E+02  1.250000000E+02  0.00000E+00  9.000E+00
      25     1     1     2     0     0  1.423284265E+02  1.078304470E+02 -5.367127829E+02  5.792843841E+02  1.250000000E+02  0.00000E+00  9.000E+00
      21     1     1     2   511   502  7.208339433E+00 -5.623404286E+01  3.519148592E+01  6.672831794E+01  8.259061849E-07  0.00000E+00  9.000E+00
#rwgt            1           1   4.4035078602535707E-002           3      447228           0
</event>
<event>
      5   9999  3.79277E-02  8.06444E+01 -1.00000E+00  1.28181E-01
      21    -1     0     0   502   501  0.000000000E+00  0.000000000E+00  4.080260936E+02  4.080260936E+02  0.000000000E+00  0.00000E+00  9.000E+00
      21    -1     0     0   501   512  0.000000000E+00  0.000000000E+00 -4.586054936E+02  4.586054936E+02  0.000000000E+00  0.00000E+00  9.000E+00
      25     1     1     2     0     0 -9.838115352E+01 -6.925778726E+01  3.298783304E+02  3.727200093E+02  1.250000000E+02  0.00000E+00  9.000E+00
      25     1     1     2     0     0  1.052383948E+02 -1.109451696E+01 -7.896655034E+01  1.818211322E+02  1.250000000E+02  0.00000E+00  9.000E+00
      21     1     1     2   502   512 -6.857241242E+00  8.035230423E+01 -3.014911802E+02  3.120904457E+02  0.000000000E+00  0.00000E+00  9.000E+00
#rwgt            1           1   4.1442347091936636E-002           3      447331           0
</event>
<event>
      5   9999  3.79277E-02  8.00660E+01 -1.00000E+00  1.28332E-01
      21    -1     0     0   511   501  0.000000000E+00  0.000000000E+00  1.247798062E+03  1.247798062E+03  0.000000000E+00  0.00000E+00  9.000E+00
      21    -1     0     0   501   502  0.000000000E+00  0.000000000E+00 -5.047133772E+01  5.047133772E+01  0.000000000E+00  0.00000E+00  9.000E+00
      25     1     1     2     0     0 -1.408010776E+02  1.134834917E+00  2.299149413E+02  2.971735377E+02  1.250000000E+02  0.00000E+00  9.000E+00
      25     1     1     2     0     0  7.079635814E+01 -3.999237067E+01  3.793140059E+02  4.075728513E+02  1.250000000E+02  0.00000E+00  9.000E+00
      21     1     1     2   511   502  7.000471943E+01  3.885753575E+01  5.880977771E+02  5.935230107E+02  1.321449896E-05  0.00000E+00  9.000E+00
#rwgt            1           1   4.0287477198939756E-002           3      447637           0
</event>
<event>
      5   9999  3.79277E-02  4.84968E+01 -1.00000E+00  1.39836E-01
      21    -1     0     0   502   501  0.000000000E+00  0.000000000E+00  3.886412975E+02  3.886412975E+02  0.000000000E+00  0.00000E+00  9.000E+00
      21    -1     0     0   512   502  0.000000000E+00  0.000000000E+00 -3.856072290E+02  3.856072290E+02  0.000000000E+00  0.00000E+00  9.000E+00
      25     1     1     2     0     0 -2.668193419E+02  1.386125670E+02 -4.127859026E+01  3.282299909E+02  1.250000000E+02  0.00000E+00  9.000E+00
      25     1     1     2     0     0  3.145885093E+02 -1.469821724E+02  8.948826856E+01  3.797404896E+02  1.250000000E+02  0.00000E+00  9.000E+00
      21     1     1     2   512   501 -4.776916741E+01  8.369605408E+00 -4.517560980E+01  6.627804592E+01  8.259061849E-07  0.00000E+00  9.000E+00
#rwgt            1           1   2.4393525190452753E-002           3      447790           0
</event>
<event>
      5   9999  3.79277E-02  7.95689E+00 -1.00000E+00  2.07978E-01
      21    -1     0     0   511   501  0.000000000E+00  0.000000000E+00  3.113863118E+01  3.113863118E+01  0.000000000E+00  0.00000E+00  9.000E+00
      21    -1     0     0   501   502  0.000000000E+00  0.000000000E+00 -2.688006597E+03  2.688006597E+03  0.000000000E+00  0.00000E+00  9.000E+00
      25     1     1     2     0     0 -1.448185500E+02 -1.737356639E+02 -1.846321614E+03  1.864318909E+03  1.250000000E+02  0.00000E+00  9.000E+00
      25     1     1     2     0     0  1.415597181E+02  1.809946012E+02 -7.995643815E+02  8.412647619E+02  1.250000000E+02  0.00000E+00  9.000E+00
      21     1     1     2   511   502  3.258831923E+00 -7.258937250E+00 -1.098197050E+01  1.356155712E+01  3.953724850E-07  0.00000E+00  9.000E+00
#rwgt            1           1  0.27082707130180783                3      447953           0
</event>
<event>
      5   9999  3.79277E-02  1.10354E+02 -1.00000E+00  1.21934E-01
       1    -1     0     0   502     0  0.000000000E+00  0.000000000E+00  3.017629046E+02  3.017629046E+02  0.000000000E+00  0.00000E+00  9.000E+00
      21    -1     0     0   501   502  0.000000000E+00  0.000000000E+00 -4.298858873E+02  4.298858873E+02  0.000000000E+00  0.00000E+00  9.000E+00
      25     1     1     2     0     0 -3.123429525E+02 -5.680445501E+00 -1.466029404E+02  3.670256252E+02  1.250000000E+02  0.00000E+00  9.000E+00
      25     1     1     2     0     0  2.056461327E+02 -2.249336733E+01 -3.099881598E+01  2.436846529E+02  1.250000000E+02  0.00000E+00  9.000E+00
       1     1     1     2   501     0  1.066968198E+02  2.817381283E+01  4.947877373E+01  1.209385138E+02  2.336015456E-06  0.00000E+00  9.000E+00
#rwgt            1           1   1.8341520965812506E-002           3      448287           0
</event>
<event>
      5   9999  3.79277E-02  1.08119E+02 -1.00000E+00  1.22322E-01
      21    -1     0     0   502   501  0.000000000E+00  0.000000000E+00  6.656590826E+02  6.656590826E+02  0.000000000E+00  0.00000E+00  9.000E+00
      21    -1     0     0   511   502  0.000000000E+00  0.000000000E+00 -1.019834686E+02  1.019834686E+02  0.000000000E+00  0.00000E+00  9.000E+00
      25     1     1     2     0     0 -8.223079513E+01 -1.155860814E+02  4.096709078E+02  4.511954107E+02  1.250000000E+02  0.00000E+00  9.000E+00
      25     1     1     2     0     0  1.005190358E+02  9.025374543E+00  5.489543457E+01  1.697764491E+02  1.250000000E+02  0.00000E+00  9.000E+00
      21     1     1     2   511   501 -1.828824063E+01  1.065607069E+02  9.910927158E+01  1.466706914E+02  1.348699152E-06  0.00000E+00  9.000E+00
#rwgt            1           1   4.3361687478493977E-002           3      448389           0
</event>
<event>
      5   9999 -3.79277E-02  3.05695E+01 -1.00000E+00  1.52475E-01
      21    -1     0     0   502   501  0.000000000E+00  0.000000000E+00  5.511188024E+02  5.511188024E+02  0.000000000E+00  0.00000E+00  9.000E+00
       3    -1     0     0   501     0  0.000000000E+00  0.000000000E+00 -2.911586572E+02  2.911586572E+02  0.000000000E+00  0.00000E+00  9.000E+00
      25     1     1     2     0     0 -1.786286687E+01 -8.073652389E+01  4.669141247E+02  4.903786987E+02  1.250000000E+02  0.00000E+00  9.000E+00
      25     1     1     2     0     0  4.343448111E+01  9.748725289E+01 -2.364159362E+01  1.660549414E+02  1.250000000E+02  0.00000E+00  9.000E+00
       3     1     1     2   502     0 -2.557161424E+01 -1.675072900E+01 -1.833123860E+02  1.858438194E+02  3.814697266E-06  0.00000E+00  9.000E+00
#rwgt            1           1  -3.4013424638456094E-003           3      448526           0
</event>
<event>
      5   9999  3.79277E-02  2.24312E+01 -1.00000E+00  1.62360E-01
      21    -1     0     0   502   511  0.000000000E+00  0.000000000E+00  3.185897832E+02  3.185897832E+02  0.000000000E+00  0.00000E+00  9.000E+00
      21    -1     0     0   501   502  0.000000000E+00  0.000000000E+00 -1.469799600E+02  1.469799600E+02  0.000000000E+00  0.00000E+00  9.000E+00
      25     1     1     2     0     0 -7.710778740E+01 -1.381417687E+02  9.097856229E+01  2.212032051E+02  1.250000000E+02  0.00000E+00  9.000E+00
      25     1     1     2     0     0  9.319899180E+01  1.225138174E+02  4.674671329E+01  2.037300732E+02  1.250000000E+02  0.00000E+00  9.000E+00
      21     1     1     2   501   511 -1.609120440E+01  1.562795132E+01  3.388454756E+01  4.063646497E+01  6.743495762E-07  0.00000E+00  9.000E+00
#rwgt            1           1   4.7257562839623353E-002           3      448702           0
</event>
<event>
      5   9999  3.79277E-02  9.54929E+00 -1.00000E+00  1.98101E-01
      21    -1     0     0   502   501  0.000000000E+00  0.000000000E+00  8.186261998E+02  8.186261998E+02  0.000000000E+00  0.00000E+00  9.000E+00
      21    -1     0     0   501   512  0.000000000E+00  0.000000000E+00 -9.432820253E+01  9.432820253E+01  0.000000000E+00  0.00000E+00  9.000E+00
      25     1     1     2     0     0  2.061487148E+02 -8.163124807E+01  2.067509747E+02  3.279205984E+02  1.250000000E+02  0.00000E+00  9.000E+00
      25     1     1     2     0     0 -2.136194090E+02  8.757915311E+01  5.059421202E+02  5.700050780E+02  1.250000000E+02  0.00000E+00  9.000E+00
      21     1     1     2   502   512  7.470694192E+00 -5.947905037E+00  1.160490234E+01  1.502872597E+01  1.685873940E-07  0.00000E+00  9.000E+00
#rwgt            1           1   3.4225137368820192E-002           3      448958           0
</event>
<event>
      5   9999  3.79277E-02  3.48513E+01 -1.00000E+00  1.48652E-01
      21    -1     0     0   502   501  0.000000000E+00  0.000000000E+00  1.189883935E+02  1.189883935E+02  0.000000000E+00  0.00000E+00  9.000E+00
      21    -1     0     0   511   502  0.000000000E+00  0.000000000E+00 -8.463207680E+02  8.463207680E+02  0.000000000E+00  0.00000E+00  9.000E+00
      25     1     1     2     0     0  1.851820000E+02 -1.271410508E+02 -1.084306804E+02  2.789971906E+02  1.250000000E+02  0.00000E+00  9.000E+00
      25     1     1     2     0     0 -1.782127112E+02  9.299364322E+01 -4.011040227E+02  4.657435187E+02  1.250000000E+02  0.00000E+00  9.000E+00
      21     1     1     2   511   501 -6.969288802E+00  3.414740760E+01 -2.177976715E+02  2.205684523E+02  2.697398305E-06  0.00000E+00  9.000E+00
#rwgt            1           1   3.5419525702349762E-002           3      449266           0
</event>
<event>
      5   9999 -3.79277E-02  3.72058E+01 -1.00000E+00  1.46818E-01
      21    -1     0     0   512   501  0.000000000E+00  0.000000000E+00  6.000916607E+02  6.000916607E+02  0.000000000E+00  0.00000E+00  9.000E+00
      21    -1     0     0   501   502  0.000000000E+00  0.000000000E+00 -7.731994172E+01  7.731994172E+01  0.000000000E+00  0.00000E+00  9.000E+00
      25     1     1     2     0     0  1.789235169E+01 -1.158000241E+02  2.289078389E+02  2.859258305E+02  1.250000000E+02  0.00000E+00  9.000E+00
      25     1     1     2     0     0 -4.793125090E+01  9.384691206E+01  9.482870179E+01  1.890029905E+02  1.250000000E+02  0.00000E+00  9.000E+00
      21     1     1     2   512   502  3.003889921E+01  2.195311205E+01  1.990351784E+02  2.024827815E+02  2.697398305E-06  0.00000E+00  9.000E+00
#rwgt            1           1  -2.6263981759035878E-002           3      449571           0
</event>
<event>
      5   9999  3.79277E-02  5.43076E+01 -1.00000E+00  1.37058E-01
      21    -1     0     0   502   501  0.000000000E+00  0.000000000E+00  7.682207166E+02  7.682207166E+02  0.000000000E+00  0.00000E+00  9.000E+00
      21    -1     0     0   511   502  0.000000000E+00  0.000000000E+00 -7.082714278E+01  7.082714278E+01  0.000000000E+00  0.00000E+00  9.000E+00
      25     1     1     2     0     0  2.422163443E+01  2.190477993E+01  6.100104587E+02  6.235417121E+02  1.250000000E+02  0.00000E+00  9.000E+00
      25     1     1     2     0     0 -5.117345447E+01  2.524300920E+01  3.916168857E+01  1.428795640E+02  1.250000000E+02  0.00000E+00  9.000E+00
      21     1     1     2   511   501  2.695182004E+01 -4.714778913E+01  4.822142649E+01  7.262658326E+01  6.743495762E-07  0.00000E+00  9.000E+00
#rwgt            1           1   4.6465357915757025E-002           3      449720           0
</event>
<event>
      5   9999 -3.79277E-02  4.30194E+01 -1.00000E+00  1.42907E-01
       2    -1     0     0   502     0  0.000000000E+00  0.000000000E+00  6.789295451E+02  6.789295451E+02  0.000000000E+00  0.00000E+00  9.000E+00
      21    -1     0     0   501   502  0.000000000E+00  0.000000000E+00 -2.432631020E+02  2.432631020E+02  0.000000000E+00  0.00000E+00  9.000E+00
      25     1     1     2     0     0  1.674817981E+02 -2.905227942E+02  1.420721845E+02  3.850495452E+02  1.250000000E+02  0.00000E+00  9.000E+00
      25     1     1     2     0     0 -2.103811117E+02  2.873110601E+02  1.849359471E+02  4.202786718E+02  1.250000000E+02  0.00000E+00  9.000E+00
       2     1     1     2   501     0  4.289931366E+01  3.211734165E+00  1.086583116E+02  1.168644301E+02  1.348699152E-06  0.00000E+00  9.000E+00
#rwgt            1           1 -0.12282707941877360                3      449843           0
</event>
<event>
      5   9999  3.79277E-02  2.69938E+01 -1.00000E+00  1.56295E-01
      21    -1     0     0   502   511  0.000000000E+00  0.000000000E+00  5.873566495E+02  5.873566495E+02  0.000000000E+00  0.00000E+00  9.000E+00
      21    -1     0     0   501   502  0.000000000E+00  0.000000000E+00 -3.827824919E+02  3.827824919E+02  0.000000000E+00  0.00000E+00  9.000E+00
      25     1     1     2     0     0 -1.609776718E+02 -2.910771636E+02 -1.524218696E+02  3.866486161E+02  1.250000000E+02  0.00000E+00  9.000E+00
      25     1     1     2     0     0  1.344782557E+02  2.962197830E+02  1.579586569E+02  3.826310212E+02  1.250000000E+02  0.00000E+00  9.000E+00
      21     1     1     2   501   511  2.649941617E+01 -5.142619463E+00  1.990373703E+02  2.008595040E+02  0.000000000E+00  0.00000E+00  9.000E+00
#rwgt            1           1   3.0001116042921015E-002           3      450119           0
</event>
<event>
      5   9999  4.08615E-02  8.37540E+01 -1.00000E+00  1.27393E-01
       2    -1     0     0   502     0  0.000000000E+00  0.000000000E+00  1.787516603E+03  1.787516603E+03  0.000000000E+00  0.00000E+00  9.000E+00
      21    -1     0     0   501   502  0.000000000E+00  0.000000000E+00 -2.093925648E+02  2.093925648E+02  0.000000000E+00  0.00000E+00  9.000E+00
      25     1     1     2     0     0  1.043973229E+01  3.723664222E+02  7.033045262E+02  8.056227386E+02  1.250000000E+02  0.00000E+00  9.000E+00
      25     1     1     2     0     0 -7.577432190E+01 -4.247698860E+02  1.681278804E+02  4.796490259E+02  1.250000000E+02  0.00000E+00  9.000E+00
       2     1     1     2   501     0  6.533458961E+01  5.240346375E+01  7.066916314E+02  7.116374031E+02  1.705984480E-05  0.00000E+00  9.000E+00
#rwgt            1           1  0.82458507210225707                3      450263           0
</event>
<event>
      5   9999  3.79277E-02  2.67613E+01 -1.00000E+00  1.56568E-01
      21    -1     0     0   502   511  0.000000000E+00  0.000000000E+00  1.527636082E+02  1.527636082E+02  0.000000000E+00  0.00000E+00  9.000E+00
      21    -1     0     0   501   502  0.000000000E+00  0.000000000E+00 -6.536028099E+02  6.536028099E+02  0.000000000E+00  0.00000E+00  9.000E+00
      25     1     1     2     0     0 -2.279316665E+02 -4.958517731E+01 -3.925736824E+02  4.734454884E+02  1.250000000E+02  0.00000E+00  9.000E+00
      25     1     1     2     0     0  2.523429459E+02  6.055122113E+01 -9.796816900E+01  3.042468979E+02  1.250000000E+02  0.00000E+00  9.000E+00
      21     1     1     2   501   511 -2.441127939E+01 -1.096604382E+01 -1.029735037E+01  2.867403186E+01  5.057621821E-07  0.00000E+00  9.000E+00
#rwgt            1           1   4.8956145804729796E-002           3      450467           0
</event>
<event>
      5   9999  3.79277E-02  6.66756E+00 -1.00000E+00  2.18584E-01
      21    -1     0     0   502   512  0.000000000E+00  0.000000000E+00  1.599746174E+03  1.599746174E+03  0.000000000E+00  0.00000E+00  9.000E+00
      21    -1     0     0   501   502  0.000000000E+00  0.000000000E+00 -4.597556903E+02  4.597556903E+02  0.000000000E+00  0.00000E+00  9.000E+00
      25     1     1     2     0     0  1.418151808E+02  3.390506092E+01  4.721189619E+01  1.977752811E+02  1.250000000E+02  0.00000E+00  9.000E+00
      25     1     1     2     0     0 -1.358885588E+02 -3.085030318E+01 -3.616799404E+02  4.072527727E+02  1.250000000E+02  0.00000E+00  9.000E+00
      21     1     1     2   501   512 -5.926622009E+00 -3.054757739E+00  1.454458528E+03  1.454473810E+03  2.157918644E-05  0.00000E+00  9.000E+00
#rwgt            1           1   3.9616847045240336E-002           3      450684           0
</event>
<event>
      5   9999  3.79277E-02  1.45418E+02 -1.00000E+00  1.16930E-01
       2    -1     0     0   502     0  0.000000000E+00  0.000000000E+00  2.659179849E+03  2.659179849E+03  0.000000000E+00  0.00000E+00  9.000E+00
      21    -1     0     0   501   502  0.000000000E+00  0.000000000E+00 -1.160723234E+02  1.160723234E+02  0.000000000E+00  0.00000E+00  9.000E+00
      25     1     1     2     0     0 -7.010948344E+00 -5.438847080E+01 -4.836027073E+01  1.448135869E+02  1.250000000E+02  0.00000E+00  9.000E+00
      25     1     1     2     0     0 -1.514932521E+01 -8.933063320E+01  3.302947250E+02  3.645943903E+02  1.250000000E+02  0.00000E+00  9.000E+00
       2     1     1     2   501     0  2.216027355E+01  1.437191040E+02  2.261173071E+03  2.265844195E+03  0.000000000E+00  0.00000E+00  9.000E+00
#rwgt            1           1   3.8231797057263227E-002           3      451206           0
</event>
<event>
      5   9999  3.79277E-02  4.91739E+01 -1.00000E+00  1.39490E-01
      21    -1     0     0   511   501  0.000000000E+00  0.000000000E+00  1.415451503E+02  1.415451503E+02  0.000000000E+00  0.00000E+00  9.000E+00
      21    -1     0     0   501   502  0.000000000E+00  0.000000000E+00 -8.643296055E+02  8.643296055E+02  0.000000000E+00  0.00000E+00  9.000E+00
      25     1     1     2     0     0 -1.611031300E+02 -6.396476646E+01 -2.877360693E+02  3.584170133E+02  1.250000000E+02  0.00000E+00  9.000E+00
      25     1     1     2     0     0  2.089058656E+02  7.549602573E+01 -5.028160100E+02  5.637288804E+02  1.250000000E+02  0.00000E+00  9.000E+00
      21     1     1     2   511   502 -4.780273566E+01 -1.153125926E+01  6.776762414E+01  8.372886215E+01  1.651812370E-06  0.00000E+00  9.000E+00
#rwgt            1           1   4.2423348139417283E-002           3      451272           0
</event>
<event>
      5   9999 -3.79277E-02  3.87282E+01 -1.00000E+00  1.45716E-01
      21    -1     0     0   502   501  0.000000000E+00  0.000000000E+00  4.357824772E+02  4.357824772E+02  0.000000000E+00  0.00000E+00  9.000E+00
      21    -1     0     0   501   512  0.000000000E+00  0.000000000E+00 -1.647115354E+03  1.647115354E+03  0.000000000E+00  0.00000E+00  9.000E+00
      25     1     1     2     0     0 -4.779030638E+01 -1.798677841E+02  1.058043155E+02  2.479029776E+02  1.250000000E+02  0.00000E+00  9.000E+00
      25     1     1     2     0     0  9.138343897E+00  1.822969616E+02  2.113857176E+02  3.059813934E+02  1.250000000E+02  0.00000E+00  9.000E+00
      21     1     1     2   502   512  3.865196248E+01 -2.429177444E+00 -1.528522910E+03  1.529013461E+03  0.000000000E+00  0.00000E+00  9.000E+00
#rwgt            1           1  -6.6075839364702182E-002           3      451577           0
</event>
<event>
      5   9999  3.79277E-02  1.07585E+02 -1.00000E+00  1.22416E-01
      21    -1     0     0   502   501  0.000000000E+00  0.000000000E+00  5.676772497E+02  5.676772497E+02  0.000000000E+00  0.00000E+00  9.000E+00
      21    -1     0     0   501   511  0.000000000E+00  0.000000000E+00 -1.311050392E+02  1.311050392E+02  0.000000000E+00  0.00000E+00  9.000E+00
      25     1     1     2     0     0  2.707880389E+01  1.363424284E+02  1.046576165E+02  2.142445707E+02  1.250000000E+02  0.00000E+00  9.000E+00
      25     1     1     2     0     0 -8.454444567E+01 -4.539059476E+01  3.419215895E+02  3.764883036E+02  1.250000000E+02  0.00000E+00  9.000E+00
      21     1     1     2   502   511  5.746564178E+01 -9.095183360E+01 -1.000699549E+01  1.080494145E+02  2.694762839E-06  0.00000E+00  9.000E+00
#rwgt            1           1   3.5729662102636360E-002           3      451736           0
</event>
<event>
      5   9999  3.79277E-02  2.78936E+01 -1.00000E+00  1.55269E-01
      21    -1     0     0   502   501  0.000000000E+00  0.000000000E+00  3.185760949E+02  3.185760949E+02  0.000000000E+00  0.00000E+00  9.000E+00
      21    -1     0     0   512   502  0.000000000E+00  0.000000000E+00 -2.807132837E+02  2.807132837E+02  0.000000000E+00  0.00000E+00  9.000E+00
      25     1     1     2     0     0 -1.124194695E+02 -2.298306748E+01  1.688796969E+02  2.393986436E+02  1.250000000E+02  0.00000E+00  9.000E+00
      25     1     1     2     0     0  1.261871847E+02 -1.275963095E+00  4.373408908E+01  1.829275928E+02  1.250000000E+02  0.00000E+00  9.000E+00
      21     1     1     2   512   501 -1.376771516E+01  2.425903058E+01 -1.747509747E+02  1.769631422E+02  0.000000000E+00  0.00000E+00  9.000E+00
#rwgt            1           1   5.0914806694638652E-002           3      452069           0
</event>
<event>
      5   9999  3.79277E-02  6.69653E+00 -1.00000E+00  2.18310E-01
      21    -1     0     0   502   501  0.000000000E+00  0.000000000E+00  2.545100595E+02  2.545100595E+02  0.000000000E+00  0.00000E+00  9.000E+00
      21    -1     0     0   511   502  0.000000000E+00  0.000000000E+00 -2.223702189E+02  2.223702189E+02  0.000000000E+00  0.00000E+00  9.000E+00
      25     1     1     2     0     0  9.899912797E+01  6.392256510E+01  1.694933062E+02  2.413294481E+02  1.250000000E+02  0.00000E+00  9.000E+00
      25     1     1     2     0     0 -1.023473405E+02 -5.812316462E+01 -1.022902736E+02  1.998538978E+02  1.250000000E+02  0.00000E+00  9.000E+00
      21     1     1     2   511   501  3.348212552E+00 -5.799400478E+00 -3.506319187E+01  3.569693260E+01  8.259061849E-07  0.00000E+00  9.000E+00
#rwgt            1           1   3.7055181223182430E-002           3      452251           0
</event>
<event>
      5   9999  3.79277E-02  1.16193E+02 -1.00000E+00  1.20966E-01
      21    -1     0     0   502   501  0.000000000E+00  0.000000000E+00  3.907137503E+02  3.907137503E+02  0.000000000E+00  0.00000E+00  9.000E+00
      21    -1     0     0   501   512  0.000000000E+00  0.000000000E+00 -2.751509091E+02  2.751509091E+02  0.000000000E+00  0.00000E+00  9.000E+00
      25     1     1     2     0     0 -1.417615472E+02  3.695442690E+00  1.468267850E+02  2.393597655E+02  1.250000000E+02  0.00000E+00  9.000E+00
      25     1     1     2     0     0  2.518260409E+02  3.354174137E+01  4.616648855E+01  2.868758406E+02  1.250000000E+02  0.00000E+00  9.000E+00
      21     1     1     2   502   512 -1.100644937E+02 -3.723718406E+01 -7.743043240E+01  1.396290533E+02  1.651812370E-06  0.00000E+00  9.000E+00
#rwgt            1           1   3.0624088116026998E-002           3      452560           0
</event>
<event>
      5   9999  3.79277E-02  6.20520E+01 -1.00000E+00  1.33928E-01
       1    -1     0     0   502     0  0.000000000E+00  0.000000000E+00  1.609132501E+03  1.609132501E+03  0.000000000E+00  0.00000E+00  9.000E+00
      21    -1     0     0   501   502  0.000000000E+00  0.000000000E+00 -9.797696325E+01  9.797696325E+01  0.000000000E+00  0.00000E+00  9.000E+00
      25     1     1     2     0     0 -2.567376999E+02  2.871174292E+01  6.150612517E+02  6.787222952E+02  1.250000000E+02  0.00000E+00  9.000E+00
      25     1     1     2     0     0  2.388614402E+02  3.070955334E+01  2.196353798E+02  3.490881900E+02  1.250000000E+02  0.00000E+00  9.000E+00
       1     1     1     2   501     0  1.787625970E+01 -5.942129626E+01  6.764589060E+02  6.792989788E+02  1.078959322E-05  0.00000E+00  9.000E+00
#rwgt            1           1   4.1655045374441847E-002           3      452615           0
</event>
<event>
      5   9999  3.79277E-02  2.30964E+01 -1.00000E+00  1.61371E-01
      21    -1     0     0   511   501  0.000000000E+00  0.000000000E+00  4.962321604E+01  4.962321604E+01  0.000000000E+00  0.00000E+00  9.000E+00
      21    -1     0     0   501   502  0.000000000E+00  0.000000000E+00 -1.013199124E+03  1.013199124E+03  0.000000000E+00  0.00000E+00  9.000E+00
      25     1     1     2     0     0 -3.690161375E+01 -2.833386459E+01 -6.917351012E+01  1.502481663E+02  1.250000000E+02  0.00000E+00  9.000E+00
      25     1     1     2     0     0  5.970739933E+01  3.198648165E+01 -8.562680952E+02  8.679908752E+02  1.250000000E+02  0.00000E+00  9.000E+00
      21     1     1     2   511   502 -2.280578558E+01 -3.652617057E+00 -3.813430231E+01  4.458329821E+01  0.000000000E+00  0.00000E+00  9.000E+00
#rwgt            1           1   3.8436996806245648E-002           3      452774           0
</event>
<event>
      5   9999  3.79277E-02  4.37454E+01 -1.00000E+00  1.42470E-01
      21    -1     0     0   502   501  0.000000000E+00  0.000000000E+00  1.152260491E+02  1.152260491E+02  0.000000000E+00  0.00000E+00  9.000E+00
       5    -1     0     0   501     0  0.000000000E+00  0.000000000E+00 -7.549248295E+02  7.549248295E+02  0.000000000E+00  0.00000E+00  9.000E+00
      25     1     1     2     0     0 -1.621043066E+02  2.514583028E+01 -6.668105251E+01  2.167521205E+02  1.250000000E+02  0.00000E+00  9.000E+00
      25     1     1     2     0     0  1.347188871E+02 -5.925885074E+01 -2.006534960E+02  2.784737247E+02  1.250000000E+02  0.00000E+00  9.000E+00
       5     1     1     2   502     0  2.738541950E+01  3.411302046E+01 -3.723642320E+02  3.749250333E+02  7.629394531E-06  0.00000E+00  9.000E+00
#rwgt            1           1   2.9616662172099455E-002           3      452933           0
</event>
<event>
      5   9999  3.79277E-02  1.44543E+01 -1.00000E+00  1.78913E-01
      21    -1     0     0   502   501  0.000000000E+00  0.000000000E+00  3.544576259E+02  3.544576259E+02  0.000000000E+00  0.00000E+00  9.000E+00
      21    -1     0     0   501   511  0.000000000E+00  0.000000000E+00 -2.712205749E+02  2.712205749E+02  0.000000000E+00  0.00000E+00  9.000E+00
      25     1     1     2     0     0 -7.411640391E+01 -1.103250510E+02  1.436769160E+01  1.830199136E+02  1.250000000E+02  0.00000E+00  9.000E+00
      25     1     1     2     0     0  6.752213942E+01  1.231874398E+02  2.208118939E+02  2.900297866E+02  1.250000000E+02  0.00000E+00  9.000E+00
      21     1     1     2   502   511  6.594264482E+00 -1.286238889E+01 -1.519425345E+02  1.526285005E+02  3.303624740E-06  0.00000E+00  9.000E+00
#rwgt            1           1   4.1878841853937844E-002           3      453042           0
</event>
<event>
      5   9999 -3.79277E-02  6.34722E+01 -1.00000E+00  1.33411E-01
      21    -1     0     0   502   501  0.000000000E+00  0.000000000E+00  1.895123509E+03  1.895123509E+03  0.000000000E+00  0.00000E+00  9.000E+00
      21    -1     0     0   501   512  0.000000000E+00  0.000000000E+00 -1.293952481E+02  1.293952481E+02  0.000000000E+00  0.00000E+00  9.000E+00
      25     1     1     2     0     0 -2.218141147E+02 -1.925627218E+02  4.897239031E+02  5.845822479E+02  1.250000000E+02  0.00000E+00  9.000E+00
      25     1     1     2     0     0  1.697050698E+02  1.563222299E+02  1.330590833E+03  1.356220268E+03  1.250000000E+02  0.00000E+00  9.000E+00
      21     1     1     2   502   512  5.210904492E+01  3.624049192E+01 -5.458647500E+01  8.371624138E+01  3.873843386E-06  0.00000E+00  9.000E+00
#rwgt            1           1  -5.2597727143356018E-002           3      453208           0
</event>
<event>
      5   9999  3.79277E-02  1.82732E+01 -1.00000E+00  1.69671E-01
      21    -1     0     0   511   501  0.000000000E+00  0.000000000E+00  2.622697280E+02  2.622697280E+02  0.000000000E+00  0.00000E+00  9.000E+00
      21    -1     0     0   501   502  0.000000000E+00  0.000000000E+00 -1.774740510E+02  1.774740510E+02  0.000000000E+00  0.00000E+00  9.000E+00
      25     1     1     2     0     0 -6.894489322E+01  1.098783931E+02  1.225613259E+02  2.178828543E+02  1.250000000E+02  0.00000E+00  9.000E+00
      25     1     1     2     0     0  8.719736217E+01 -1.107493215E+02 -5.549398319E+01  1.964010549E+02  1.250000000E+02  0.00000E+00  9.000E+00
      21     1     1     2   511   502 -1.825246895E+01  8.709284102E-01  1.772833424E+01  2.545986987E+01  2.384185791E-07  0.00000E+00  9.000E+00
#rwgt            1           1   4.6116413486483543E-002           3      453340           0
</event>
<event>
      5   9999  3.79277E-02  7.19606E+01 -1.00000E+00  1.30616E-01
      21    -1     0     0   502   501  0.000000000E+00  0.000000000E+00  1.335748350E+02  1.335748350E+02  0.000000000E+00  0.00000E+00  9.000E+00
      -3    -1     0     0     0   502  0.000000000E+00  0.000000000E+00 -7.546785884E+02  7.546785884E+02  0.000000000E+00  0.00000E+00  9.000E+00
      25     1     1     2     0     0 -2.571216663E+02  1.039484501E+02 -3.208267184E+02  4.421217195E+02  1.250000000E+02  0.00000E+00  9.000E+00
      25     1     1     2     0     0  2.210921715E+02 -4.165721817E+01 -2.456062274E+02  3.557590351E+02  1.250000000E+02  0.00000E+00  9.000E+00
      -3     1     1     2     0   501  3.602949481E+01 -6.229123196E+01 -5.467080751E+01  9.037266882E+01  1.168007728E-06  0.00000E+00  9.000E+00
#rwgt            1           1   3.4659431116761841E-002           3      453594           0
</event>
<event>
      5   9999  3.79277E-02  7.69569E+01 -1.00000E+00  1.29170E-01
       2    -1     0     0   502     0  0.000000000E+00  0.000000000E+00  3.562584305E+02  3.562584305E+02  0.000000000E+00  0.00000E+00  9.000E+00
      21    -1     0     0   501   502  0.000000000E+00  0.000000000E+00 -4.698229744E+02  4.698229744E+02  0.000000000E+00  0.00000E+00  9.000E+00
      25     1     1     2     0     0 -1.678755847E+02  1.310906609E+01 -1.965174675E+02  2.873989815E+02  1.250000000E+02  0.00000E+00  9.000E+00
      25     1     1     2     0     0  2.447234249E+02 -9.014046436E+00 -1.358954744E+02  3.066975508E+02  1.250000000E+02  0.00000E+00  9.000E+00
       2     1     1     2   501     0 -7.684784014E+01 -4.095019650E+00  2.188483981E+02  2.319848725E+02  2.697398305E-06  0.00000E+00  9.000E+00
#rwgt            1           1   2.4190472893043415E-002           3      453700           0
</event>
<event>
      5   9999 -3.79277E-02  3.07494E+01 -1.00000E+00  1.52299E-01
      21    -1     0     0   511   501  0.000000000E+00  0.000000000E+00  2.402888168E+02  2.402888168E+02  0.000000000E+00  0.00000E+00  9.000E+00
      21    -1     0     0   501   502  0.000000000E+00  0.000000000E+00 -2.294500887E+02  2.294500887E+02  0.000000000E+00  0.00000E+00  9.000E+00
      25     1     1     2     0     0 -1.878361673E+02  2.092620682E+01 -3.856503681E+01  2.298534184E+02  1.250000000E+02  0.00000E+00  9.000E+00
      25     1     1     2     0     0  1.584162426E+02 -2.987012314E+01  4.319159816E+01  2.085148540E+02  1.250000000E+02  0.00000E+00  9.000E+00
      21     1     1     2   511   502  2.941992468E+01  8.943916319E+00  6.212166704E+00  3.137063312E+01  7.633118912E-07  0.00000E+00  9.000E+00
#rwgt            1           1  -9.1463755341206973E-002           3      453853           0
</event>
<event>
      5   9999  3.79277E-02  9.12933E+01 -1.00000E+00  1.25634E-01
      21    -1     0     0   502   512  0.000000000E+00  0.000000000E+00  2.445563329E+02  2.445563329E+02  0.000000000E+00  0.00000E+00  9.000E+00
      21    -1     0     0   501   502  0.000000000E+00  0.000000000E+00 -5.228644259E+02  5.228644259E+02  0.000000000E+00  0.00000E+00  9.000E+00
      25     1     1     2     0     0  1.273326093E+02  2.988888814E+01  9.648224506E+01  2.050384419E+02  1.250000000E+02  0.00000E+00  9.000E+00
      25     1     1     2     0     0 -9.893775463E+01 -1.166541143E+02 -4.172874049E+02  4.616824016E+02  1.250000000E+02  0.00000E+00  9.000E+00
      21     1     1     2   501   512 -2.839485469E+01  8.676522616E+01  4.249706685E+01  1.006999153E+02  0.000000000E+00  0.00000E+00  9.000E+00
#rwgt            1           1   2.9703331799573816E-002           3      453996           0
</event>
<event>
      5   9999  3.79277E-02  9.37370E+01 -1.00000E+00  1.25105E-01
      21    -1     0     0   502   511  0.000000000E+00  0.000000000E+00  1.499285020E+02  1.499285020E+02  0.000000000E+00  0.00000E+00  9.000E+00
      21    -1     0     0   501   502  0.000000000E+00  0.000000000E+00 -5.196218200E+02  5.196218200E+02  0.000000000E+00  0.00000E+00  9.000E+00
      25     1     1     2     0     0 -1.284901606E+02 -3.147246196E+00 -2.460152519E+02  3.044144062E+02  1.250000000E+02  0.00000E+00  9.000E+00
      25     1     1     2     0     0  2.059332030E+02 -4.966564868E+01 -6.450882762E+01  2.542863535E+02  1.250000000E+02  0.00000E+00  9.000E+00
      21     1     1     2   501   511 -7.744304237E+01  5.281289487E+01 -5.916923845E+01  1.108495623E+02  1.651812370E-06  0.00000E+00  9.000E+00
#rwgt            1           1   3.8170901998739917E-002           3      454096           0
</event>
<event>
      5   9999  3.79277E-02  9.02449E+01 -1.00000E+00  1.25867E-01
      21    -1     0     0   512   501  0.000000000E+00  0.000000000E+00  3.360724015E+01  3.360724015E+01  0.000000000E+00  0.00000E+00  9.000E+00
      21    -1     0     0   501   502  0.000000000E+00  0.000000000E+00 -1.903839365E+03  1.903839365E+03  0.000000000E+00  0.00000E+00  9.000E+00
      25     1     1     2     0     0  8.802319120E+01  8.238565557E+01 -5.562880134E+02  5.827665333E+02  1.250000000E+02  0.00000E+00  9.000E+00
      25     1     1     2     0     0 -6.443635149E+01 -1.694936301E+02 -1.110347504E+03  1.131979114E+03  1.250000000E+02  0.00000E+00  9.000E+00
      21     1     1     2   512   502 -2.358683971E+01  8.710797451E+01 -2.035966068E+02  2.227009576E+02  4.672030912E-06  0.00000E+00  9.000E+00
#rwgt            1           1   3.2897076895919697E-002           3      454185           0
</event>
<event>
      5   9999  3.79277E-02  9.41330E+01 -1.00000E+00  1.25021E-01
      21    -1     0     0   502   501  0.000000000E+00  0.000000000E+00  2.185710427E+02  2.185710427E+02  0.000000000E+00  0.00000E+00  9.000E+00
      21    -1     0     0   501   511  0.000000000E+00  0.000000000E+00 -3.833836694E+02  3.833836694E+02  0.000000000E+00  0.00000E+00  9.000E+00
      25     1     1     2     0     0  1.118589221E+02 -2.035208392E+01  7.955883327E+01  1.867651834E+02  1.250000000E+02  0.00000E+00  9.000E+00
      25     1     1     2     0     0 -1.679957163E+02  9.591453113E+01 -1.214937062E+02  2.603994597E+02  1.250000000E+02  0.00000E+00  9.000E+00
      21     1     1     2   502   511  5.613679420E+01 -7.556244722E+01 -1.228777537E+02  1.547900690E+02  1.348699152E-06  0.00000E+00  9.000E+00
#rwgt            1           1   3.7837704671756033E-002           3      454346           0
</event>
<event>
      5   9999  3.79277E-02  2.97728E+01 -1.00000E+00  1.53270E-01
      21    -1     0     0   502   501  0.000000000E+00  0.000000000E+00  1.033161510E+03  1.033161510E+03  0.000000000E+00  0.00000E+00  9.000E+00
      -2    -1     0     0     0   502  0.000000000E+00  0.000000000E+00 -8.857158943E+01  8.857158943E+01  0.000000000E+00  0.00000E+00  9.000E+00
      25     1     1     2     0     0  1.312940048E+02  8.509225661E+01  5.673290809E+02  6.016361807E+02  1.250000000E+02  0.00000E+00  9.000E+00
      25     1     1     2     0     0 -1.557799575E+02 -6.815543352E+01  4.188128736E+02  4.689795106E+02  1.250000000E+02  0.00000E+00  9.000E+00
      -2     1     1     2     0   501  2.448595273E+01 -1.693682309E+01 -4.155203412E+01  5.111740796E+01  1.430511475E-06  0.00000E+00  9.000E+00
#rwgt            1           1   4.5315970562813300E-002           3      454508           0
</event>
<event>
      5   9999  3.79277E-02  6.17563E+01 -1.00000E+00  1.34037E-01
      -1    -1     0     0     0   501  0.000000000E+00  0.000000000E+00  1.091101570E+02  1.091101570E+02  0.000000000E+00  0.00000E+00  9.000E+00
      21    -1     0     0   501   502  0.000000000E+00  0.000000000E+00 -6.338674156E+02  6.338674156E+02  0.000000000E+00  0.00000E+00  9.000E+00
      25     1     1     2     0     0 -6.489046396E+01  8.044445207E+01 -5.923914089E+01  1.726741382E+02  1.250000000E+02  0.00000E+00  9.000E+00
      25     1     1     2     0     0  7.840687618E+01 -2.018543154E+01 -4.835526929E+02  5.059676834E+02  1.250000000E+02  0.00000E+00  9.000E+00
      -1     1     1     2     0   502 -1.351641221E+01 -6.025902053E+01  1.803457510E+01  6.433575098E+01  1.011524364E-06  0.00000E+00  9.000E+00
#rwgt            1           1   4.4066213332049402E-002           3      454623           0
</event>
<event>
      5   9999  3.79277E-02  1.01927E+02 -1.00000E+00  1.23456E-01
      21    -1     0     0   511   501  0.000000000E+00  0.000000000E+00  1.417565720E+03  1.417565720E+03  0.000000000E+00  0.00000E+00  9.000E+00
      21    -1     0     0   501   502  0.000000000E+00  0.000000000E+00 -1.354180661E+02  1.354180661E+02  0.000000000E+00  0.00000E+00  9.000E+00
      25     1     1     2     0     0  4.279996992E+01  3.997402168E+01  4.520821539E+02  4.726870357E+02  1.250000000E+02  0.00000E+00  9.000E+00
      25     1     1     2     0     0 -1.266791716E+02 -9.788319956E+01 -3.768829746E+01  2.065772036E+02  1.250000000E+02  0.00000E+00  9.000E+00
      21     1     1     2   511   502  8.387920170E+01  5.790917788E+01  8.677537977E+02  8.737195470E+02  0.000000000E+00  0.00000E+00  9.000E+00
#rwgt            1           1   4.4274791337343196E-002           3      454724           0
</event>
<event>
      5   9999  3.79277E-02  7.23359E+01 -1.00000E+00  1.30503E-01
      21    -1     0     0   502   512  0.000000000E+00  0.000000000E+00  3.259517931E+02  3.259517931E+02  0.000000000E+00  0.00000E+00  9.000E+00
      21    -1     0     0   501   502  0.000000000E+00  0.000000000E+00 -2.017007770E+02  2.017007770E+02  0.000000000E+00  0.00000E+00  9.000E+00
      25     1     1     2     0     0 -9.740503837E+01 -8.497096975E-01  4.208159443E+01  1.639643989E+02  1.250000000E+02  0.00000E+00  9.000E+00
      25     1     1     2     0     0  1.289710317E+02 -6.423538025E+01 -6.350625186E+01  2.010416751E+02  1.250000000E+02  0.00000E+00  9.000E+00
      21     1     1     2   501   512 -3.156599328E+01  6.508508994E+01  1.456756735E+02  1.626464962E+02  1.907348633E-06  0.00000E+00  9.000E+00
#rwgt            1           1   4.4649135480440513E-002           3      454919           0
</event>
<event>
      5   9999  3.79277E-02  3.17071E+01 -1.00000E+00  1.51389E-01
      21    -1     0     0   502   511  0.000000000E+00  0.000000000E+00  1.059427323E+02  1.059427323E+02  0.000000000E+00  0.00000E+00  9.000E+00
      21    -1     0     0   501   502  0.000000000E+00  0.000000000E+00 -3.431246711E+02  3.431246711E+02  0.000000000E+00  0.00000E+00  9.000E+00
      25     1     1     2     0     0  4.176624404E+01 -8.268894946E+01 -7.409067073E+01  1.723261704E+02  1.250000000E+02  0.00000E+00  9.000E+00
      25     1     1     2     0     0 -3.614433408E+01  1.138936390E+02 -1.719039899E+02  2.438322284E+02  1.250000000E+02  0.00000E+00  9.000E+00
      21     1     1     2   501   511 -5.621909963E+00 -3.120468950E+01  8.812721844E+00  3.290900461E+01  5.717076687E-07  0.00000E+00  9.000E+00
#rwgt            1           1   3.6302755699256027E-002           3      455042           0
</event>
<event>
      5   9999  3.79277E-02  1.07198E+02 -1.00000E+00  1.22485E-01
      21    -1     0     0   502   501  0.000000000E+00  0.000000000E+00  1.372057755E+03  1.372057755E+03  0.000000000E+00  0.00000E+00  9.000E+00
      21    -1     0     0   501   512  0.000000000E+00  0.000000000E+00 -5.170765963E+01  5.170765963E+01  0.000000000E+00  0.00000E+00  9.000E+00
      25     1     1     2     0     0  9.624574523E+00 -7.086380627E+01  1.060544681E+03  1.070277690E+03  1.250000000E+02  0.00000E+00  9.000E+00
      25     1     1     2     0     0  3.303944003E+01 -2.747818368E+01  1.343585659E+02  1.884777955E+02  1.250000000E+02  0.00000E+00  9.000E+00
      21     1     1     2   502   512 -4.266401455E+01  9.834198995E+01  1.254468475E+02  1.650099290E+02  2.697398305E-06  0.00000E+00  9.000E+00
#rwgt            1           1   6.1686744631795666E-002           3      455130           0
</event>
<event>
      5   9999  3.79277E-02  8.83056E+01 -1.00000E+00  1.26307E-01
      21    -1     0     0   502   501  0.000000000E+00  0.000000000E+00  1.517266918E+02  1.517266918E+02  0.000000000E+00  0.00000E+00  9.000E+00
      21    -1     0     0   501   511  0.000000000E+00  0.000000000E+00 -1.571143685E+03  1.571143685E+03  0.000000000E+00  0.00000E+00  9.000E+00
      25     1     1     2     0     0 -1.996497861E+02 -2.458583689E+02 -2.765993116E+02  4.386781894E+02  1.250000000E+02  0.00000E+00  9.000E+00
      25     1     1     2     0     0  1.133223493E+02  2.272719107E+02 -2.235305083E+02  3.606734872E+02  1.250000000E+02  0.00000E+00  9.000E+00
      21     1     1     2   502   511  8.632743686E+01  1.858645818E+01 -9.192871735E+02  9.235187005E+02  2.157918644E-05  0.00000E+00  9.000E+00
#rwgt            1           1   3.4829689809143000E-002           3      455336           0
</event>
<event>
      5   9999  3.79277E-02  5.41821E+01 -1.00000E+00  1.37114E-01
      21    -1     0     0   502   501  0.000000000E+00  0.000000000E+00  1.088734827E+02  1.088734827E+02  0.000000000E+00  0.00000E+00  9.000E+00
      21    -1     0     0   512   502  0.000000000E+00  0.000000000E+00 -9.564528224E+02  9.564528224E+02  0.000000000E+00  0.00000E+00  9.000E+00
      25     1     1     2     0     0 -1.233051861E+02 -1.516841694E+02 -3.104287567E+02  3.875606651E+02  1.250000000E+02  0.00000E+00  9.000E+00
      25     1     1     2     0     0  1.547490550E+02  1.075595947E+02 -1.179083128E+02  2.550366771E+02  1.250000000E+02  0.00000E+00  9.000E+00
      21     1     1     2   512   501 -3.144386890E+01  4.412457473E+01 -4.192422701E+02  4.227289629E+02  5.394796609E-06  0.00000E+00  9.000E+00
#rwgt            1           1   4.3425310018522956E-002           3      455419           0
</event>
<event>
      5   9999  3.79277E-02  1.95141E+01 -1.00000E+00  1.67255E-01
      21    -1     0     0   511   501  0.000000000E+00  0.000000000E+00  1.202926550E+02  1.202926550E+02  0.000000000E+00  0.00000E+00  9.000E+00
      21    -1     0     0   501   502  0.000000000E+00  0.000000000E+00 -5.132076813E+02  5.132076813E+02  0.000000000E+00  0.00000E+00  9.000E+00
      25     1     1     2     0     0  1.682204448E+02  2.604481811E+01 -3.574181055E+02  4.151495547E+02  1.250000000E+02  0.00000E+00  9.000E+00
      25     1     1     2     0     0 -1.487283014E+02 -2.511888400E+01 -3.338878749E+01  1.987231167E+02  1.250000000E+02  0.00000E+00  9.000E+00
      21     1     1     2   511   502 -1.949214334E+01 -9.259341098E-01 -2.108133284E+00  1.962766496E+01  3.345302391E-07  0.00000E+00  9.000E+00
#rwgt            1           1   3.4220908343056008E-002           3      455505           0
</event>
<event>
      5   9999  3.79277E-02  1.07496E+02 -1.00000E+00  1.22432E-01
      21    -1     0     0   502   501  0.000000000E+00  0.000000000E+00  1.383844085E+03  1.383844085E+03  0.000000000E+00  0.00000E+00  9.000E+00
      21    -1     0     0   501   512  0.000000000E+00  0.000000000E+00 -9.903958220E+01  9.903958220E+01  0.000000000E+00  0.00000E+00  9.000E+00
      25     1     1     2     0     0  2.097371390E+02  4.038178097E+01  5.074082656E+02  5.645427386E+02  1.250000000E+02  0.00000E+00  9.000E+00
      25     1     1     2     0     0 -1.979296062E+02  6.646386160E+01  7.733884331E+02  8.107701538E+02  1.250000000E+02  0.00000E+00  9.000E+00
      21     1     1     2   502   512 -1.180753279E+01 -1.068456426E+02  4.007804469E+00  1.075707751E+02  9.848303581E-07  0.00000E+00  9.000E+00
#rwgt            1           1   3.1716916102776507E-002           3      455817           0
</event>
<event>
      5   9999  3.79277E-02  2.42467E+01 -1.00000E+00  1.59753E-01
      21    -1     0     0   502   501  0.000000000E+00  0.000000000E+00  3.329852024E+02  3.329852024E+02  0.000000000E+00  0.00000E+00  9.000E+00
       2    -1     0     0   501     0  0.000000000E+00  0.000000000E+00 -1.998198955E+02  1.998198955E+02  0.000000000E+00  0.00000E+00  9.000E+00
      25     1     1     2     0     0  3.520791388E+01 -2.630591922E+01 -4.670868904E+01  1.404930611E+02  1.250000000E+02  0.00000E+00  9.000E+00
      25     1     1     2     0     0 -5.745579007E+01  3.594622403E+01  2.666604892E+02  3.022021101E+02  1.250000000E+02  0.00000E+00  9.000E+00
       2     1     1     2   502     0  2.224787619E+01 -9.640304813E+00 -8.678649327E+01  9.010992668E+01  1.348699152E-06  0.00000E+00  9.000E+00
#rwgt            1           1   2.9029276363093236E-002           3      455883           0
</event>
<event>
      5   9999  3.79277E-02  3.29595E+01 -1.00000E+00  1.50255E-01
      21    -1     0     0   502   501  0.000000000E+00  0.000000000E+00  1.009028052E+03  1.009028052E+03  0.000000000E+00  0.00000E+00  9.000E+00
      21    -1     0     0   501   511  0.000000000E+00  0.000000000E+00 -1.488159223E+02  1.488159223E+02  0.000000000E+00  0.00000E+00  9.000E+00
      25     1     1     2     0     0 -1.218367946E+02  6.343873393E+01  6.529079734E+02  6.788096193E+02  1.250000000E+02  0.00000E+00  9.000E+00
      25     1     1     2     0     0  1.509971572E+02 -7.880119365E+01  3.077668871E+02  3.733031294E+02  1.250000000E+02  0.00000E+00  9.000E+00
      21     1     1     2   502   511 -2.916036260E+01  1.536245973E+01 -1.004627305E+02  1.057312259E+02  1.907348633E-06  0.00000E+00  9.000E+00
#rwgt            1           1   4.4791090415623423E-002           3      456036           0
</event>
<event>
      5   9999  3.79277E-02  8.37584E+01 -1.00000E+00  1.27392E-01
      21    -1     0     0   502   501  0.000000000E+00  0.000000000E+00  8.691450869E+02  8.691450869E+02  0.000000000E+00  0.00000E+00  9.000E+00
      21    -1     0     0   501   512  0.000000000E+00  0.000000000E+00 -1.630228718E+02  1.630228718E+02  0.000000000E+00  0.00000E+00  9.000E+00
      25     1     1     2     0     0 -1.178698701E+01  8.350318058E+01  1.422828206E+02  2.073188734E+02  1.250000000E+02  0.00000E+00  9.000E+00
      25     1     1     2     0     0  8.639754349E+01 -1.215653735E+02  6.653621251E+02  6.932347605E+02  1.250000000E+02  0.00000E+00  9.000E+00
      21     1     1     2   502   512 -7.461055647E+01  3.806219288E+01 -1.015227306E+02  1.316143248E+02  1.348699152E-06  0.00000E+00  9.000E+00
#rwgt            1           1   3.0639965221927995E-002           3      456136           0
</event>
<event>
      5   9999  3.79277E-02  2.22465E+01 -1.00000E+00  1.62643E-01
      21    -1     0     0   502   501  0.000000000E+00  0.000000000E+00  1.173520698E+03  1.173520698E+03  0.000000000E+00  0.00000E+00  9.000E+00
      21    -1     0     0   511   502  0.000000000E+00  0.000000000E+00 -5.571649424E+01  5.571649424E+01  0.000000000E+00  0.00000E+00  9.000E+00
      25     1     1     2     0     0  8.383991230E+01  1.774769110E+02  6.880344780E+02  7.263219862E+02  1.250000000E+02  0.00000E+00  9.000E+00
      25     1     1     2     0     0 -6.454969668E+01 -1.885581584E+02  4.120269984E+02  4.744597874E+02  1.250000000E+02  0.00000E+00  9.000E+00
      21     1     1     2   511   501 -1.929021562E+01  1.108124749E+01  1.774272707E+01  2.845541826E+01  4.768371582E-07  0.00000E+00  9.000E+00
#rwgt            1           1   3.4525675512457860E-002           3      456410           0
</event>
<event>
      5   9999  3.79277E-02  2.67795E+01 -1.00000E+00  1.56546E-01
      21    -1     0     0   502   501  0.000000000E+00  0.000000000E+00  2.052823227E+02  2.052823227E+02  0.000000000E+00  0.00000E+00  9.000E+00
      21    -1     0     0   501   512  0.000000000E+00  0.000000000E+00 -4.212896927E+02  4.212896927E+02  0.000000000E+00  0.00000E+00  9.000E+00
      25     1     1     2     0     0  1.897594659E+02 -8.275034876E+01  3.089987376E+01  2.437951544E+02  1.250000000E+02  0.00000E+00  9.000E+00
      25     1     1     2     0     0 -1.894162282E+02  1.095276976E+02 -1.770752694E+02  3.079861605E+02  1.250000000E+02  0.00000E+00  9.000E+00
      21     1     1     2   502   512 -3.432376957E-01 -2.677734879E+01 -6.983197442E+01  7.479070043E+01  1.348699152E-06  0.00000E+00  9.000E+00
#rwgt            1           1   4.3255963552752380E-002           3      456681           0
</event>
<event>
      5   9999  3.79277E-02  5.63083E+01 -1.00000E+00  1.36194E-01
      21    -1     0     0   502   501  0.000000000E+00  0.000000000E+00  2.494507721E+02  2.494507721E+02  0.000000000E+00  0.00000E+00  9.000E+00
       1    -1     0     0   501     0  0.000000000E+00  0.000000000E+00 -2.849064821E+02  2.849064821E+02  0.000000000E+00  0.00000E+00  9.000E+00
      25     1     1     2     0     0 -8.504799692E+01  1.089425534E+02  1.421196118E+02  2.343600345E+02  1.250000000E+02  0.00000E+00  9.000E+00
      25     1     1     2     0     0  3.291690337E+01 -1.302257033E+02 -1.514811236E+02  2.379365191E+02  1.250000000E+02  0.00000E+00  9.000E+00
       1     1     1     2   502     0  5.213109355E+01  2.128314987E+01 -2.609419821E+01  6.206070064E+01  0.000000000E+00  0.00000E+00  9.000E+00
#rwgt            1           1   5.1481529161916235E-002           3      456841           0
</event>
<event>
      5   9999  3.79277E-02  1.21889E+02 -1.00000E+00  1.20081E-01
      21    -1     0     0   502   501  0.000000000E+00  0.000000000E+00  2.305866870E+02  2.305866870E+02  0.000000000E+00  0.00000E+00  9.000E+00
      21    -1     0     0   511   502  0.000000000E+00  0.000000000E+00 -3.933442922E+02  3.933442922E+02  0.000000000E+00  0.00000E+00  9.000E+00
      25     1     1     2     0     0  9.039539098E+00  2.266490470E+02  4.658549716E+01  2.631477006E+02  1.250000000E+02  0.00000E+00  9.000E+00
      25     1     1     2     0     0  6.514587307E+00 -1.057561875E+02 -1.608001208E+02  2.295832962E+02  1.250000000E+02  0.00000E+00  9.000E+00
      21     1     1     2   511   501 -1.555412641E+01 -1.208928595E+02 -4.854298158E+01  1.311999824E+02  1.651812370E-06  0.00000E+00  9.000E+00
#rwgt            1           1   4.0842032388034723E-002           3      456954           0
</event>
<event>
      5   9999  3.79277E-02  5.28389E+01 -1.00000E+00  1.37721E-01
      21    -1     0     0   502   501  0.000000000E+00  0.000000000E+00  9.345811684E+02  9.345811684E+02  0.000000000E+00  0.00000E+00  9.000E+00
      21    -1     0     0   512   502  0.000000000E+00  0.000000000E+00 -8.883666192E+01  8.883666192E+01  0.000000000E+00  0.00000E+00  9.000E+00
      25     1     1     2     0     0  7.896702378E+01 -1.741560219E+02  3.693073853E+02  4.342569005E+02  1.250000000E+02  0.00000E+00  9.000E+00
      25     1     1     2     0     0 -1.317310283E+02  1.713430923E+02  4.746278005E+02  5.362910293E+02  1.250000000E+02  0.00000E+00  9.000E+00
      21     1     1     2   512   501  5.276400448E+01  2.812929554E+00  1.809320698E+00  5.286990053E+01  9.882065434E-07  0.00000E+00  9.000E+00
#rwgt            1           1   3.2923550639119628E-002           3      457032           0
</event>
<event>
      5   9999  3.79277E-02  1.02133E+01 -1.00000E+00  1.94703E-01
      21    -1     0     0   502   501  0.000000000E+00  0.000000000E+00  9.784987175E+02  9.784987175E+02  0.000000000E+00  0.00000E+00  9.000E+00
      21    -1     0     0   511   502  0.000000000E+00  0.000000000E+00 -1.696478311E+02  1.696478311E+02  0.000000000E+00  0.00000E+00  9.000E+00
      25     1     1     2     0     0  1.305833072E+02 -5.687939476E+01  3.701343395E+02  4.158265203E+02  1.250000000E+02  0.00000E+00  9.000E+00
      25     1     1     2     0     0 -1.382575761E+02  5.014017207E+01  5.694071346E+02  6.012309699E+02  1.250000000E+02  0.00000E+00  9.000E+00
      21     1     1     2   511   501  7.674268892E+00  6.739222685E+00 -1.306905877E+02  1.310890584E+02  2.697398305E-06  0.00000E+00  9.000E+00
#rwgt            1           1   3.9190559331846543E-002           3      457094           0
</event>
<event>
      5   9999  3.79277E-02  1.01328E+02 -1.00000E+00  1.23571E-01
      21    -1     0     0   502   512  0.000000000E+00  0.000000000E+00  5.185360363E+02  5.185360363E+02  0.000000000E+00  0.00000E+00  9.000E+00
      21    -1     0     0   501   502  0.000000000E+00  0.000000000E+00 -1.929476050E+02  1.929476050E+02  0.000000000E+00  0.00000E+00  9.000E+00
      25     1     1     2     0     0  7.016233022E+01 -1.479655718E+02 -5.529865799E+01  2.133061289E+02  1.250000000E+02  0.00000E+00  9.000E+00
      25     1     1     2     0     0  3.059626336E+01  1.372374929E+02  1.330574458E+02  2.304333845E+02  1.250000000E+02  0.00000E+00  9.000E+00
      21     1     1     2   501   512 -1.007585936E+02  1.072807892E+01  2.478296435E+02  2.677441280E+02  3.814697266E-06  0.00000E+00  9.000E+00
#rwgt            1           1   4.7309494332595209E-002           3      457415           0
</event>
<event>
      5   9999  3.79277E-02  2.50085E+01 -1.00000E+00  1.58740E-01
      21    -1     0     0   502   501  0.000000000E+00  0.000000000E+00  3.885815374E+01  3.885815374E+01  0.000000000E+00  0.00000E+00  9.000E+00
      21    -1     0     0   511   502  0.000000000E+00  0.000000000E+00 -1.565336937E+03  1.565336937E+03  0.000000000E+00  0.00000E+00  9.000E+00
      25     1     1     2     0     0  9.928750518E+01  4.653968407E+01 -7.131777081E+02  7.323055334E+02  1.250000000E+02  0.00000E+00  9.000E+00
      25     1     1     2     0     0 -1.122028075E+02 -6.795513728E+01 -2.538775966E+02  3.119073657E+02  1.250000000E+02  0.00000E+00  9.000E+00
      21     1     1     2   511   501  1.291530237E+01  2.141545321E+01 -5.594234786E+02  5.599821918E+02  7.629394531E-06  0.00000E+00  9.000E+00
#rwgt            1           1   5.2287502829540228E-002           3      457467           0
</event>
<event>
      5   9999  3.79277E-02  1.53177E+01 -1.00000E+00  1.76530E-01
      21    -1     0     0   502   501  0.000000000E+00  0.000000000E+00  4.897655629E+02  4.897655629E+02  0.000000000E+00  0.00000E+00  9.000E+00
      21    -1     0     0   501   512  0.000000000E+00  0.000000000E+00 -4.038695335E+02  4.038695335E+02  0.000000000E+00  0.00000E+00  9.000E+00
      25     1     1     2     0     0 -1.119454602E+02 -6.343452042E+00  3.286832345E+02  3.690930697E+02  1.250000000E+02  0.00000E+00  9.000E+00
      25     1     1     2     0     0  1.162380557E+02  2.104741265E+01  8.814299309E+01  1.932575132E+02  1.250000000E+02  0.00000E+00  9.000E+00
      21     1     1     2   502   512 -4.292595560E+00 -1.470396061E+01 -3.309301982E+02  3.312845135E+02  5.394796609E-06  0.00000E+00  9.000E+00
#rwgt            1           1   3.8625277688916430E-002           3      457582           0
</event>
<event>
      5   9999  3.79277E-02  4.39780E+01 -1.00000E+00  1.42332E-01
      21    -1     0     0   502   511  0.000000000E+00  0.000000000E+00  9.547750410E+02  9.547750410E+02  0.000000000E+00  0.00000E+00  9.000E+00
      21    -1     0     0   501   502  0.000000000E+00  0.000000000E+00 -1.419807578E+03  1.419807578E+03  0.000000000E+00  0.00000E+00  9.000E+00
      25     1     1     2     0     0  5.196173207E+01 -1.343194870E+02 -2.349651922E+02  3.026142557E+02  1.250000000E+02  0.00000E+00  9.000E+00
      25     1     1     2     0     0 -6.094161613E+01  1.773709584E+02 -1.139447801E+03  1.161525130E+03  1.250000000E+02  0.00000E+00  9.000E+00
      21     1     1     2   501   511  8.979884058E+00 -4.305147133E+01  9.093804558E+02  9.104432332E+02  1.868812365E-05  0.00000E+00  9.000E+00
#rwgt            1           1   3.6742229535708652E-002           3      457808           0
</event>
<event>
      5   9999  3.79277E-02  6.00448E+01 -1.00000E+00  1.34686E-01
       2    -1     0     0   502     0  0.000000000E+00  0.000000000E+00  5.842543126E+02  5.842543126E+02  0.000000000E+00  0.00000E+00  9.000E+00
      21    -1     0     0   501   502  0.000000000E+00  0.000000000E+00 -9.602121862E+01  9.602121862E+01  0.000000000E+00  0.00000E+00  9.000E+00
      25     1     1     2     0     0 -1.312156277E+02 -5.495214279E+01  2.365982768E+02  3.030528395E+02  1.250000000E+02  0.00000E+00  9.000E+00
      25     1     1     2     0     0  1.198706803E+02  1.139154140E+02  1.390012090E+02  2.495837288E+02  1.250000000E+02  0.00000E+00  9.000E+00
       2     1     1     2   501     0  1.134494736E+01 -5.896327119E+01  1.126336081E+02  1.276389629E+02  1.348699152E-06  0.00000E+00  9.000E+00
#rwgt            1           1  0.13485763168084308                3      457925           0
</event>
<event>
      5   9999  3.79277E-02  1.56794E+01 -1.00000E+00  1.75590E-01
      21    -1     0     0   502   501  0.000000000E+00  0.000000000E+00  9.265846948E+02  9.265846948E+02  0.000000000E+00  0.00000E+00  9.000E+00
      21    -1     0     0   511   502  0.000000000E+00  0.000000000E+00 -1.311047761E+02  1.311047761E+02  0.000000000E+00  0.00000E+00  9.000E+00
      25     1     1     2     0     0  2.958441915E+02 -2.789524265E+01  4.256369501E+02  5.339417042E+02  1.250000000E+02  0.00000E+00  9.000E+00
      25     1     1     2     0     0 -2.837835893E+02  3.791450748E+01  3.890494158E+02  4.989539892E+02  1.250000000E+02  0.00000E+00  9.000E+00
      21     1     1     2   511   501 -1.206060213E+01 -1.001926483E+01 -1.920644716E+01  2.479377753E+01  9.233911863E-07  0.00000E+00  9.000E+00
#rwgt            1           1   3.1027807833045293E-002           3      458051           0
</event>
<event>
      5   9999  3.79277E-02  5.95976E+01 -1.00000E+00  1.34860E-01
      21    -1     0     0   502   501  0.000000000E+00  0.000000000E+00  2.283688487E+02  2.283688487E+02  0.000000000E+00  0.00000E+00  9.000E+00
      21    -1     0     0   512   502  0.000000000E+00  0.000000000E+00 -3.184960615E+02  3.184960615E+02  0.000000000E+00  0.00000E+00  9.000E+00
      25     1     1     2     0     0  2.473165171E+01 -1.273322266E+02  2.162370875E+01  1.814324539E+02  1.250000000E+02  0.00000E+00  9.000E+00
      25     1     1     2     0     0  3.460850717E+01  1.217984907E+02  5.670617444E+01  1.867437049E+02  1.250000000E+02  0.00000E+00  9.000E+00
      21     1     1     2   512   501 -5.934015888E+01  5.533735974E+00 -1.684570960E+02  1.786887514E+02  2.697398305E-06  0.00000E+00  9.000E+00
#rwgt            1           1   3.6056275890752852E-002           3      458347           0
</event>
<event>
      5   9999  3.79277E-02  1.09038E+02 -1.00000E+00  1.22161E-01
      21    -1     0     0   502   511  0.000000000E+00  0.000000000E+00  1.292960478E+02  1.292960478E+02  0.000000000E+00  0.00000E+00  9.000E+00
      21    -1     0     0   501   502  0.000000000E+00  0.000000000E+00 -1.315821542E+03  1.315821542E+03  0.000000000E+00  0.00000E+00  9.000E+00
      25     1     1     2     0     0  5.702160226E+00  1.934094097E+02 -4.628593548E+02  5.170140199E+02  1.250000000E+02  0.00000E+00  9.000E+00
      25     1     1     2     0     0 -9.476611434E+01 -2.563135723E+02 -7.566888112E+02  8.141745640E+02  1.250000000E+02  0.00000E+00  9.000E+00
      21     1     1     2   501   511  8.906395411E+01  6.290416260E+01  3.302267164E+01  1.139290061E+02  2.384185791E-06  0.00000E+00  9.000E+00
#rwgt            1           1   1.3329962857166259E-002           3      458511           0
</event>
<event>
      5   9999  3.79277E-02  5.27017E+01 -1.00000E+00  1.37784E-01
      21    -1     0     0   502   512  0.000000000E+00  0.000000000E+00  4.264680131E+02  4.264680131E+02  0.000000000E+00  0.00000E+00  9.000E+00
      21    -1     0     0   501   502  0.000000000E+00  0.000000000E+00 -2.340329621E+02  2.340329621E+02  0.000000000E+00  0.00000E+00  9.000E+00
      25     1     1     2     0     0  1.042829583E+02 -8.251738008E+01 -1.525258017E+02  2.378511585E+02  1.250000000E+02  0.00000E+00  9.000E+00
      25     1     1     2     0     0 -1.386423601E+02  4.255611683E+01  2.673741249E+02  3.288565793E+02  1.250000000E+02  0.00000E+00  9.000E+00
      21     1     1     2   501   512  3.435940183E+01  3.996126325E+01  7.758672774E+01  9.379323737E+01  0.000000000E+00  0.00000E+00  9.000E+00
#rwgt            1           1   2.5933427494651051E-002           3      458577           0
</event>
<event>
      5   9999  3.79277E-02  9.04633E+01 -1.00000E+00  1.25818E-01
      21    -1     0     0   502   501  0.000000000E+00  0.000000000E+00  4.228072505E+02  4.228072505E+02  0.000000000E+00  0.00000E+00  9.000E+00
      21    -1     0     0   501   511  0.000000000E+00  0.000000000E+00 -5.141904168E+02  5.141904168E+02  0.000000000E+00  0.00000E+00  9.000E+00
      25     1     1     2     0     0 -5.481424998E+01 -1.144018702E+02  2.931743702E+02  3.430285721E+02  1.250000000E+02  0.00000E+00  9.000E+00
      25     1     1     2     0     0 -2.649571890E+01  1.540539857E+02 -1.272501309E+00  2.001531236E+02  1.250000000E+02  0.00000E+00  9.000E+00
      21     1     1     2   502   511  8.130996888E+01 -3.965211550E+01 -3.832850352E+02  3.938159716E+02  0.000000000E+00  0.00000E+00  9.000E+00
#rwgt            1           1   3.1927993648960075E-002           3      458703           0
</event>
<event>
      5   9999  3.79277E-02  7.27943E+01 -1.00000E+00  1.30365E-01
      21    -1     0     0   502   501  0.000000000E+00  0.000000000E+00  5.137985458E+01  5.137985458E+01  0.000000000E+00  0.00000E+00  9.000E+00
      21    -1     0     0   501   512  0.000000000E+00  0.000000000E+00 -1.863603777E+03  1.863603777E+03  0.000000000E+00  0.00000E+00  9.000E+00
      25     1     1     2     0     0 -1.674168195E+02 -9.151821370E+00 -2.354326499E+02  3.149058271E+02  1.250000000E+02  0.00000E+00  9.000E+00
      25     1     1     2     0     0  1.233810607E+02 -4.881252369E+01 -8.319235455E+02  8.516615139E+02  1.250000000E+02  0.00000E+00  9.000E+00
      21     1     1     2   502   512  4.403575877E+01  5.796434506E+01 -7.448677268E+02  7.484162904E+02  0.000000000E+00  0.00000E+00  9.000E+00
#rwgt            1           1   3.7255306114521457E-002           3      458866           0
</event>
<event>
      5   9999  3.79277E-02  2.32196E+01 -1.00000E+00  1.61192E-01
      21    -1     0     0   502   501  0.000000000E+00  0.000000000E+00  1.699395230E+03  1.699395230E+03  0.000000000E+00  0.00000E+00  9.000E+00
      21    -1     0     0   511   502  0.000000000E+00  0.000000000E+00 -3.022154484E+01  3.022154484E+01  0.000000000E+00  0.00000E+00  9.000E+00
      25     1     1     2     0     0  4.450756640E+01 -1.510015668E+02  7.548816555E+02  7.811873721E+02  1.250000000E+02  0.00000E+00  9.000E+00
      25     1     1     2     0     0 -2.681004412E+01  1.359699669E+02  9.039420469E+02  9.230074943E+02  1.250000000E+02  0.00000E+00  9.000E+00
      21     1     1     2   511   501 -1.769752228E+01  1.503159992E+01  1.034998307E+01  2.542190868E+01  5.717076687E-07  0.00000E+00  9.000E+00
#rwgt            1           1   3.1392384364631758E-002           3      458945           0
</event>
<event>
      5   9999  3.79277E-02  1.26941E+02 -1.00000E+00  1.19341E-01
      21    -1     0     0   512   501  0.000000000E+00  0.000000000E+00  3.850697532E+02  3.850697532E+02  0.000000000E+00  0.00000E+00  9.000E+00
      21    -1     0     0   501   502  0.000000000E+00  0.000000000E+00 -5.140795248E+02  5.140795248E+02  0.000000000E+00  0.00000E+00  9.000E+00
      25     1     1     2     0     0  2.335415087E+02  1.468297999E+02 -2.839524772E+02  4.151561582E+02  1.250000000E+02  0.00000E+00  9.000E+00
      25     1     1     2     0     0 -1.344697325E+02 -6.746473067E+01 -8.443147189E+01  2.130428884E+02  1.250000000E+02  0.00000E+00  9.000E+00
      21     1     1     2   512   502 -9.907177618E+01 -7.936506922E+01  2.393741775E+02  2.709502314E+02  2.697398305E-06  0.00000E+00  9.000E+00
#rwgt            1           1   3.4456925257138477E-002           3      459102           0
</event>
<event>
      5   9999  3.79277E-02  2.06434E+02 -1.00000E+00  1.11150E-01
       2    -1     0     0   502     0  0.000000000E+00  0.000000000E+00  3.753810358E+02  3.753810358E+02  0.000000000E+00  0.00000E+00  9.000E+00
      21    -1     0     0   501   502  0.000000000E+00  0.000000000E+00 -2.897739337E+02  2.897739337E+02  0.000000000E+00  0.00000E+00  9.000E+00
      25     1     1     2     0     0 -2.937303046E+01  5.956533915E+01  6.115843212E+01  1.541951957E+02  1.250000000E+02  0.00000E+00  9.000E+00
      25     1     1     2     0     0  1.587627656E+02  1.012869285E+02 -1.229476374E+02  2.573048370E+02  1.250000000E+02  0.00000E+00  9.000E+00
       2     1     1     2   501     0 -1.293897351E+02 -1.608522677E+02  1.473963074E+02  2.536549369E+02  3.814697266E-06  0.00000E+00  9.000E+00
#rwgt            1           1   4.1366386343016905E-002           3      459209           0
</event>
<event>
      5   9999  3.79277E-02  6.15285E+01 -1.00000E+00  1.34122E-01
      21    -1     0     0   502   501  0.000000000E+00  0.000000000E+00  3.115848041E+02  3.115848041E+02  0.000000000E+00  0.00000E+00  9.000E+00
      21    -1     0     0   501   511  0.000000000E+00  0.000000000E+00 -9.336332552E+02  9.336332552E+02  0.000000000E+00  0.00000E+00  9.000E+00
      25     1     1     2     0     0 -1.102052985E+02  1.966185593E+02  9.854830152E+01  2.759362850E+02  1.250000000E+02  0.00000E+00  9.000E+00
      25     1     1     2     0     0  8.958864866E+01 -1.386468748E+02  3.601756177E+01  2.101698042E+02  1.250000000E+02  0.00000E+00  9.000E+00
      21     1     1     2   502   511  2.061664979E+01 -5.797168450E+01 -7.566143143E+02  7.591119701E+02  1.525878906E-05  0.00000E+00  9.000E+00
#rwgt            1           1   3.5395929609321641E-002           3      459315           0
</event>
<event>
      5   9999  3.79277E-02  2.03124E+01 -1.00000E+00  1.65816E-01
      21    -1     0     0   512   501  0.000000000E+00  0.000000000E+00  5.381375347E+01  5.381375347E+01  0.000000000E+00  0.00000E+00  9.000E+00
      21    -1     0     0   501   502  0.000000000E+00  0.000000000E+00 -1.147143214E+03  1.147143214E+03  0.000000000E+00  0.00000E+00  9.000E+00
      25     1     1     2     0     0 -1.402018169E+02 -5.590632112E+01 -8.706174266E+02  8.924022466E+02  1.250000000E+02  0.00000E+00  9.000E+00
      25     1     1     2     0     0  1.314218615E+02  3.758949142E+01 -2.207212240E+02  2.881449883E+02  1.250000000E+02  0.00000E+00  9.000E+00
      21     1     1     2   512   502  8.779955438E+00  1.831682970E+01 -1.990810088E+00  2.040973279E+01  2.811545471E-07  0.00000E+00  9.000E+00
#rwgt            1           1   2.3257711831704376E-002           3      459445           0
</event>
<event>
      5   9999  3.79277E-02  1.27024E+02 -1.00000E+00  1.19329E-01
      21    -1     0     0   502   501  0.000000000E+00  0.000000000E+00  9.035378201E+02  9.035378201E+02  0.000000000E+00  0.00000E+00  9.000E+00
      21    -1     0     0   511   502  0.000000000E+00  0.000000000E+00 -1.773311291E+02  1.773311291E+02  0.000000000E+00  0.00000E+00  9.000E+00
      25     1     1     2     0     0  2.405218899E+02  2.396043144E+02  5.514361582E+02  6.595209198E+02  1.250000000E+02  0.00000E+00  9.000E+00
      25     1     1     2     0     0 -1.258065809E+02 -1.850554564E+02  1.201108215E+02  2.830625852E+02  1.250000000E+02  0.00000E+00  9.000E+00
      21     1     1     2   511   501 -1.147153091E+02 -5.454885800E+01  5.465971134E+01  1.382854442E+02  2.431401974E-06  0.00000E+00  9.000E+00
#rwgt            1           1   3.1556275850334589E-002           3      459635           0
</event>
<event>
      5   9999  3.79277E-02  4.75433E+01 -1.00000E+00  1.40336E-01
      21    -1     0     0   502   512  0.000000000E+00  0.000000000E+00  2.162870283E+03  2.162870283E+03  0.000000000E+00  0.00000E+00  9.000E+00
      21    -1     0     0   501   502  0.000000000E+00  0.000000000E+00 -3.964626484E+01  3.964626484E+01  0.000000000E+00  0.00000E+00  9.000E+00
      25     1     1     2     0     0 -1.074763767E+02  7.289707312E+01  1.472318748E+03  1.483311380E+03  1.250000000E+02  0.00000E+00  9.000E+00
      25     1     1     2     0     0  1.449749640E+02 -1.021241556E+02  3.308864994E+02  3.956740562E+02  1.250000000E+02  0.00000E+00  9.000E+00
      21     1     1     2   501   512 -3.749858726E+01  2.922708244E+01  3.200187705E+02  3.235311111E+02  5.394796609E-06  0.00000E+00  9.000E+00
#rwgt            1           1   4.0578469005887366E-002           3      459707           0
</event>
<event>
      5   9999  3.79277E-02  1.80471E+02 -1.00000E+00  1.13297E-01
      21    -1     0     0   502   501  0.000000000E+00  0.000000000E+00  4.397165605E+02  4.397165605E+02  0.000000000E+00  0.00000E+00  9.000E+00
      21    -1     0     0   501   511  0.000000000E+00  0.000000000E+00 -6.002520684E+02  6.002520684E+02  0.000000000E+00  0.00000E+00  9.000E+00
      25     1     1     2     0     0  3.339039425E+02 -3.007024208E+02  7.698949274E+01  4.727220861E+02  1.250000000E+02  0.00000E+00  9.000E+00
      25     1     1     2     0     0 -1.568270558E+02  2.658660047E+02 -1.323047855E+02  3.583420351E+02  1.250000000E+02  0.00000E+00  9.000E+00
      21     1     1     2   502   511 -1.770768867E+02  3.483641607E+01 -1.052202151E+02  2.089045077E+02  3.015782986E-06  0.00000E+00  9.000E+00
#rwgt            1           1   3.6042194394739671E-002           3      459858           0
</event>
<event>
      5   9999  3.79277E-02  3.50334E+01 -1.00000E+00  1.48504E-01
      21    -1     0     0   512   501  0.000000000E+00  0.000000000E+00  1.661486264E+03  1.661486264E+03  0.000000000E+00  0.00000E+00  9.000E+00
      21    -1     0     0   501   502  0.000000000E+00  0.000000000E+00 -2.911658751E+01  2.911658751E+01  0.000000000E+00  0.00000E+00  9.000E+00
      25     1     1     2     0     0  8.693455636E+01 -2.156165238E+01  8.728434837E+02  8.862862229E+02  1.250000000E+02  0.00000E+00  9.000E+00
      25     1     1     2     0     0 -9.623949914E+01 -1.221349542E+01  2.656715455E+02  3.092209255E+02  1.250000000E+02  0.00000E+00  9.000E+00
      21     1     1     2   512   502  9.304942773E+00  3.377514780E+01  4.938546476E+02  4.950957034E+02  7.629394531E-06  0.00000E+00  9.000E+00
#rwgt            1           1   4.3690504798890563E-002           3      459973           0
</event>
<event>
      5   9999  3.79277E-02  3.26201E+01 -1.00000E+00  1.50556E-01
      21    -1     0     0   502   511  0.000000000E+00  0.000000000E+00  9.796698582E+02  9.796698582E+02  0.000000000E+00  0.00000E+00  9.000E+00
      21    -1     0     0   501   502  0.000000000E+00  0.000000000E+00 -8.777466567E+01  8.777466567E+01  0.000000000E+00  0.00000E+00  9.000E+00
      25     1     1     2     0     0  1.089812835E+02 -5.443141482E+01  2.966947600E+01  1.770451267E+02  1.250000000E+02  0.00000E+00  9.000E+00
      25     1     1     2     0     0 -1.072766992E+02  8.700689860E+01  6.695773064E+02  6.950088200E+02  1.250000000E+02  0.00000E+00  9.000E+00
      21     1     1     2   501   511 -1.704584314E+00 -3.257548378E+01  1.926484101E+02  1.953905772E+02  2.697398305E-06  0.00000E+00  9.000E+00
#rwgt            1           1  0.10294824603400542                3      460079           0
</event>
<event>
      5   9999  3.79277E-02  9.91957E+00 -1.00000E+00  1.96163E-01
      21    -1     0     0   502   501  0.000000000E+00  0.000000000E+00  5.121815443E+02  5.121815443E+02  0.000000000E+00  0.00000E+00  9.000E+00
      21    -1     0     0   512   502  0.000000000E+00  0.000000000E+00 -4.818650154E+02  4.818650154E+02  0.000000000E+00  0.00000E+00  9.000E+00
      25     1     1     2     0     0  1.321210419E+02 -4.204148358E+01  3.301008660E+02  3.792295318E+02  1.250000000E+02  0.00000E+00  9.000E+00
      25     1     1     2     0     0 -1.223579880E+02  4.028629970E+01  1.062994085E+02  2.086121459E+02  1.250000000E+02  0.00000E+00  9.000E+00
      21     1     1     2   512   501 -9.763053923E+00  1.755183876E+00 -4.060837455E+02  4.062048821E+02  5.394796609E-06  0.00000E+00  9.000E+00
#rwgt            1           1   3.2720400450301237E-002           3      460559           0
</event>
<event>
      5   9999  3.79277E-02  4.93822E+01 -1.00000E+00  1.39384E-01
      21    -1     0     0   502   501  0.000000000E+00  0.000000000E+00  2.001819954E+02  2.001819954E+02  0.000000000E+00  0.00000E+00  9.000E+00
      21    -1     0     0   501   511  0.000000000E+00  0.000000000E+00 -2.646260564E+02  2.646260564E+02  0.000000000E+00  0.00000E+00  9.000E+00
      25     1     1     2     0     0 -2.870845200E+01 -1.110238708E+02 -4.579835105E+01  1.757070404E+02  1.250000000E+02  0.00000E+00  9.000E+00
      25     1     1     2     0     0  7.388081085E+01  1.309753172E+02  5.252453116E+01  2.024765031E+02  1.250000000E+02  0.00000E+00  9.000E+00
      21     1     1     2   502   511 -4.517235885E+01 -1.995144643E+01 -7.117024106E+01  8.662450826E+01  1.651812370E-06  0.00000E+00  9.000E+00
#rwgt            1           1   4.2263240005589224E-002           3      460877           0
</event>
<event>
      5   9999  3.79277E-02  2.61672E+02 -1.00000E+00  1.07557E-01
      21    -1     0     0   502   501  0.000000000E+00  0.000000000E+00  3.644757747E+02  3.644757747E+02  0.000000000E+00  0.00000E+00  9.000E+00
      21    -1     0     0   501   512  0.000000000E+00  0.000000000E+00 -9.937677038E+02  9.937677038E+02  0.000000000E+00  0.00000E+00  9.000E+00
      25     1     1     2     0     0 -1.942960408E+02 -5.718289623E+01 -4.746843501E+02  5.310094795E+02  1.250000000E+02  0.00000E+00  9.000E+00
      25     1     1     2     0     0  2.064618946E+02  3.185723463E+02  1.488888967E+02  4.265064564E+02  1.250000000E+02  0.00000E+00  9.000E+00
      21     1     1     2   502   512 -1.216585379E+01 -2.613894501E+02 -3.034964758E+02  4.007275426E+02  5.394796609E-06  0.00000E+00  9.000E+00
#rwgt            1           1   2.8269965790414107E-002           3      460974           0
</event>
<event>
      5   9999  3.79277E-02  3.38370E+01 -1.00000E+00  1.49496E-01
      21    -1     0     0   511   501  0.000000000E+00  0.000000000E+00  4.689543459E+01  4.689543459E+01  0.000000000E+00  0.00000E+00  9.000E+00
      21    -1     0     0   501   502  0.000000000E+00  0.000000000E+00 -9.040047993E+02  9.040047993E+02  0.000000000E+00  0.00000E+00  9.000E+00
      25     1     1     2     0     0  1.126620352E+02  8.705906745E+01 -3.258427341E+02  3.769224095E+02  1.250000000E+02  0.00000E+00  9.000E+00
      25     1     1     2     0     0 -1.219775664E+02 -5.452969155E+01 -4.612293411E+02  4.961950413E+02  1.250000000E+02  0.00000E+00  9.000E+00
      21     1     1     2   511   502  9.315531256E+00 -3.252937591E+01 -7.003728956E+01  7.778278311E+01  0.000000000E+00  0.00000E+00  9.000E+00
#rwgt            1           1   3.3101427400812358E-002           3      461043           0
</event>
<event>
      5   9999  3.79277E-02  1.83932E+01 -1.00000E+00  1.69427E-01
      21    -1     0     0   502   501  0.000000000E+00  0.000000000E+00  5.258788523E+02  5.258788523E+02  0.000000000E+00  0.00000E+00  9.000E+00
      21    -1     0     0   512   502  0.000000000E+00  0.000000000E+00 -4.012319081E+02  4.012319081E+02  0.000000000E+00  0.00000E+00  9.000E+00
      25     1     1     2     0     0  1.258618449E+02 -7.791618899E+01  3.248614859E+01  1.964497044E+02  1.250000000E+02  0.00000E+00  9.000E+00
      25     1     1     2     0     0 -1.100884893E+02  6.845521401E+01  3.914080903E+02  4.308490280E+02  1.250000000E+02  0.00000E+00  9.000E+00
      21     1     1     2   512   501 -1.577335568E+01  9.460974979E+00 -2.992472946E+02  2.998120280E+02  5.394796609E-06  0.00000E+00  9.000E+00
#rwgt            1           1   3.7184757404192616E-002           3      461131           0
</event>
<event>
      5   9999  3.79277E-02  1.65278E+01 -1.00000E+00  1.73505E-01
      21    -1     0     0   502   511  0.000000000E+00  0.000000000E+00  9.232803700E+01  9.232803700E+01  0.000000000E+00  0.00000E+00  9.000E+00
      21    -1     0     0   501   502  0.000000000E+00  0.000000000E+00 -6.733159644E+02  6.733159644E+02  0.000000000E+00  0.00000E+00  9.000E+00
      25     1     1     2     0     0  9.383117810E+01 -2.767493743E+01 -7.598464039E+01  1.759797083E+02  1.250000000E+02  0.00000E+00  9.000E+00
      25     1     1     2     0     0 -1.003008453E+02  1.246597297E+01 -5.332416687E+02  5.569446447E+02  1.250000000E+02  0.00000E+00  9.000E+00
      21     1     1     2   501   511  6.469667210E+00  1.520896446E+01  2.823838167E+01  3.271964843E+01  8.920806376E-07  0.00000E+00  9.000E+00
#rwgt            1           1  0.13579171360469408                3      461412           0
</event>
<event>
      5   9999  3.79277E-02  4.85977E+01 -1.00000E+00  1.39784E-01
      21    -1     0     0   502   501  0.000000000E+00  0.000000000E+00  1.073696193E+02  1.073696193E+02  0.000000000E+00  0.00000E+00  9.000E+00
      21    -1     0     0   501   512  0.000000000E+00  0.000000000E+00 -5.378487978E+02  5.378487978E+02  0.000000000E+00  0.00000E+00  9.000E+00
      25     1     1     2     0     0 -4.578658206E+01 -7.620437599E+01  1.903972043E+00  1.534019007E+02  1.250000000E+02  0.00000E+00  9.000E+00
      25     1     1     2     0     0  2.579417810E+01  1.204993354E+02 -3.886028612E+02  4.264066289E+02  1.250000000E+02  0.00000E+00  9.000E+00
      21     1     1     2   502   512  1.999240396E+01 -4.429495938E+01 -4.378028936E+01  6.540988747E+01  9.536743164E-07  0.00000E+00  9.000E+00
#rwgt            1           1   2.7114999655703451E-002           3      461612           0
</event>
<event>
      5   9999  3.79277E-02  2.17998E+01 -1.00000E+00  1.63339E-01
       2    -1     0     0   502     0  0.000000000E+00  0.000000000E+00  1.938384383E+03  1.938384383E+03  0.000000000E+00  0.00000E+00  9.000E+00
      21    -1     0     0   501   502  0.000000000E+00  0.000000000E+00 -1.026228562E+02  1.026228562E+02  0.000000000E+00  0.00000E+00  9.000E+00
      25     1     1     2     0     0  1.967859206E+01  1.097368079E+02  1.607110915E+02  2.321259765E+02  1.250000000E+02  0.00000E+00  9.000E+00
      25     1     1     2     0     0 -6.992135368E-02 -1.192620465E+02  4.479460147E+01  1.784796822E+02  1.250000000E+02  0.00000E+00  9.000E+00
       2     1     1     2   501     0 -1.960867071E+01  9.525238573E+00  1.630255834E+03  1.630401580E+03  3.737624730E-05  0.00000E+00  9.000E+00
#rwgt            1           1   4.2882882878929621E-002           3      461874           0
</event>
<event>
      5   9999  3.79277E-02  9.22053E+01 -1.00000E+00  1.25434E-01
      21    -1     0     0   502   501  0.000000000E+00  0.000000000E+00  1.126792829E+02  1.126792829E+02  0.000000000E+00  0.00000E+00  9.000E+00
      21    -1     0     0   511   502  0.000000000E+00  0.000000000E+00 -4.736478227E+02  4.736478227E+02  0.000000000E+00  0.00000E+00  9.000E+00
      25     1     1     2     0     0  1.444866145E+01  7.245024041E+01 -1.496715007E+01  1.459685471E+02  1.250000000E+02  0.00000E+00  9.000E+00
      25     1     1     2     0     0 -1.066537777E+02 -7.265448953E+01 -2.154825623E+02  2.805555877E+02  1.250000000E+02  0.00000E+00  9.000E+00
      21     1     1     2   511   501  9.220511620E+01  2.042491163E-01 -1.305188274E+02  1.598029708E+02  0.000000000E+00  0.00000E+00  9.000E+00
#rwgt            1           1   4.6131347196534625E-002           3      462035           0
</event>
<event>
      5   9999 -3.79277E-02  1.39020E+01 -1.00000E+00  1.80551E-01
      21    -1     0     0   502   512  0.000000000E+00  0.000000000E+00  5.766538355E+02  5.766538355E+02  0.000000000E+00  0.00000E+00  9.000E+00
      21    -1     0     0   501   502  0.000000000E+00  0.000000000E+00 -2.901992977E+02  2.901992977E+02  0.000000000E+00  0.00000E+00  9.000E+00
      25     1     1     2     0     0  1.289426076E+02  1.115718774E+02  2.181896040E-01  2.114226277E+02  1.250000000E+02  0.00000E+00  9.000E+00
      25     1     1     2     0     0 -1.428249527E+02 -1.123105990E+02 -1.185651509E+02  2.503903608E+02  1.250000000E+02  0.00000E+00  9.000E+00
      21     1     1     2   501   512  1.388234516E+01  7.387215387E-01  4.048014990E+02  4.050401447E+02  5.394796609E-06  0.00000E+00  9.000E+00
#rwgt            1           1 -0.16850565488243657                3      462168           0
</event>
<event>
      5   9999  3.79277E-02  6.23315E+01 -1.00000E+00  1.33825E-01
      21    -1     0     0   502   501  0.000000000E+00  0.000000000E+00  1.258003092E+03  1.258003092E+03  0.000000000E+00  0.00000E+00  9.000E+00
      21    -1     0     0   511   502  0.000000000E+00  0.000000000E+00 -1.481658044E+02  1.481658044E+02  0.000000000E+00  0.00000E+00  9.000E+00
      25     1     1     2     0     0  6.266271776E+01  2.623486930E+02  9.624867191E+02  1.007352539E+03  1.250000000E+02  0.00000E+00  9.000E+00
      25     1     1     2     0     0 -1.777871998E+01 -2.190978211E+02  1.958434913E+02  3.198431040E+02  1.250000000E+02  0.00000E+00  9.000E+00
      21     1     1     2   511   501 -4.488399778E+01 -4.325087188E+01 -4.849292301E+01  7.897325343E+01  6.743495762E-07  0.00000E+00  9.000E+00
#rwgt            1           1   3.8810516373436396E-002           3      462390           0
</event>
<event>
      5   9999  3.79277E-02  1.22722E+02 -1.00000E+00  1.19956E-01
      21    -1     0     0   512   501  0.000000000E+00  0.000000000E+00  3.117672004E+02  3.117672004E+02  0.000000000E+00  0.00000E+00  9.000E+00
      21    -1     0     0   501   502  0.000000000E+00  0.000000000E+00 -7.037601937E+02  7.037601937E+02  0.000000000E+00  0.00000E+00  9.000E+00
      25     1     1     2     0     0  1.763312687E+00 -8.161819700E+01 -3.907162422E+02  4.182688385E+02  1.250000000E+02  0.00000E+00  9.000E+00
      25     1     1     2     0     0 -1.216256644E+02  1.079558816E+02 -2.479198071E+02  3.217708896E+02  1.250000000E+02  0.00000E+00  9.000E+00
      21     1     1     2   512   502  1.198623518E+02 -2.633768462E+01  2.466430561E+02  2.754876660E+02  2.697398305E-06  0.00000E+00  9.000E+00
#rwgt            1           1   4.6949263368238528E-002           3      462448           0
</event>
<event>
      5   9999  3.79277E-02  3.22265E+01 -1.00000E+00  1.50911E-01
      21    -1     0     0   502   511  0.000000000E+00  0.000000000E+00  2.056279693E+02  2.056279693E+02  0.000000000E+00  0.00000E+00  9.000E+00
      21    -1     0     0   501   502  0.000000000E+00  0.000000000E+00 -3.295943126E+02  3.295943126E+02  0.000000000E+00  0.00000E+00  9.000E+00
      25     1     1     2     0     0 -5.342602827E+01  2.006996475E+02 -1.477175273E+02  2.838664419E+02  1.250000000E+02  0.00000E+00  9.000E+00
      25     1     1     2     0     0  5.016808216E+01 -1.686382753E+02  9.268284673E+00  2.160245483E+02  1.250000000E+02  0.00000E+00  9.000E+00
      21     1     1     2   501   511  3.257946106E+00 -3.206137215E+01  1.448289936E+01  3.533129166E+01  6.307962682E-07  0.00000E+00  9.000E+00
#rwgt            1           1   4.5493229136942002E-002           3      462596           0
</event>
<event>
      5   9999  3.79277E-02  2.92156E+01 -1.00000E+00  1.53843E-01
      21    -1     0     0   502   512  0.000000000E+00  0.000000000E+00  1.542308678E+02  1.542308678E+02  0.000000000E+00  0.00000E+00  9.000E+00
      21    -1     0     0   501   502  0.000000000E+00  0.000000000E+00 -9.008710435E+02  9.008710435E+02  0.000000000E+00  0.00000E+00  9.000E+00
      25     1     1     2     0     0  6.962659310E+01  5.828519113E+01 -1.095535001E+02  1.893990373E+02  1.250000000E+02  0.00000E+00  9.000E+00
      25     1     1     2     0     0 -5.822931356E+01 -8.518601937E+01 -7.406082042E+02  7.581377335E+02  1.250000000E+02  0.00000E+00  9.000E+00
      21     1     1     2   501   512 -1.139727954E+01  2.690082825E+01  1.035215286E+02  1.075651403E+02  1.907348633E-06  0.00000E+00  9.000E+00
#rwgt            1           1   5.5996036721870819E-002           3      462781           0
</event>
<event>
      5   9999  3.79277E-02  2.56635E+01 -1.00000E+00  1.57904E-01
      21    -1     0     0   502   501  0.000000000E+00  0.000000000E+00  1.156841891E+03  1.156841891E+03  0.000000000E+00  0.00000E+00  9.000E+00
      21    -1     0     0   501   511  0.000000000E+00  0.000000000E+00 -6.117693734E+01  6.117693734E+01  0.000000000E+00  0.00000E+00  9.000E+00
      25     1     1     2     0     0  1.157138168E+02 -3.111481823E+01  1.042735058E+02  2.021281359E+02  1.250000000E+02  0.00000E+00  9.000E+00
      25     1     1     2     0     0 -1.087329790E+02  6.419052527E+00  9.647726513E+02  9.789153863E+02  1.250000000E+02  0.00000E+00  9.000E+00
      21     1     1     2   502   511 -6.980837720E+00  2.469576571E+01  2.661879696E+01  3.697530650E+01  6.743495762E-07  0.00000E+00  9.000E+00
#rwgt            1           1   4.1063174283800866E-002           3      462939           0
</event>
<event>
      5   9999  3.79277E-02  2.30456E+02 -1.00000E+00  1.09452E-01
      21    -1     0     0   502   501  0.000000000E+00  0.000000000E+00  1.571647535E+02  1.571647535E+02  0.000000000E+00  0.00000E+00  9.000E+00
       1    -1     0     0   501     0  0.000000000E+00  0.000000000E+00 -1.118909152E+03  1.118909152E+03  0.000000000E+00  0.00000E+00  9.000E+00
      25     1     1     2     0     0 -1.125705543E+02  1.594423558E+02 -2.583071811E+02  3.470469627E+02  1.250000000E+02  0.00000E+00  9.000E+00
      25     1     1     2     0     0  2.351210454E+02  3.572746129E+01 -1.062504923E+02  2.889161203E+02  1.250000000E+02  0.00000E+00  9.000E+00
       1     1     1     2   502     0 -1.225504911E+02 -1.951698171E+02 -5.971867255E+02  6.401108229E+02  7.629394531E-06  0.00000E+00  9.000E+00
#rwgt            1           1   3.8770640771102392E-002           3      463046           0
</event>
<event>
      5   9999  3.79277E-02  1.76130E+01 -1.00000E+00  1.71056E-01
      21    -1     0     0   502   501  0.000000000E+00  0.000000000E+00  9.919272914E+02  9.919272914E+02  0.000000000E+00  0.00000E+00  9.000E+00
      21    -1     0     0   511   502  0.000000000E+00  0.000000000E+00 -7.570002342E+01  7.570002342E+01  0.000000000E+00  0.00000E+00  9.000E+00
      25     1     1     2     0     0  9.975412507E+01 -7.337522174E+01  5.957000133E+02  6.211427488E+02  1.250000000E+02  0.00000E+00  9.000E+00
      25     1     1     2     0     0 -1.154905972E+02  8.128599757E+01  3.582445218E+02  4.048575415E+02  1.250000000E+02  0.00000E+00  9.000E+00
      21     1     1     2   511   501  1.573647216E+01 -7.910775831E+00 -3.771726713E+01  4.162702451E+01  2.132480600E-06  0.00000E+00  9.000E+00
#rwgt            1           1   4.0659500212433225E-002           3      463137           0
</event>
<event>
      5   9999  3.79277E-02  2.18044E+01 -1.00000E+00  1.63332E-01
      21    -1     0     0   502   501  0.000000000E+00  0.000000000E+00  1.717022429E+03  1.717022429E+03  0.000000000E+00  0.00000E+00  9.000E+00
      21    -1     0     0   501   512  0.000000000E+00  0.000000000E+00 -1.198557161E+02  1.198557161E+02  0.000000000E+00  0.00000E+00  9.000E+00
      25     1     1     2     0     0  1.292001892E+01 -1.251325916E+02  3.719585321E+02  4.120718894E+02  1.250000000E+02  0.00000E+00  9.000E+00
      25     1     1     2     0     0 -3.197989133E+01  1.145424560E+02  1.318123287E+03  1.329367025E+03  1.250000000E+02  0.00000E+00  9.000E+00
      21     1     1     2   502   512  1.905987241E+01  1.059013559E+01 -9.291510646E+01  9.543923048E+01  3.568322551E-06  0.00000E+00  9.000E+00
#rwgt            1           1   4.5755066873379262E-002           3      463329           0
</event>
<event>
      5   9999  3.87717E-02  2.25017E+02 -1.00000E+00  1.09816E-01
      21    -1     0     0   502   501  0.000000000E+00  0.000000000E+00  1.607257411E+02  1.607257411E+02  0.000000000E+00  0.00000E+00  9.000E+00
      21    -1     0     0   501   511  0.000000000E+00  0.000000000E+00 -3.206576172E+03  3.206576172E+03  0.000000000E+00  0.00000E+00  9.000E+00
      25     1     1     2     0     0 -3.484657075E+02 -6.296761211E+01 -1.403423480E+02  4.008918110E+02  1.250000000E+02  0.00000E+00  9.000E+00
      25     1     1     2     0     0  1.277728413E+02  1.906506846E+01 -2.896927089E+02  3.409343652E+02  1.250000000E+02  0.00000E+00  9.000E+00
      21     1     1     2   502   511  2.206928662E+02  4.390254365E+01 -2.615815374E+03  2.625475737E+03  0.000000000E+00  0.00000E+00  9.000E+00
#rwgt            1           1  0.27780049655035111                3      463466           0
</event>
<event>
      5   9999  3.79277E-02  1.56600E+01 -1.00000E+00  1.75640E-01
      21    -1     0     0   512   501  0.000000000E+00  0.000000000E+00  6.604658776E+02  6.604658776E+02  0.000000000E+00  0.00000E+00  9.000E+00
      21    -1     0     0   501   502  0.000000000E+00  0.000000000E+00 -6.187679141E+01  6.187679141E+01  0.000000000E+00  0.00000E+00  9.000E+00
      25     1     1     2     0     0 -8.409860126E+01 -2.752686314E+01  4.056325063E+02  4.335816337E+02  1.250000000E+02  0.00000E+00  9.000E+00
      25     1     1     2     0     0  9.931076423E+01  3.124522684E+01  9.259222241E+01  1.871822955E+02  1.250000000E+02  0.00000E+00  9.000E+00
      21     1     1     2   512   502 -1.521216296E+01 -3.718363697E+00  1.003643575E+02  1.015787399E+02  1.907348633E-06  0.00000E+00  9.000E+00
#rwgt            1           1   3.6427536374423190E-002           3      463574           0
</event>
<event>
      5   9999  3.79277E-02  6.64342E+01 -1.00000E+00  1.32381E-01
       2    -1     0     0   502     0  0.000000000E+00  0.000000000E+00  1.773700695E+03  1.773700695E+03  0.000000000E+00  0.00000E+00  9.000E+00
      21    -1     0     0   501   502  0.000000000E+00  0.000000000E+00 -2.604682042E+02  2.604682042E+02  0.000000000E+00  0.00000E+00  9.000E+00
      25     1     1     2     0     0  6.788100466E+01 -1.137173901E+02 -1.729735457E+01  1.829307904E+02  1.250000000E+02  0.00000E+00  9.000E+00
      25     1     1     2     0     0 -1.232867234E+02  1.503740901E+02 -7.599851695E+01  2.433367168E+02  1.250000000E+02  0.00000E+00  9.000E+00
       2     1     1     2   501     0  5.540571878E+01 -3.665670008E+01  1.606528363E+03  1.607901392E+03  0.000000000E+00  0.00000E+00  9.000E+00
#rwgt            1           1   4.3327227343976815E-002           3      463849           0
</event>
<event>
      5   9999  3.79277E-02  2.76005E+01 -1.00000E+00  1.55598E-01
      21    -1     0     0   502   501  0.000000000E+00  0.000000000E+00  3.411766917E+02  3.411766917E+02  0.000000000E+00  0.00000E+00  9.000E+00
      21    -1     0     0   511   502  0.000000000E+00  0.000000000E+00 -4.244859024E+02  4.244859024E+02  0.000000000E+00  0.00000E+00  9.000E+00
      25     1     1     2     0     0 -9.296928883E+01 -6.696020035E+01  1.783293975E+02  2.460758646E+02  1.250000000E+02  0.00000E+00  9.000E+00
      25     1     1     2     0     0  6.536916766E+01  6.682439682E+01  8.098921133E+01  1.758490274E+02  1.250000000E+02  0.00000E+00  9.000E+00
      21     1     1     2   511   501  2.760012117E+01  1.358035268E-01 -3.426278196E+02  3.437377021E+02  3.814697266E-06  0.00000E+00  9.000E+00
#rwgt            1           1   4.2665535387368975E-002           3      464028           0
</event>
<event>
      5   9999  3.79277E-02  3.11885E+01 -1.00000E+00  1.51877E-01
      21    -1     0     0   512   501  0.000000000E+00  0.000000000E+00  4.233370566E+02  4.233370566E+02  0.000000000E+00  0.00000E+00  9.000E+00
      21    -1     0     0   501   502  0.000000000E+00  0.000000000E+00 -1.548084792E+02  1.548084792E+02  0.000000000E+00  0.00000E+00  9.000E+00
      25     1     1     2     0     0 -9.682894106E+01  1.848068757E+02  1.196232123E+02  2.710426868E+02  1.250000000E+02  0.00000E+00  9.000E+00
      25     1     1     2     0     0  9.539488561E+01 -1.536513587E+02  8.447468202E+01  2.355204792E+02  1.250000000E+02  0.00000E+00  9.000E+00
      21     1     1     2   512   502  1.434055449E+00 -3.115551692E+01  6.443068303E+01  7.158236979E+01  0.000000000E+00  0.00000E+00  9.000E+00
#rwgt            1           1   3.2409216498073073E-002           3      464191           0
</event>
<event>
      5   9999  3.79277E-02  4.77287E+01 -1.00000E+00  1.40237E-01
       1    -1     0     0   502     0  0.000000000E+00  0.000000000E+00  1.746002070E+02  1.746002070E+02  0.000000000E+00  0.00000E+00  9.000E+00
      21    -1     0     0   501   502  0.000000000E+00  0.000000000E+00 -7.380292325E+02  7.380292325E+02  0.000000000E+00  0.00000E+00  9.000E+00
      25     1     1     2     0     0 -9.642802175E+01 -1.332397039E+02 -2.187303568E+02  3.008640076E+02  1.250000000E+02  0.00000E+00  9.000E+00
      25     1     1     2     0     0  6.340566293E+01  1.677005595E+02 -4.477234634E+02  4.982218937E+02  1.250000000E+02  0.00000E+00  9.000E+00
       1     1     1     2   501     0  3.302235882E+01 -3.446085562E+01  1.030247947E+02  1.135435382E+02  2.697398305E-06  0.00000E+00  9.000E+00
#rwgt            1           1   4.2507166191001332E-002           3      464293           0
</event>
<event>
      5   9999  3.79277E-02  4.39381E+01 -1.00000E+00  1.42356E-01
      21    -1     0     0   502   501  0.000000000E+00  0.000000000E+00  1.057456641E+02  1.057456641E+02  0.000000000E+00  0.00000E+00  9.000E+00
      21    -1     0     0   501   511  0.000000000E+00  0.000000000E+00 -4.859413978E+02  4.859413978E+02  0.000000000E+00  0.00000E+00  9.000E+00
      25     1     1     2     0     0 -7.212475514E+00 -1.184624802E+02 -8.134253925E+01  1.905964000E+02  1.250000000E+02  0.00000E+00  9.000E+00
      25     1     1     2     0     0 -9.240925965E+00  1.592036664E+02 -1.684974349E+02  2.635291022E+02  1.250000000E+02  0.00000E+00  9.000E+00
      21     1     1     2   502   511  1.645340148E+01 -4.074118627E+01 -1.303557595E+02  1.375615598E+02  0.000000000E+00  0.00000E+00  9.000E+00
#rwgt            1           1  0.10004348595118577                3      464564           0
</event>
<event>
      5   9999  3.79277E-02  2.46049E+01 -1.00000E+00  1.59271E-01
      21    -1     0     0   502   501  0.000000000E+00  0.000000000E+00  3.266582890E+02  3.266582890E+02  0.000000000E+00  0.00000E+00  9.000E+00
      21    -1     0     0   512   502  0.000000000E+00  0.000000000E+00 -6.583147123E+02  6.583147123E+02  0.000000000E+00  0.00000E+00  9.000E+00
      25     1     1     2     0     0 -1.712330947E+02 -2.770041872E+02 -1.934718258E+02  3.988839929E+02  1.250000000E+02  0.00000E+00  9.000E+00
      25     1     1     2     0     0  1.928898359E+02  2.653258212E+02  8.529899823E+01  3.612550336E+02  1.250000000E+02  0.00000E+00  9.000E+00
      21     1     1     2   512   501 -2.165674125E+01  1.167836595E+01 -2.234835957E+02  2.248339748E+02  2.697398305E-06  0.00000E+00  9.000E+00
#rwgt            1           1   3.0822214327995433E-002           3      464760           0
</event>
<event>
      5   9999  3.79277E-02  3.52410E+01 -1.00000E+00  1.48337E-01
      21    -1     0     0   502   501  0.000000000E+00  0.000000000E+00  1.750340439E+02  1.750340439E+02  0.000000000E+00  0.00000E+00  9.000E+00
      21    -1     0     0   501   511  0.000000000E+00  0.000000000E+00 -5.355128717E+02  5.355128717E+02  0.000000000E+00  0.00000E+00  9.000E+00
      25     1     1     2     0     0  2.209450712E+02 -4.836739537E+01 -9.378622407E+01  2.749126866E+02  1.250000000E+02  0.00000E+00  9.000E+00
      25     1     1     2     0     0 -2.561069496E+02  4.600686735E+01 -1.754181111E+02  3.377927104E+02  1.250000000E+02  0.00000E+00  9.000E+00
      21     1     1     2   502   511  3.516187844E+01  2.360528022E+00 -9.127449259E+01  9.784151872E+01  0.000000000E+00  0.00000E+00  9.000E+00
#rwgt            1           1   3.7540642796910627E-002           3      464949           0
</event>
<event>
      5   9999  3.79277E-02  1.93302E+01 -1.00000E+00  1.67599E-01
      21    -1     0     0   502   501  0.000000000E+00  0.000000000E+00  1.424173949E+02  1.424173949E+02  0.000000000E+00  0.00000E+00  9.000E+00
      21    -1     0     0   512   502  0.000000000E+00  0.000000000E+00 -3.430190465E+02  3.430190465E+02  0.000000000E+00  0.00000E+00  9.000E+00
      25     1     1     2     0     0  1.441980230E+02 -2.522119045E+01 -1.773562209E+01  1.933099340E+02  1.250000000E+02  0.00000E+00  9.000E+00
      25     1     1     2     0     0 -1.293667058E+02  1.282410224E+01 -9.833637595E+01  2.054148120E+02  1.250000000E+02  0.00000E+00  9.000E+00
      21     1     1     2   512   501 -1.483131727E+01  1.239708821E+01 -8.452965363E+01  8.671169535E+01  0.000000000E+00  0.00000E+00  9.000E+00
#rwgt            1           1  0.14611902917683114                3      465059           0
</event>
<event>
      5   9999  3.79277E-02  7.63048E+01 -1.00000E+00  1.29352E-01
      21    -1     0     0   502   511  0.000000000E+00  0.000000000E+00  3.258065517E+02  3.258065517E+02  0.000000000E+00  0.00000E+00  9.000E+00
      21    -1     0     0   501   502  0.000000000E+00  0.000000000E+00 -2.084870096E+02  2.084870096E+02  0.000000000E+00  0.00000E+00  9.000E+00
      25     1     1     2     0     0  1.752072258E+02  1.928447019E+01 -4.705497618E+01  2.211529642E+02  1.250000000E+02  0.00000E+00  9.000E+00
      25     1     1     2     0     0 -1.311475275E+02  4.301453347E+01  9.090983137E+01  2.072185356E+02  1.250000000E+02  0.00000E+00  9.000E+00
      21     1     1     2   501   511 -4.405969830E+01 -6.229900366E+01  7.346468690E+01  1.059220614E+02  1.651812370E-06  0.00000E+00  9.000E+00
#rwgt            1           1   3.5330969600476637E-002           3      465314           0
</event>
<event>
      5   9999  3.79277E-02  9.10938E+01 -1.00000E+00  1.25678E-01
      21    -1     0     0   502   512  0.000000000E+00  0.000000000E+00  1.720336017E+02  1.720336017E+02  0.000000000E+00  0.00000E+00  9.000E+00
      21    -1     0     0   501   502  0.000000000E+00  0.000000000E+00 -9.769845843E+02  9.769845843E+02  0.000000000E+00  0.00000E+00  9.000E+00
      25     1     1     2     0     0 -8.806111622E+00  2.352022699E+02 -8.234028292E+02  8.654564544E+02  1.250000000E+02  0.00000E+00  9.000E+00
      25     1     1     2     0     0 -6.380950066E+00 -1.453833957E+02  1.063437272E+01  1.921331261E+02  1.250000000E+02  0.00000E+00  9.000E+00
      21     1     1     2   501   512  1.518706169E+01 -8.981887423E+01  7.817473872E+00  9.142860552E+01  1.244581522E-06  0.00000E+00  9.000E+00
#rwgt            1           1   3.1471046118087084E-002           3      465375           0
</event>
<event>
      5   9999  3.79277E-02  1.65836E+01 -1.00000E+00  1.73373E-01
      21    -1     0     0   502   511  0.000000000E+00  0.000000000E+00  3.278288307E+02  3.278288307E+02  0.000000000E+00  0.00000E+00  9.000E+00
      21    -1     0     0   501   502  0.000000000E+00  0.000000000E+00 -1.713050508E+02  1.713050508E+02  0.000000000E+00  0.00000E+00  9.000E+00
      25     1     1     2     0     0  1.504875680E+02 -9.583657950E+01  2.376086547E+01  2.191363430E+02  1.250000000E+02  0.00000E+00  9.000E+00
      25     1     1     2     0     0 -1.571018866E+02  1.110440650E+02  1.190331247E+02  2.584679321E+02  1.250000000E+02  0.00000E+00  9.000E+00
      21     1     1     2   501   511  6.614318585E+00 -1.520748553E+01  1.372978973E+01  2.152960642E+01  2.384185791E-07  0.00000E+00  9.000E+00
#rwgt            1           1   4.3238890666171668E-002           3      465432           0
</event>
<event>
      5   9999  3.79277E-02  1.79304E+02 -1.00000E+00  1.13403E-01
      -1    -1     0     0     0   501  0.000000000E+00  0.000000000E+00  1.608822663E+02  1.608822663E+02  0.000000000E+00  0.00000E+00  9.000E+00
      21    -1     0     0   501   502  0.000000000E+00  0.000000000E+00 -5.421056450E+02  5.421056450E+02  0.000000000E+00  0.00000E+00  9.000E+00
      25     1     1     2     0     0 -1.367219384E+02  3.441335036E+01 -6.004892606E+01  1.977575299E+02  1.250000000E+02  0.00000E+00  9.000E+00
      25     1     1     2     0     0 -1.149342494E+01 -1.353196623E+02 -2.535067147E+02  3.135827869E+02  1.250000000E+02  0.00000E+00  9.000E+00
      -1     1     1     2     0   502  1.482153633E+02  1.009063119E+02 -6.766773794E+01  1.916475945E+02  2.523185073E-06  0.00000E+00  9.000E+00
#rwgt            1           1   4.0335381357740528E-002           3      465627           0
</event>
<event>
      5   9999  3.79277E-02  3.34766E+01 -1.00000E+00  1.49804E-01
      21    -1     0     0   502   511  0.000000000E+00  0.000000000E+00  1.146768895E+03  1.146768895E+03  0.000000000E+00  0.00000E+00  9.000E+00
      21    -1     0     0   501   502  0.000000000E+00  0.000000000E+00 -5.128559652E+01  5.128559652E+01  0.000000000E+00  0.00000E+00  9.000E+00
      25     1     1     2     0     0  1.079687689E+02  2.481621184E+01  1.373333785E+02  2.162372685E+02  1.250000000E+02  0.00000E+00  9.000E+00
      25     1     1     2     0     0 -8.143231693E+01 -4.522454861E+01  5.324030676E+02  5.547562604E+02  1.250000000E+02  0.00000E+00  9.000E+00
      21     1     1     2   501   511 -2.653645201E+01  2.040833676E+01  4.257468520E+02  4.270609622E+02  5.394796609E-06  0.00000E+00  9.000E+00
#rwgt            1           1   2.1602110089214043E-002           3      465673           0
</event>
<event>
      5   9999  3.79277E-02  2.17096E+01 -1.00000E+00  1.63483E-01
      21    -1     0     0   512   501  0.000000000E+00  0.000000000E+00  2.268981127E+02  2.268981127E+02  0.000000000E+00  0.00000E+00  9.000E+00
      21    -1     0     0   501   502  0.000000000E+00  0.000000000E+00 -3.014940195E+02  3.014940195E+02  0.000000000E+00  0.00000E+00  9.000E+00
      25     1     1     2     0     0  9.411192135E+01 -4.844287113E+01 -2.313529161E+02  2.834659368E+02  1.250000000E+02  0.00000E+00  9.000E+00
      25     1     1     2     0     0 -8.408685197E+01  2.918655245E+01  9.747324464E+01  1.817924282E+02  1.250000000E+02  0.00000E+00  9.000E+00
      21     1     1     2   512   502 -1.002506938E+01  1.925631868E+01  5.928376462E+01  6.313376730E+01  6.743495762E-07  0.00000E+00  9.000E+00
#rwgt            1           1   3.9392908192299285E-002           3      465813           0
</event>
<event>
      5   9999  3.79277E-02  1.29875E+01 -1.00000E+00  1.83488E-01
      21    -1     0     0   502   501  0.000000000E+00  0.000000000E+00  7.341269638E+02  7.341269638E+02  0.000000000E+00  0.00000E+00  9.000E+00
      21    -1     0     0   501   511  0.000000000E+00  0.000000000E+00 -3.743185477E+02  3.743185477E+02  0.000000000E+00  0.00000E+00  9.000E+00
      25     1     1     2     0     0  1.089783451E+02 -1.297763616E+02  6.332411067E+02  6.673361094E+02  1.250000000E+02  0.00000E+00  9.000E+00
      25     1     1     2     0     0 -1.133164092E+02  1.420179928E+02 -6.173097269E+01  2.290096763E+02  1.250000000E+02  0.00000E+00  9.000E+00
      21     1     1     2   502   511  4.338064119E+00 -1.224163121E+01 -2.117017179E+02  2.120997258E+02  4.672030912E-06  0.00000E+00  9.000E+00
#rwgt            1           1   4.7106533170045893E-002           3      466025           0
</event>
<event>
      5   9999  3.79277E-02  8.20197E+01 -1.00000E+00  1.27828E-01
      21    -1     0     0   502   501  0.000000000E+00  0.000000000E+00  6.210812063E+02  6.210812063E+02  0.000000000E+00  0.00000E+00  9.000E+00
      21    -1     0     0   501   512  0.000000000E+00  0.000000000E+00 -3.139152711E+02  3.139152711E+02  0.000000000E+00  0.00000E+00  9.000E+00
      25     1     1     2     0     0  2.332854018E+02 -1.209534297E+02  1.461789647E+02  3.256456672E+02  1.250000000E+02  0.00000E+00  9.000E+00
      25     1     1     2     0     0 -2.209835469E+02  3.986148862E+01  3.319048213E+02  4.197719341E+02  1.250000000E+02  0.00000E+00  9.000E+00
      21     1     1     2   502   512 -1.230185487E+01  8.109194113E+01 -1.709178508E+02  1.895788761E+02  2.697398305E-06  0.00000E+00  9.000E+00
#rwgt            1           1   4.0487086053112194E-002           3      466366           0
</event>
<event>
      5   9999  3.79277E-02  1.38599E+01 -1.00000E+00  1.80680E-01
      21    -1     0     0   502   501  0.000000000E+00  0.000000000E+00  9.754390583E+02  9.754390583E+02  0.000000000E+00  0.00000E+00  9.000E+00
      21    -1     0     0   501   511  0.000000000E+00  0.000000000E+00 -1.180716039E+02  1.180716039E+02  0.000000000E+00  0.00000E+00  9.000E+00
      25     1     1     2     0     0  2.355130414E+01  1.285768358E+02  4.991861619E+02  5.309411369E+02  1.250000000E+02  0.00000E+00  9.000E+00
      25     1     1     2     0     0 -3.005554209E+01 -1.408158247E+02  4.400243898E+02  4.795611491E+02  1.250000000E+02  0.00000E+00  9.000E+00
      21     1     1     2   502   511  6.504237949E+00  1.223898887E+01 -8.184309728E+01  8.300837628E+01  2.523185073E-06  0.00000E+00  9.000E+00
#rwgt            1           1   5.1377115439688564E-002           3      466478           0
</event>
<event>
      5   9999  3.79277E-02  3.68651E+01 -1.00000E+00  1.47073E-01
      21    -1     0     0   502   501  0.000000000E+00  0.000000000E+00  3.073485901E+02  3.073485901E+02  0.000000000E+00  0.00000E+00  9.000E+00
      21    -1     0     0   512   502  0.000000000E+00  0.000000000E+00 -1.493666203E+03  1.493666203E+03  0.000000000E+00  0.00000E+00  9.000E+00
      25     1     1     2     0     0  1.355438081E+01 -5.928523000E+01  2.503833084E+02  2.863830666E+02  1.250000000E+02  0.00000E+00  9.000E+00
      25     1     1     2     0     0 -1.349472576E+01  2.242012931E+01 -6.659527197E+01  1.440302054E+02  1.250000000E+02  0.00000E+00  9.000E+00
      21     1     1     2   512   501 -5.965505046E-02  3.686510068E+01 -1.370105650E+03  1.370601521E+03  2.157918644E-05  0.00000E+00  9.000E+00
#rwgt            1           1   2.7329119855659709E-002           3      466623           0
</event>
<event>
      5   9999  3.79277E-02  5.50862E+01 -1.00000E+00  1.36717E-01
      21    -1     0     0   502   511  0.000000000E+00  0.000000000E+00  2.625453767E+02  2.625453767E+02  0.000000000E+00  0.00000E+00  9.000E+00
      21    -1     0     0   501   502  0.000000000E+00  0.000000000E+00 -4.434640807E+02  4.434640807E+02  0.000000000E+00  0.00000E+00  9.000E+00
      25     1     1     2     0     0 -2.071271643E+02 -1.242240902E+02  1.915486842E+01  2.726264767E+02  1.250000000E+02  0.00000E+00  9.000E+00
      25     1     1     2     0     0  2.396223015E+02  1.687050502E+02 -2.037422378E+02  3.781747490E+02  1.250000000E+02  0.00000E+00  9.000E+00
      21     1     1     2   501   511 -3.249513718E+01 -4.448095996E+01  3.668665323E+00  5.520823168E+01  8.052144102E-07  0.00000E+00  9.000E+00
#rwgt            1           1   3.9937702706196530E-002           3      466790           0
</event>
<event>
      5   9999  3.79277E-02  5.07525E+01 -1.00000E+00  1.38706E-01
      21    -1     0     0   502   512  0.000000000E+00  0.000000000E+00  4.113491607E+02  4.113491607E+02  0.000000000E+00  0.00000E+00  9.000E+00
      21    -1     0     0   501   502  0.000000000E+00  0.000000000E+00 -1.631579325E+02  1.631579325E+02  0.000000000E+00  0.00000E+00  9.000E+00
      25     1     1     2     0     0 -9.849748029E+01 -1.315414133E+01  2.711072110E+01  1.619715292E+02  1.250000000E+02  0.00000E+00  9.000E+00
      25     1     1     2     0     0  1.225688431E+02  5.783505349E+01 -1.361681661E+00  1.843769749E+02  1.250000000E+02  0.00000E+00  9.000E+00
      21     1     1     2   501   512 -2.407136277E+01 -4.468091217E+01  2.224421888E+02  2.281585891E+02  0.000000000E+00  0.00000E+00  9.000E+00
#rwgt            1           1   4.2782337583738492E-002           3      466970           0
</event>
<event>
      5   9999  3.79277E-02  1.68938E+01 -1.00000E+00  1.72653E-01
      21    -1     0     0   502   501  0.000000000E+00  0.000000000E+00  4.199595711E+01  4.199595711E+01  0.000000000E+00  0.00000E+00  9.000E+00
      21    -1     0     0   511   502  0.000000000E+00  0.000000000E+00 -1.357061569E+03  1.357061569E+03  0.000000000E+00  0.00000E+00  9.000E+00
      25     1     1     2     0     0  7.767752898E+01  1.501368151E+02 -4.110651331E+02  4.617081388E+02  1.250000000E+02  0.00000E+00  9.000E+00
      25     1     1     2     0     0 -6.411725433E+01 -1.602125209E+02 -6.774710140E+02  7.101908539E+02  1.250000000E+02  0.00000E+00  9.000E+00
      21     1     1     2   511   501 -1.356027465E+01  1.007570581E+01 -2.265294648E+02  2.271585335E+02  0.000000000E+00  0.00000E+00  9.000E+00
#rwgt            1           1   4.2713318332465902E-002           3      467155           0
</event>
<event>
      5   9999  3.79277E-02  9.31173E+01 -1.00000E+00  1.25237E-01
      21    -1     0     0   502   501  0.000000000E+00  0.000000000E+00  1.404547089E+03  1.404547089E+03  0.000000000E+00  0.00000E+00  9.000E+00
      -1    -1     0     0     0   502  0.000000000E+00  0.000000000E+00 -1.897770257E+02  1.897770257E+02  0.000000000E+00  0.00000E+00  9.000E+00
      25     1     1     2     0     0  1.446520735E+02  1.641681621E+02  1.242124064E+03  1.267427552E+03  1.250000000E+02  0.00000E+00  9.000E+00
      25     1     1     2     0     0 -1.281521086E+02 -7.252438255E+01  5.685892407E+01  2.013471784E+02  1.250000000E+02  0.00000E+00  9.000E+00
      -1     1     1     2     0   501 -1.649996489E+01 -9.164377956E+01 -8.421292519E+01  1.255493845E+02  3.162979880E-06  0.00000E+00  9.000E+00
#rwgt            1           1   4.7567823219169386E-002           3      467418           0
</event>
<event>
      5   9999  3.79277E-02  2.40020E+01 -1.00000E+00  1.60088E-01
      21    -1     0     0   511   501  0.000000000E+00  0.000000000E+00  9.766087565E+02  9.766087565E+02  0.000000000E+00  0.00000E+00  9.000E+00
      21    -1     0     0   501   502  0.000000000E+00  0.000000000E+00 -8.150577918E+02  8.150577918E+02  0.000000000E+00  0.00000E+00  9.000E+00
      25     1     1     2     0     0 -7.740599955E+01 -2.109148951E+02 -4.425562329E+02  5.118181327E+02  1.250000000E+02  0.00000E+00  9.000E+00
      25     1     1     2     0     0  9.926988192E+01  2.010121506E+02 -2.889356262E+02  3.864831047E+02  1.250000000E+02  0.00000E+00  9.000E+00
      21     1     1     2   511   502 -2.186388237E+01  9.902744527E+00  8.930428237E+02  8.933653109E+02  1.525878906E-05  0.00000E+00  9.000E+00
#rwgt            1           1   3.8551472097697201E-002           3      467549           0
</event>
<event>
      5   9999  3.79277E-02  1.96413E+02 -1.00000E+00  1.11935E-01
       2    -1     0     0   502     0  0.000000000E+00  0.000000000E+00  2.742707683E+03  2.742707683E+03  0.000000000E+00  0.00000E+00  9.000E+00
      21    -1     0     0   501   502  0.000000000E+00  0.000000000E+00 -3.146405213E+02  3.146405213E+02  0.000000000E+00  0.00000E+00  9.000E+00
      25     1     1     2     0     0 -2.658298274E+02 -1.071325294E+02 -1.407051496E+02  3.428787178E+02  1.250000000E+02  0.00000E+00  9.000E+00
      25     1     1     2     0     0  1.341833570E+02  2.528973790E+02  2.868539827E+02  4.241137406E+02  1.250000000E+02  0.00000E+00  9.000E+00
       2     1     1     2   501     0  1.316464704E+02 -1.457648496E+02  2.281918329E+03  2.290355746E+03  5.285799584E-05  0.00000E+00  9.000E+00
#rwgt            1           1   4.3328293094338340E-002           3      467811           0
</event>
<event>
      5   9999  3.79277E-02  6.97665E+01 -1.00000E+00  1.31294E-01
      21    -1     0     0   511   501  0.000000000E+00  0.000000000E+00  1.195083998E+02  1.195083998E+02  0.000000000E+00  0.00000E+00  9.000E+00
      21    -1     0     0   501   502  0.000000000E+00  0.000000000E+00 -2.333633862E+03  2.333633862E+03  0.000000000E+00  0.00000E+00  9.000E+00
      25     1     1     2     0     0  5.832989672E+01 -3.147591591E+02 -2.833940269E+02  4.454356065E+02  1.250000000E+02  0.00000E+00  9.000E+00
      25     1     1     2     0     0 -9.183226193E+01  3.759552129E+02 -1.874468051E+03  1.918080019E+03  1.250000000E+02  0.00000E+00  9.000E+00
      21     1     1     2   511   502  3.350236522E+01 -6.119605379E+01 -5.626338484E+01  8.962663638E+01  9.536743164E-07  0.00000E+00  9.000E+00
#rwgt            2          11   3.0446681620868036E-003           3      468301           0
</event>
<event>
      5   9999  3.79277E-02  1.24519E+01 -1.00000E+00  1.85356E-01
      21    -1     0     0   502   501  0.000000000E+00  0.000000000E+00  2.114476826E+02  2.114476826E+02  0.000000000E+00  0.00000E+00  9.000E+00
      21    -1     0     0   501   512  0.000000000E+00  0.000000000E+00 -3.946396968E+02  3.946396968E+02  0.000000000E+00  0.00000E+00  9.000E+00
      25     1     1     2     0     0 -1.662675145E+02  1.030343438E+02 -1.831393244E+02  2.956788368E+02  1.250000000E+02  0.00000E+00  9.000E+00
      25     1     1     2     0     0  1.762055744E+02 -9.553210705E+01  6.433813602E+01  2.448248020E+02  1.250000000E+02  0.00000E+00  9.000E+00
      21     1     1     2   502   512 -9.938059872E+00 -7.502236770E+00 -6.439082582E+01  6.558374067E+01  9.536743164E-07  0.00000E+00  9.000E+00
#rwgt            1           1   3.5322009812931945E-002           3      468471           0
</event>
<event>
      5   9999  3.79277E-02  9.23129E+01 -1.00000E+00  1.25411E-01
      21    -1     0     0   502   501  0.000000000E+00  0.000000000E+00  1.817045273E+02  1.817045273E+02  0.000000000E+00  0.00000E+00  9.000E+00
       2    -1     0     0   501     0  0.000000000E+00  0.000000000E+00 -1.103833925E+03  1.103833925E+03  0.000000000E+00  0.00000E+00  9.000E+00
      25     1     1     2     0     0 -7.062764038E+01 -7.324902049E+01 -8.126574600E+02  8.284870729E+02  1.250000000E+02  0.00000E+00  9.000E+00
      25     1     1     2     0     0  1.340936792E+02  1.402843034E+02  8.161046599E+01  2.448388628E+02  1.250000000E+02  0.00000E+00  9.000E+00
       2     1     1     2   502     0 -6.346603880E+01 -6.703528294E+01 -1.910824038E+02  2.122125168E+02  2.697398305E-06  0.00000E+00  9.000E+00
#rwgt            1           1   6.5710767846774848E-002           3      468739           0
</event>
<event>
      5   9999  3.79277E-02  4.66458E+01 -1.00000E+00  1.40818E-01
      21    -1     0     0   502   511  0.000000000E+00  0.000000000E+00  1.528226479E+02  1.528226479E+02  0.000000000E+00  0.00000E+00  9.000E+00
      21    -1     0     0   501   502  0.000000000E+00  0.000000000E+00 -4.586227547E+02  4.586227547E+02  0.000000000E+00  0.00000E+00  9.000E+00
      25     1     1     2     0     0  6.571083406E+01 -1.841641611E+02 -2.245778883E+02  3.229467136E+02  1.250000000E+02  0.00000E+00  9.000E+00
      25     1     1     2     0     0 -2.639125780E+01  1.590682769E+02 -1.118770955E+02  2.326815413E+02  1.250000000E+02  0.00000E+00  9.000E+00
      21     1     1     2   501   511 -3.931957625E+01  2.509588422E+01  3.065487697E+01  5.581714758E+01  4.768371582E-07  0.00000E+00  9.000E+00
#rwgt            1           1   3.8712129833617749E-002           3      468868           0
</event>
<event>
      5   9999  3.79277E-02  2.42557E+01 -1.00000E+00  1.59740E-01
      21    -1     0     0   502   501  0.000000000E+00  0.000000000E+00  5.540129268E+01  5.540129268E+01  0.000000000E+00  0.00000E+00  9.000E+00
      21    -1     0     0   501   512  0.000000000E+00  0.000000000E+00 -6.435697802E+02  6.435697802E+02  0.000000000E+00  0.00000E+00  9.000E+00
      25     1     1     2     0     0 -5.465500822E+01 -9.861915801E+01 -3.104607973E+02  3.531625899E+02  1.250000000E+02  0.00000E+00  9.000E+00
      25     1     1     2     0     0  3.288657257E+01  1.093183437E+02 -1.884729059E+02  2.533358703E+02  1.250000000E+02  0.00000E+00  9.000E+00
      21     1     1     2   502   512  2.176843565E+01 -1.069918564E+01 -8.923478429E+01  9.247261265E+01  1.348699152E-06  0.00000E+00  9.000E+00
#rwgt            1           1   4.1608226534797357E-002           3      468973           0
</event>
<event>
      5   9999  3.79277E-02  3.06116E+01 -1.00000E+00  1.52434E-01
      21    -1     0     0   502   511  0.000000000E+00  0.000000000E+00  8.294860564E+01  8.294860564E+01  0.000000000E+00  0.00000E+00  9.000E+00
      21    -1     0     0   501   502  0.000000000E+00  0.000000000E+00 -3.505151507E+02  3.505151507E+02  0.000000000E+00  0.00000E+00  9.000E+00
      25     1     1     2     0     0  4.442376247E+01 -8.907612487E+01 -1.191507289E+02  1.993236636E+02  1.250000000E+02  0.00000E+00  9.000E+00
      25     1     1     2     0     0 -1.642330778E+01  7.670508347E+01 -1.373138817E+02  2.015775210E+02  1.250000000E+02  0.00000E+00  9.000E+00
      21     1     1     2   501   511 -2.800045469E+01  1.237104139E+01 -1.110193454E+01  3.256257175E+01  6.951036328E-07  0.00000E+00  9.000E+00
#rwgt            1           1   3.3425892889624352E-002           3      469294           0
</event>
<event>
      5   9999  3.79277E-02  1.35820E+01 -1.00000E+00  1.81545E-01
      21    -1     0     0   502   512  0.000000000E+00  0.000000000E+00  1.772177377E+02  1.772177377E+02  0.000000000E+00  0.00000E+00  9.000E+00
      21    -1     0     0   501   502  0.000000000E+00  0.000000000E+00 -8.691933559E+02  8.691933559E+02  0.000000000E+00  0.00000E+00  9.000E+00
      25     1     1     2     0     0  1.838223979E+02  4.419587768E+01 -6.858386614E+02  7.223182256E+02  1.250000000E+02  0.00000E+00  9.000E+00
      25     1     1     2     0     0 -1.761839946E+02 -5.542643077E+01 -8.900106293E+01  2.401230484E+02  1.250000000E+02  0.00000E+00  9.000E+00
      21     1     1     2   501   512 -7.638403339E+00  1.123055309E+01  8.286410611E+01  8.396981963E+01  1.651812370E-06  0.00000E+00  9.000E+00
#rwgt            1           1   6.4472278687702680E-002           3      469402           0
</event>
<event>
      5   9999  3.79277E-02  5.26523E+01 -1.00000E+00  1.37807E-01
      21    -1     0     0   502   501  0.000000000E+00  0.000000000E+00  3.344297648E+02  3.344297648E+02  0.000000000E+00  0.00000E+00  9.000E+00
      21    -1     0     0   501   511  0.000000000E+00  0.000000000E+00 -2.065420258E+02  2.065420258E+02  0.000000000E+00  0.00000E+00  9.000E+00
      25     1     1     2     0     0  1.170657459E+02  6.528363101E+00  3.082767521E-01  1.713829146E+02  1.250000000E+02  0.00000E+00  9.000E+00
      25     1     1     2     0     0 -1.456735313E+02 -5.073085668E+01  1.988362711E+02  2.809897867E+02  1.250000000E+02  0.00000E+00  9.000E+00
      21     1     1     2   502   511  2.860778540E+01  4.420249358E+01 -7.125680888E+01  8.859908937E+01  9.536743164E-07  0.00000E+00  9.000E+00
#rwgt            1           1   4.0524995457566791E-002           3      469614           0
</event>
<event>
      5   9999  3.79277E-02  4.12466E+01 -1.00000E+00  1.44018E-01
       2    -1     0     0   502     0  0.000000000E+00  0.000000000E+00  1.797694778E+02  1.797694778E+02  0.000000000E+00  0.00000E+00  9.000E+00
      21    -1     0     0   501   502  0.000000000E+00  0.000000000E+00 -1.561309710E+03  1.561309710E+03  0.000000000E+00  0.00000E+00  9.000E+00
      25     1     1     2     0     0  1.393393535E+02  1.406335627E+02 -6.286751981E+02  6.708582257E+02  1.250000000E+02  0.00000E+00  9.000E+00
      25     1     1     2     0     0 -1.453033112E+02 -1.814467579E+02 -8.893249374E+02  9.276636365E+02  1.250000000E+02  0.00000E+00  9.000E+00
       2     1     1     2   501     0  5.963957688E+00  4.081319522E+01  1.364599035E+02  1.425573252E+02  5.722045898E-06  0.00000E+00  9.000E+00
#rwgt            1           1   4.4294607927030050E-002           3      469695           0
</event>
<event>
      5   9999  3.79277E-02  2.39229E+01 -1.00000E+00  1.60197E-01
      21    -1     0     0   502   501  0.000000000E+00  0.000000000E+00  3.579346494E+02  3.579346494E+02  0.000000000E+00  0.00000E+00  9.000E+00
      21    -1     0     0   501   511  0.000000000E+00  0.000000000E+00 -1.378957517E+02  1.378957517E+02  0.000000000E+00  0.00000E+00  9.000E+00
      25     1     1     2     0     0 -1.237078463E+02 -7.498863514E+01  1.260316995E+02  2.289888991E+02  1.250000000E+02  0.00000E+00  9.000E+00
      25     1     1     2     0     0  1.475876351E+02  7.642336799E+01  1.126508389E+02  2.365118447E+02  1.250000000E+02  0.00000E+00  9.000E+00
      21     1     1     2   502   511 -2.387978880E+01 -1.434732850E+00 -1.864364060E+01  3.032965721E+01  4.129530925E-07  0.00000E+00  9.000E+00
#rwgt            1           1   3.0296663589735144E-002           3      469772           0
</event>
<event>
      5   9999  3.79277E-02  2.77651E+01 -1.00000E+00  1.55412E-01
      21    -1     0     0   502   501  0.000000000E+00  0.000000000E+00  4.917526386E+02  4.917526386E+02  0.000000000E+00  0.00000E+00  9.000E+00
      -1    -1     0     0     0   502  0.000000000E+00  0.000000000E+00 -3.447662627E+02  3.447662627E+02  0.000000000E+00  0.00000E+00  9.000E+00
      25     1     1     2     0     0  1.373064181E+02 -6.025391170E+01  2.925009796E+02  3.516609296E+02  1.250000000E+02  0.00000E+00  9.000E+00
      25     1     1     2     0     0 -1.367570877E+02  8.801353169E+01  1.066369090E+02  2.311824239E+02  1.250000000E+02  0.00000E+00  9.000E+00
      -1     1     1     2     0   501 -5.493304458E-01 -2.775961999E+01 -2.521515126E+02  2.536755478E+02  2.697398305E-06  0.00000E+00  9.000E+00
#rwgt            1           1   4.3002772340158271E-002           3      469955           0
</event>
<event>
      5   9999  3.79277E-02  4.00618E+01 -1.00000E+00  1.44799E-01
      21    -1     0     0   502   511  0.000000000E+00  0.000000000E+00  1.502022796E+02  1.502022796E+02  0.000000000E+00  0.00000E+00  9.000E+00
      21    -1     0     0   501   502  0.000000000E+00  0.000000000E+00 -1.184149020E+03  1.184149020E+03  0.000000000E+00  0.00000E+00  9.000E+00
      25     1     1     2     0     0  1.650233018E+02 -9.869412620E+01 -1.131276008E+02  2.557265625E+02  1.250000000E+02  0.00000E+00  9.000E+00
      25     1     1     2     0     0 -1.278083412E+02  1.135264504E+02 -9.825061434E+02  1.005070420E+03  1.250000000E+02  0.00000E+00  9.000E+00
      21     1     1     2   501   511 -3.721496060E+01 -1.483232424E+01  6.168700388E+01  7.355431722E+01  1.907348633E-06  0.00000E+00  9.000E+00
#rwgt            1           1   4.5515928991610818E-002           3      470141           0
</event>
<event>
      5   9999  3.79277E-02  4.49879E+01 -1.00000E+00  1.41744E-01
      21    -1     0     0   502   501  0.000000000E+00  0.000000000E+00  1.133999343E+02  1.133999343E+02  0.000000000E+00  0.00000E+00  9.000E+00
      21    -1     0     0   501   512  0.000000000E+00  0.000000000E+00 -1.017926381E+03  1.017926381E+03  0.000000000E+00  0.00000E+00  9.000E+00
      25     1     1     2     0     0  1.269730719E+02  2.435544904E+02 -5.851785819E+02  6.584071108E+02  1.250000000E+02  0.00000E+00  9.000E+00
      25     1     1     2     0     0 -8.445438066E+01 -2.582537973E+02 -2.478036615E+02  3.884060000E+02  1.250000000E+02  0.00000E+00  9.000E+00
      21     1     1     2   502   512 -4.251869120E+01  1.469930688E+01 -7.154420378E+01  8.451320499E+01  0.000000000E+00  0.00000E+00  9.000E+00
#rwgt            1           1   4.0144940635992082E-002           3      470297           0
</event>
<event>
      5   9999  3.79277E-02  3.19743E+01 -1.00000E+00  1.51142E-01
      21    -1     0     0   502   501  0.000000000E+00  0.000000000E+00  4.297441072E+02  4.297441072E+02  0.000000000E+00  0.00000E+00  9.000E+00
      21    -1     0     0   501   511  0.000000000E+00  0.000000000E+00 -3.185770048E+02  3.185770048E+02  0.000000000E+00  0.00000E+00  9.000E+00
      25     1     1     2     0     0  3.104665480E+01 -1.620583771E+02  2.877653792E+02  3.544865665E+02  1.250000000E+02  0.00000E+00  9.000E+00
      25     1     1     2     0     0 -4.646483531E+01  1.340470745E+02  2.409281169E+01  1.906123361E+02  1.250000000E+02  0.00000E+00  9.000E+00
      21     1     1     2   502   511  1.541818051E+01  2.801130265E+01 -2.006910885E+02  2.032222094E+02  2.697398305E-06  0.00000E+00  9.000E+00
#rwgt            1           1   4.3660830613572781E-002           3      470524           0
</event>
<event>
      5   9999  3.79277E-02  5.66936E+01 -1.00000E+00  1.36032E-01
      21    -1     0     0   502   512  0.000000000E+00  0.000000000E+00  8.182407634E+02  8.182407634E+02  0.000000000E+00  0.00000E+00  9.000E+00
      21    -1     0     0   501   502  0.000000000E+00  0.000000000E+00 -4.799623050E+02  4.799623050E+02  0.000000000E+00  0.00000E+00  9.000E+00
      25     1     1     2     0     0  1.348177989E+02  1.192057670E+02 -3.874194567E+02  4.450895295E+02  1.250000000E+02  0.00000E+00  9.000E+00
      25     1     1     2     0     0 -1.746191395E+02 -7.883227039E+01  1.476050527E+02  2.722473550E+02  1.250000000E+02  0.00000E+00  9.000E+00
      21     1     1     2   501   512  3.980134062E+01 -4.037349666E+01  5.780928625E+02  5.808661839E+02  0.000000000E+00  0.00000E+00  9.000E+00
#rwgt            1           1   4.5709550126624303E-002           3      470666           0
</event>
<event>
      5   9999  3.79277E-02  2.07517E+02 -1.00000E+00  1.11068E-01
      -2    -1     0     0     0   501  0.000000000E+00  0.000000000E+00  2.001287245E+02  2.001287245E+02  0.000000000E+00  0.00000E+00  9.000E+00
      21    -1     0     0   501   502  0.000000000E+00  0.000000000E+00 -6.237376176E+02  6.237376176E+02  0.000000000E+00  0.00000E+00  9.000E+00
      25     1     1     2     0     0  2.723888917E+02  6.713756359E+01 -1.068732258E+02  3.251923233E+02  1.250000000E+02  0.00000E+00  9.000E+00
      25     1     1     2     0     0 -6.489937145E+01 -6.378368426E+01 -5.378328411E+01  1.637007283E+02  1.250000000E+02  0.00000E+00  9.000E+00
      -2     1     1     2     0   502 -2.074895202E+02 -3.353879328E+00 -2.629523832E+02  3.349732905E+02  0.000000000E+00  0.00000E+00  9.000E+00
#rwgt            1           1   3.7899461150396954E-002           3      470880           0
</event>
<event>
      5   9999  3.79277E-02  1.46279E+01 -1.00000E+00  1.78417E-01
      21    -1     0     0   502   501  0.000000000E+00  0.000000000E+00  5.898421405E+02  5.898421405E+02  0.000000000E+00  0.00000E+00  9.000E+00
      21    -1     0     0   511   502  0.000000000E+00  0.000000000E+00 -3.001328590E+02  3.001328590E+02  0.000000000E+00  0.00000E+00  9.000E+00
      25     1     1     2     0     0 -6.366153241E+01 -3.439033930E+02  3.272455800E+02  4.950121252E+02  1.250000000E+02  0.00000E+00  9.000E+00
      25     1     1     2     0     0  4.971284049E+01  3.483090719E+02 -2.261622727E+01  3.740682689E+02  1.250000000E+02  0.00000E+00  9.000E+00
      21     1     1     2   511   501  1.394869192E+01 -4.405678856E+00 -1.492007125E+01  2.089460549E+01  1.685873940E-07  0.00000E+00  9.000E+00
#rwgt            1           1   4.9554847757777069E-002           3      470913           0
</event>
<event>
      5   9999  3.79277E-02  3.89397E+01 -1.00000E+00  1.45567E-01
      21    -1     0     0   512   501  0.000000000E+00  0.000000000E+00  1.090533257E+03  1.090533257E+03  0.000000000E+00  0.00000E+00  9.000E+00
      21    -1     0     0   501   502  0.000000000E+00  0.000000000E+00 -1.311024230E+02  1.311024230E+02  0.000000000E+00  0.00000E+00  9.000E+00
      25     1     1     2     0     0 -2.004750885E+02 -2.191858297E+02  4.428908497E+02  5.477316804E+02  1.250000000E+02  0.00000E+00  9.000E+00
      25     1     1     2     0     0  2.090390103E+02  2.571721100E+02  3.325857458E+02  4.858735230E+02  1.250000000E+02  0.00000E+00  9.000E+00
      21     1     1     2   512   502 -8.563921869E+00 -3.798628038E+01  1.839542386E+02  1.880304767E+02  0.000000000E+00  0.00000E+00  9.000E+00
#rwgt            1           1   2.9257533921521053E-002           3      471125           0
</event>
<event>
      5   9999  3.79277E-02  1.70790E+01 -1.00000E+00  1.72233E-01
      21    -1     0     0   511   501  0.000000000E+00  0.000000000E+00  9.080444385E+02  9.080444385E+02  0.000000000E+00  0.00000E+00  9.000E+00
      21    -1     0     0   501   502  0.000000000E+00  0.000000000E+00 -1.078573115E+02  1.078573115E+02  0.000000000E+00  0.00000E+00  9.000E+00
      25     1     1     2     0     0  8.367923006E+00 -1.026696377E+02 -3.008579361E+01  1.647459609E+02  1.250000000E+02  0.00000E+00  9.000E+00
      25     1     1     2     0     0 -2.491797191E+01  1.068872109E+02  7.914508573E+02  8.087430004E+02  1.250000000E+02  0.00000E+00  9.000E+00
      21     1     1     2   511   502  1.655004890E+01 -4.217573186E+00  3.882206336E+01  4.241278871E+01  0.000000000E+00  0.00000E+00  9.000E+00
#rwgt            1           1   3.4037454407964622E-002           3      471232           0
</event>
<event>
      5   9999  3.79277E-02  8.01792E+01 -1.00000E+00  1.28302E-01
       3    -1     0     0   502     0  0.000000000E+00  0.000000000E+00  2.405638521E+03  2.405638521E+03  0.000000000E+00  0.00000E+00  9.000E+00
      21    -1     0     0   501   502  0.000000000E+00  0.000000000E+00 -4.611193211E+01  4.611193211E+01  0.000000000E+00  0.00000E+00  9.000E+00
      25     1     1     2     0     0 -1.842726825E+01  2.913783064E+02  9.974548374E+02  1.046796081E+03  1.250000000E+02  0.00000E+00  9.000E+00
      25     1     1     2     0     0  4.592935323E+01 -2.160633213E+02  8.653433451E+02  9.017965232E+02  1.250000000E+02  0.00000E+00  9.000E+00
       3     1     1     2   501     0 -2.750208498E+01 -7.531498507E+01  4.967284064E+02  5.031578494E+02  0.000000000E+00  0.00000E+00  9.000E+00
#rwgt            1           1   3.2634162556667103E-002           3      471465           0
</event>
<event>
      5   9999  3.79277E-02  1.95268E+02 -1.00000E+00  1.12028E-01
      21    -1     0     0   502   511  0.000000000E+00  0.000000000E+00  7.148333570E+02  7.148333570E+02  0.000000000E+00  0.00000E+00  9.000E+00
      21    -1     0     0   501   502  0.000000000E+00  0.000000000E+00 -2.784182373E+02  2.784182373E+02  0.000000000E+00  0.00000E+00  9.000E+00
      25     1     1     2     0     0  2.624461089E+01  3.068008481E+02  1.838191185E+02  3.797762608E+02  1.250000000E+02  0.00000E+00  9.000E+00
      25     1     1     2     0     0 -2.159068625E+02 -2.603486231E+02  1.320981858E+02  3.840209754E+02  1.250000000E+02  0.00000E+00  9.000E+00
      21     1     1     2   501   511  1.896622516E+02 -4.645222496E+01  1.204978154E+02  2.294543580E+02  1.348699152E-06  0.00000E+00  9.000E+00
#rwgt            2          11   2.5017817015889469E-003           3      471592           0
</event>
<event>
      5   9999  3.79277E-02  2.00486E+01 -1.00000E+00  1.66282E-01
      21    -1     0     0   502   501  0.000000000E+00  0.000000000E+00  2.130014899E+03  2.130014899E+03  0.000000000E+00  0.00000E+00  9.000E+00
      21    -1     0     0   501   512  0.000000000E+00  0.000000000E+00 -7.899030365E+01  7.899030365E+01  0.000000000E+00  0.00000E+00  9.000E+00
      25     1     1     2     0     0  5.772799034E+01  1.334154196E+02  1.574660323E+03  1.586288854E+03  1.250000000E+02  0.00000E+00  9.000E+00
      25     1     1     2     0     0 -4.046628510E+01 -1.436125447E+02  5.304497748E+02  5.650345536E+02  1.250000000E+02  0.00000E+00  9.000E+00
      21     1     1     2   502   512 -1.726170524E+01  1.019712515E+01 -5.408550284E+01  5.768179476E+01  1.507891493E-06  0.00000E+00  9.000E+00
#rwgt            1           1   8.5060753159090674E-002           3      471702           0
</event>
<event>
      5   9999  3.79277E-02  1.82283E+02 -1.00000E+00  1.13134E-01
      21    -1     0     0   511   501  0.000000000E+00  0.000000000E+00  2.114777137E+02  2.114777137E+02  0.000000000E+00  0.00000E+00  9.000E+00
      21    -1     0     0   501   502  0.000000000E+00  0.000000000E+00 -1.166217504E+03  1.166217504E+03  0.000000000E+00  0.00000E+00  9.000E+00
      25     1     1     2     0     0  8.383676800E+00  5.144695535E+01 -8.497504214E+02  8.604753651E+02  1.250000000E+02  0.00000E+00  9.000E+00
      25     1     1     2     0     0  6.052652664E+01 -2.202029065E+02 -1.837423859E+02  3.186519180E+02  1.250000000E+02  0.00000E+00  9.000E+00
      21     1     1     2   511   502 -6.891020344E+01  1.687559512E+02  7.875301651E+01  1.985679350E+02  3.568322551E-06  0.00000E+00  9.000E+00
#rwgt            1           1   3.9763211917082146E-002           3      471925           0
</event>
<event>
      5   9999  3.79277E-02  5.02040E+01 -1.00000E+00  1.38975E-01
      21    -1     0     0   502   512  0.000000000E+00  0.000000000E+00  5.761007503E+01  5.761007503E+01  0.000000000E+00  0.00000E+00  9.000E+00
      21    -1     0     0   501   502  0.000000000E+00  0.000000000E+00 -1.012721474E+03  1.012721474E+03  0.000000000E+00  0.00000E+00  9.000E+00
      25     1     1     2     0     0  1.585304121E+02  9.413327536E+01 -6.196389447E+02  6.584606191E+02  1.250000000E+02  0.00000E+00  9.000E+00
      25     1     1     2     0     0 -1.278461602E+02 -5.439761702E+01 -2.419606967E+02  3.057347219E+02  1.250000000E+02  0.00000E+00  9.000E+00
      21     1     1     2   501   512 -3.068425186E+01 -3.973565834E+01 -9.351175772E+01  1.061362082E+02  1.348699152E-06  0.00000E+00  9.000E+00
#rwgt            1           1   3.9555846648109363E-002           3      472053           0
</event>
<event>
      5   9999 -3.79277E-02  8.32520E+01 -1.00000E+00  1.27517E-01
      21    -1     0     0   502   511  0.000000000E+00  0.000000000E+00  1.016461897E+03  1.016461897E+03  0.000000000E+00  0.00000E+00  9.000E+00
      21    -1     0     0   501   502  0.000000000E+00  0.000000000E+00 -7.633337784E+02  7.633337784E+02  0.000000000E+00  0.00000E+00  9.000E+00
      25     1     1     2     0     0 -1.227126393E+02 -8.771550253E+01  2.890871518E+01  1.980230164E+02  1.250000000E+02  0.00000E+00  9.000E+00
      25     1     1     2     0     0  1.239269305E+02  4.472327982E+00 -6.653816673E+02  6.882845697E+02  1.250000000E+02  0.00000E+00  9.000E+00
      21     1     1     2   501   511 -1.214291229E+00  8.324317455E+01  8.896010703E+02  8.934880888E+02  0.000000000E+00  0.00000E+00  9.000E+00
#rwgt            1           1  -5.9263347762680677E-002           3      472177           0
</event>
<event>
      5   9999  3.79277E-02  1.46405E+02 -1.00000E+00  1.16813E-01
      21    -1     0     0   512   501  0.000000000E+00  0.000000000E+00  1.550387323E+02  1.550387323E+02  0.000000000E+00  0.00000E+00  9.000E+00
      21    -1     0     0   501   502  0.000000000E+00  0.000000000E+00 -4.794475975E+02  4.794475975E+02  0.000000000E+00  0.00000E+00  9.000E+00
      25     1     1     2     0     0  1.237284561E+01  1.584712559E+02 -6.350667256E+01  2.119535886E+02  1.250000000E+02  0.00000E+00  9.000E+00
      25     1     1     2     0     0 -9.463561875E+01 -3.736248328E+01 -2.157865413E+02  2.693337835E+02  1.250000000E+02  0.00000E+00  9.000E+00
      21     1     1     2   512   502  8.226277314E+01 -1.211087726E+02 -4.511565125E+01  1.531989577E+02  1.846782373E-06  0.00000E+00  9.000E+00
#rwgt            2          11   2.2614431680030452E-003           3      472414           0
</event>
<event>
      5   9999  3.79277E-02  1.64422E+01 -1.00000E+00  1.73708E-01
      21    -1     0     0   511   501  0.000000000E+00  0.000000000E+00  2.664301964E+02  2.664301964E+02  0.000000000E+00  0.00000E+00  9.000E+00
      21    -1     0     0   501   502  0.000000000E+00  0.000000000E+00 -2.513713677E+02  2.513713677E+02  0.000000000E+00  0.00000E+00  9.000E+00
      25     1     1     2     0     0  7.777294419E+01  3.602455480E+01  1.012315139E+02  1.822614024E+02  1.250000000E+02  0.00000E+00  9.000E+00
      25     1     1     2     0     0 -7.022838994E+01 -5.063370397E+01 -1.826572607E+02  2.376646242E+02  1.250000000E+02  0.00000E+00  9.000E+00
      21     1     1     2   511   502 -7.544554252E+00  1.460914917E+01  9.648457548E+01  9.787553752E+01  1.348699152E-06  0.00000E+00  9.000E+00
#rwgt            1           1   3.6911607140581698E-002           3      472464           0
</event>
<event>
      5   9999  3.79277E-02  4.35127E+01 -1.00000E+00  1.42609E-01
      21    -1     0     0   502   512  0.000000000E+00  0.000000000E+00  7.722284146E+01  7.722284146E+01  0.000000000E+00  0.00000E+00  9.000E+00
      21    -1     0     0   501   502  0.000000000E+00  0.000000000E+00 -6.487679263E+02  6.487679263E+02  0.000000000E+00  0.00000E+00  9.000E+00
      25     1     1     2     0     0 -9.502506348E+00 -5.482171510E+01 -2.225047670E+01  1.386210727E+02  1.250000000E+02  0.00000E+00  9.000E+00
      25     1     1     2     0     0  1.246761633E+01  1.141020001E+01 -5.195974710E+02  5.346888496E+02  1.250000000E+02  0.00000E+00  9.000E+00
      21     1     1     2   501   512 -2.965109983E+00  4.341151509E+01 -2.969713716E+01  5.268084543E+01  1.118282261E-06  0.00000E+00  9.000E+00
#rwgt            1           1   4.9918706885437474E-002           3      472641           0
</event>
<event>
      5   9999  3.79277E-02  2.76777E+01 -1.00000E+00  1.55511E-01
      21    -1     0     0   502   501  0.000000000E+00  0.000000000E+00  3.263106933E+02  3.263106933E+02  0.000000000E+00  0.00000E+00  9.000E+00
      21    -1     0     0   511   502  0.000000000E+00  0.000000000E+00 -3.364479824E+02  3.364479824E+02  0.000000000E+00  0.00000E+00  9.000E+00
      25     1     1     2     0     0 -3.577626624E+01  1.592745890E+02 -2.311611535E+02  3.093684128E+02  1.250000000E+02  0.00000E+00  9.000E+00
      25     1     1     2     0     0  1.933101671E+01 -1.815368092E+02  2.346729033E+02  3.225301115E+02  1.250000000E+02  0.00000E+00  9.000E+00
      21     1     1     2   511   501  1.644524953E+01  2.226222020E+01 -1.364903898E+01  3.086015141E+01  3.769728732E-07  0.00000E+00  9.000E+00
#rwgt            1           1   3.0724843634532692E-002           3      472764           0
</event>
<event>
      5   9999  3.79277E-02  6.67321E+01 -1.00000E+00  1.32281E-01
      21    -1     0     0   502   501  0.000000000E+00  0.000000000E+00  5.459543736E+02  5.459543736E+02  0.000000000E+00  0.00000E+00  9.000E+00
      21    -1     0     0   501   512  0.000000000E+00  0.000000000E+00 -1.556208700E+02  1.556208700E+02  0.000000000E+00  0.00000E+00  9.000E+00
      25     1     1     2     0     0  2.049513248E+02 -6.661811385E+01  3.610441947E+02  4.386581005E+02  1.250000000E+02  0.00000E+00  9.000E+00
      25     1     1     2     0     0 -1.409072040E+02  4.786927809E+01  1.730305109E+01  1.951171533E+02  1.250000000E+02  0.00000E+00  9.000E+00
      21     1     1     2   502   512 -6.404412078E+01  1.874883576E+01  1.198625776E+01  6.779998985E+01  1.011524364E-06  0.00000E+00  9.000E+00
#rwgt            1           1   4.3492246036159837E-002           3      473020           0
</event>
<event>
      5   9999 -5.87896E-02  9.82244E+00 -1.00000E+00  1.96661E-01
      21    -1     0     0   502   501  0.000000000E+00  0.000000000E+00  8.438124876E+02  8.438124876E+02  0.000000000E+00  0.00000E+00  9.000E+00
      21    -1     0     0   511   502  0.000000000E+00  0.000000000E+00 -6.751853145E+01  6.751853145E+01  0.000000000E+00  0.00000E+00  9.000E+00
      25     1     1     2     0     0  1.363267898E+01  1.943581010E+02  4.221839170E+02  4.814822750E+02  1.250000000E+02  0.00000E+00  9.000E+00
      25     1     1     2     0     0 -1.766068896E+01 -1.853995618E+02  3.550677076E+02  4.199797310E+02  1.250000000E+02  0.00000E+00  9.000E+00
      21     1     1     2   511   501  4.028009973E+00 -8.958539206E+00 -9.576684906E-01  9.869013020E+00  2.517811246E-07  0.00000E+00  9.000E+00
#rwgt            1           1 -0.69319437459991806                3      473109           0
</event>
<event>
      5   9999  3.79277E-02  1.82459E+02  7.55638E-03  1.13119E-01
      -2    -1     0     0     0   501  0.000000000E+00  0.000000000E+00  1.360406750E+02  1.360406750E+02  0.000000000E+00  0.00000E+00  9.000E+00
       2    -1     0     0   502     0  0.000000000E+00  0.000000000E+00 -1.221417452E+03  1.221417452E+03  0.000000000E+00  0.00000E+00  9.000E+00
      25     1     1     2     0     0  1.364884024E+02 -2.060006007E+01 -4.414746341E+02  4.791432970E+02  1.250000000E+02  0.00000E+00  9.000E+00
      25     1     1     2     0     0 -1.752246373E+02  1.988994730E+02 -6.305965657E+02  6.953716291E+02  1.250000000E+02  0.00000E+00  9.000E+00
      21     1     1     2   502   501  3.873623490E+01 -1.782994129E+02 -1.330557760E+01  1.829432014E+02  5.555715655E-06  0.00000E+00  9.000E+00
#rwgt            3           4   3.9963947583413797E-005           3      473683           0
</event>
<event>
      5   9999  3.79277E-02  6.92172E+01 -1.00000E+00  1.31468E-01
      21    -1     0     0   511   501  0.000000000E+00  0.000000000E+00  1.361816489E+02  1.361816489E+02  0.000000000E+00  0.00000E+00  9.000E+00
      21    -1     0     0   501   502  0.000000000E+00  0.000000000E+00 -1.271783252E+03  1.271783252E+03  0.000000000E+00  0.00000E+00  9.000E+00
      25     1     1     2     0     0  3.300007285E+02 -4.639457136E+01 -7.189754352E+02  8.022490970E+02  1.250000000E+02  0.00000E+00  9.000E+00
      25     1     1     2     0     0 -3.289019167E+02 -2.281393645E+01 -4.024553837E+02  5.350628770E+02  1.250000000E+02  0.00000E+00  9.000E+00
      21     1     1     2   511   502 -1.098811813E+00  6.920850781E+01 -1.417078399E+01  7.065292676E+01  1.215700987E-06  0.00000E+00  9.000E+00
#rwgt            1           1   3.9324761403128475E-002           3      473702           0
</event>
<event>
      5   9999  3.79277E-02  9.33641E+01 -1.00000E+00  1.25184E-01
      21    -1     0     0   502   501  0.000000000E+00  0.000000000E+00  1.039714809E+02  1.039714809E+02  0.000000000E+00  0.00000E+00  9.000E+00
      21    -1     0     0   501   512  0.000000000E+00  0.000000000E+00 -1.449444761E+03  1.449444761E+03  0.000000000E+00  0.00000E+00  9.000E+00
      25     1     1     2     0     0  8.139651959E+01 -1.440524778E+01 -4.506062809E+02  4.748725355E+02  1.250000000E+02  0.00000E+00  9.000E+00
      25     1     1     2     0     0 -5.908729952E+01  1.050648337E+02  5.119695646E+00  1.737271986E+02  1.250000000E+02  0.00000E+00  9.000E+00
      21     1     1     2   502   512 -2.230922007E+01 -9.065958588E+01 -8.999866944E+02  9.048165074E+02  1.078959322E-05  0.00000E+00  9.000E+00
#rwgt            1           1   5.1014021386101435E-002           3      473817           0
</event>
<event>
      5   9999  3.79277E-02  3.76329E+01 -1.00000E+00  1.46503E-01
      21    -1     0     0   502   501  0.000000000E+00  0.000000000E+00  3.571232197E+02  3.571232197E+02  0.000000000E+00  0.00000E+00  9.000E+00
      21    -1     0     0   511   502  0.000000000E+00  0.000000000E+00 -1.377944696E+02  1.377944696E+02  0.000000000E+00  0.00000E+00  9.000E+00
      25     1     1     2     0     0  1.211758789E+02  1.110480040E+02  1.086548997E+02  2.333369667E+02  1.250000000E+02  0.00000E+00  9.000E+00
      25     1     1     2     0     0 -8.722617351E+01 -1.272854704E+02  1.006642040E+02  2.226393458E+02  1.250000000E+02  0.00000E+00  9.000E+00
      21     1     1     2   511   501 -3.394970535E+01  1.623746637E+01  1.000964635E+01  3.894137680E+01  3.769728732E-07  0.00000E+00  9.000E+00
#rwgt            1           1   3.9847812996737550E-002           3      473953           0
</event>
<event>
      5   9999  3.79277E-02  8.01813E+00 -1.00000E+00  2.07542E-01
      21    -1     0     0   502   512  0.000000000E+00  0.000000000E+00  1.295476863E+02  1.295476863E+02  0.000000000E+00  0.00000E+00  9.000E+00
      21    -1     0     0   501   502  0.000000000E+00  0.000000000E+00 -4.418585273E+02  4.418585273E+02  0.000000000E+00  0.00000E+00  9.000E+00
      25     1     1     2     0     0  7.746250881E+01 -1.768958181E+01  6.103582718E+01  1.601990442E+02  1.250000000E+02  0.00000E+00  9.000E+00
      25     1     1     2     0     0 -8.274237653E+01  2.372393062E+01 -3.735312108E+02  4.031869184E+02  1.250000000E+02  0.00000E+00  9.000E+00
      21     1     1     2   501   512  5.279867713E+00 -6.034348803E+00  1.845426023E-01  8.020250901E+00  7.520105406E-08  0.00000E+00  9.000E+00
#rwgt            1           1   3.4411466879057703E-002           3      474115           0
</event>
<event>
      5   9999  3.79277E-02  1.20117E+02 -1.00000E+00  1.20350E-01
      21    -1     0     0   502   501  0.000000000E+00  0.000000000E+00  3.211809637E+01  3.211809637E+01  0.000000000E+00  0.00000E+00  9.000E+00
       2    -1     0     0   501     0  0.000000000E+00  0.000000000E+00 -2.184581318E+03  2.184581318E+03  0.000000000E+00  0.00000E+00  9.000E+00
      25     1     1     2     0     0 -1.159434600E+02  1.350026348E+02 -6.874563116E+02  7.210338257E+02  1.250000000E+02  0.00000E+00  9.000E+00
      25     1     1     2     0     0  6.185828029E-01 -1.014126693E+02 -1.091882706E+03  1.103683721E+03  1.250000000E+02  0.00000E+00  9.000E+00
       2     1     1     2   502     0  1.153248772E+02 -3.358996548E+01 -3.731242038E+02  3.919818676E+02  5.394796609E-06  0.00000E+00  9.000E+00
#rwgt            1           1   3.7545012318566641E-002           3      474636           0
</event>
<event>
      5   9999  3.79277E-02  8.40964E+01 -1.00000E+00  1.27308E-01
       2    -1     0     0   502     0  0.000000000E+00  0.000000000E+00  1.684076307E+03  1.684076307E+03  0.000000000E+00  0.00000E+00  9.000E+00
      21    -1     0     0   501   502  0.000000000E+00  0.000000000E+00 -1.241285397E+02  1.241285397E+02  0.000000000E+00  0.00000E+00  9.000E+00
      25     1     1     2     0     0  1.177386885E+02  3.254063883E+02  4.665911207E+02  5.942087093E+02  1.250000000E+02  0.00000E+00  9.000E+00
      25     1     1     2     0     0 -1.992153156E+02 -3.462334990E+02  7.342128074E+02  8.451377547E+02  1.250000000E+02  0.00000E+00  9.000E+00
       2     1     1     2   501     0  8.147662712E+01  2.082711066E+01  3.591438393E+02  3.688583829E+02  6.607249480E-06  0.00000E+00  9.000E+00
#rwgt            1           1   4.8413902828382503E-002           3      474729           0
</event>
<event>
      5   9999  3.79277E-02  2.44181E+01 -1.00000E+00  1.59521E-01
      21    -1     0     0   502   501  0.000000000E+00  0.000000000E+00  7.881429487E+01  7.881429487E+01  0.000000000E+00  0.00000E+00  9.000E+00
      21    -1     0     0   511   502  0.000000000E+00  0.000000000E+00 -6.932211072E+02  6.932211072E+02  0.000000000E+00  0.00000E+00  9.000E+00
      25     1     1     2     0     0  1.057382265E+02  3.717912878E+00 -4.687406135E+02  4.965250831E+02  1.250000000E+02  0.00000E+00  9.000E+00
      25     1     1     2     0     0 -1.177353649E+02 -2.498554419E+01 -5.563345601E+01  1.822250669E+02  1.250000000E+02  0.00000E+00  9.000E+00
      21     1     1     2   511   501  1.199713846E+01  2.126763131E+01 -9.003274285E+01  9.328525210E+01  9.536743164E-07  0.00000E+00  9.000E+00
#rwgt            1           1   3.2455907802069979E-002           3      474870           0
</event>
<event>
      5   9999  3.79277E-02  1.24893E+02 -1.00000E+00  1.19636E-01
      21    -1     0     0   502   501  0.000000000E+00  0.000000000E+00  1.242130772E+03  1.242130772E+03  0.000000000E+00  0.00000E+00  9.000E+00
       2    -1     0     0   501     0  0.000000000E+00  0.000000000E+00 -2.853539169E+02  2.853539169E+02  0.000000000E+00  0.00000E+00  9.000E+00
      25     1     1     2     0     0 -2.913585052E+02 -3.524488160E+02  3.530885450E+02  5.911061386E+02  1.250000000E+02  0.00000E+00  9.000E+00
      25     1     1     2     0     0  2.166791096E+02  4.525554167E+02  6.233951995E+02  8.099400079E+02  1.250000000E+02  0.00000E+00  9.000E+00
       2     1     1     2   502     0  7.467939557E+01 -1.001066007E+02 -1.970688901E+01  1.264385428E+02  3.171952890E-06  0.00000E+00  9.000E+00
#rwgt            1           1  0.12208294973063970                3      475041           0
</event>
<event>
      5   9999  3.79277E-02  4.50297E+01 -1.00000E+00  1.41721E-01
      21    -1     0     0   511   501  0.000000000E+00  0.000000000E+00  6.719234930E+02  6.719234930E+02  0.000000000E+00  0.00000E+00  9.000E+00
      21    -1     0     0   501   502  0.000000000E+00  0.000000000E+00 -5.842025212E+01  5.842025212E+01  0.000000000E+00  0.00000E+00  9.000E+00
      25     1     1     2     0     0 -7.950944967E+01  7.953974506E+00  3.200743917E+02  3.527855361E+02  1.250000000E+02  0.00000E+00  9.000E+00
      25     1     1     2     0     0  3.473090398E+01 -3.204247124E+00  6.577140890E+01  1.454901410E+02  1.250000000E+02  0.00000E+00  9.000E+00
      21     1     1     2   511   502  4.477854569E+01 -4.749727382E+00  2.276574404E+02  2.320680681E+02  3.814697266E-06  0.00000E+00  9.000E+00
#rwgt            1           1   3.7010185996566504E-002           3      475331           0
</event>
<event>
      5   9999  3.79277E-02  1.33021E+01 -1.00000E+00  1.82444E-01
      21    -1     0     0   502   501  0.000000000E+00  0.000000000E+00  4.223932895E+02  4.223932895E+02  0.000000000E+00  0.00000E+00  9.000E+00
       2    -1     0     0   501     0  0.000000000E+00  0.000000000E+00 -2.219386289E+02  2.219386289E+02  0.000000000E+00  0.00000E+00  9.000E+00
      25     1     1     2     0     0  1.042473738E+02  3.205185742E+01  2.891448166E+02  3.333535082E+02  1.250000000E+02  0.00000E+00  9.000E+00
      25     1     1     2     0     0 -1.050756267E+02 -4.532810750E+01  4.602360296E+01  1.756095006E+02  1.250000000E+02  0.00000E+00  9.000E+00
       2     1     1     2   502     0  8.282529243E-01  1.327625008E+01 -1.347137590E+02  1.353689096E+02  1.907348633E-06  0.00000E+00  9.000E+00
#rwgt            1           1   5.5726284319285044E-002           3      475409           0
</event>
<event>
      5   9999  3.79277E-02  8.21557E+01 -1.00000E+00  1.27793E-01
      21    -1     0     0   502   511  0.000000000E+00  0.000000000E+00  5.347442463E+02  5.347442463E+02  0.000000000E+00  0.00000E+00  9.000E+00
      21    -1     0     0   501   502  0.000000000E+00  0.000000000E+00 -2.746348865E+02  2.746348865E+02  0.000000000E+00  0.00000E+00  9.000E+00
      25     1     1     2     0     0 -1.764899430E+01 -4.510856116E+01  7.455454369E+01  1.533937720E+02  1.250000000E+02  0.00000E+00  9.000E+00
      25     1     1     2     0     0  8.827297022E+01  3.134522037E+00 -2.055882693E+02  2.563073915E+02  1.250000000E+02  0.00000E+00  9.000E+00
      21     1     1     2   501   511 -7.062397593E+01  4.197403913E+01  3.911430854E+02  3.996779693E+02  5.394796609E-06  0.00000E+00  9.000E+00
#rwgt            1           1   4.8903733038108098E-002           3      475670           0
</event>
<event>
      5   9999  3.79277E-02  1.31695E+02 -1.00000E+00  1.18679E-01
      21    -1     0     0   502   501  0.000000000E+00  0.000000000E+00  6.436179541E+02  6.436179541E+02  0.000000000E+00  0.00000E+00  9.000E+00
      21    -1     0     0   512   502  0.000000000E+00  0.000000000E+00 -1.296735847E+02  1.296735847E+02  0.000000000E+00  0.00000E+00  9.000E+00
      25     1     1     2     0     0  9.077291734E+01  5.977401726E+01  4.205280992E+02  4.519751518E+02  1.250000000E+02  0.00000E+00  9.000E+00
      25     1     1     2     0     0  4.079939131E+01 -6.546563694E+01 -1.907289239E+01  1.481185848E+02  1.250000000E+02  0.00000E+00  9.000E+00
      21     1     1     2   512   501 -1.315723087E+02  5.691619680E+00  1.124891627E+02  1.731978021E+02  3.015782986E-06  0.00000E+00  9.000E+00
#rwgt            1           1   2.4588748018834455E-002           3      475938           0
</event>
<event>
      5   9999  3.79277E-02  7.21763E+01 -1.00000E+00  1.30551E-01
       2    -1     0     0   502     0  0.000000000E+00  0.000000000E+00  9.965802522E+02  9.965802522E+02  0.000000000E+00  0.00000E+00  9.000E+00
      21    -1     0     0   501   502  0.000000000E+00  0.000000000E+00 -2.244123478E+02  2.244123478E+02  0.000000000E+00  0.00000E+00  9.000E+00
      25     1     1     2     0     0  2.412364724E+01 -1.956772285E+02  2.419415294E+01  2.346953028E+02  1.250000000E+02  0.00000E+00  9.000E+00
      25     1     1     2     0     0  2.668114867E+01  2.469440697E+02  4.746934781E+01  2.820843779E+02  1.250000000E+02  0.00000E+00  9.000E+00
       2     1     1     2   501     0 -5.080479592E+01 -5.126684117E+01  7.005044036E+02  7.042129193E+02  1.321449896E-05  0.00000E+00  9.000E+00
#rwgt            1           1  0.46203082010294017                3      476016           0
</event>
<event>
      5   9999  3.79277E-02  7.99427E+00 -1.00000E+00  2.07711E-01
      -1    -1     0     0     0   501  0.000000000E+00  0.000000000E+00  3.055660227E+02  3.055660227E+02  0.000000000E+00  0.00000E+00  9.000E+00
      21    -1     0     0   501   502  0.000000000E+00  0.000000000E+00 -1.226590435E+03  1.226590435E+03  0.000000000E+00  0.00000E+00  9.000E+00
      25     1     1     2     0     0 -8.709481817E+01  4.627177416E+01 -5.157879115E+02  5.398043665E+02  1.250000000E+02  0.00000E+00  9.000E+00
      25     1     1     2     0     0  8.218626750E+01 -3.996189813E+01 -6.901597205E+02  7.073167436E+02  1.250000000E+02  0.00000E+00  9.000E+00
      -1     1     1     2     0   502  4.908550672E+00 -6.309876031E+00  2.849232196E+02  2.850353478E+02  8.529922400E-06  0.00000E+00  9.000E+00
#rwgt            1           1   5.1931855495771652E-002           3      476079           0
</event>
<event>
      5   9999  3.79277E-02  8.71657E+01 -1.00000E+00  1.26572E-01
      21    -1     0     0   511   501  0.000000000E+00  0.000000000E+00  3.305481741E+02  3.305481741E+02  0.000000000E+00  0.00000E+00  9.000E+00
      21    -1     0     0   501   502  0.000000000E+00  0.000000000E+00 -4.586134530E+02  4.586134530E+02  0.000000000E+00  0.00000E+00  9.000E+00
      25     1     1     2     0     0 -9.094279764E+01  9.247805569E+01 -1.181761232E+01  1.805199135E+02  1.250000000E+02  0.00000E+00  9.000E+00
      25     1     1     2     0     0  3.788761248E+00 -9.105380037E+01 -3.372689829E+02  3.710532524E+02  1.250000000E+02  0.00000E+00  9.000E+00
      21     1     1     2   511   502  8.715403639E+01 -1.424255320E+00  2.210213164E+02  2.375884611E+02  2.697398305E-06  0.00000E+00  9.000E+00
#rwgt            1           1   3.0146190640774281E-002           3      476414           0
</event>
<event>
      5   9999  3.79277E-02  5.99090E+01 -1.00000E+00  1.34739E-01
      -3    -1     0     0     0   501  0.000000000E+00  0.000000000E+00  2.271077907E+02  2.271077907E+02  0.000000000E+00  0.00000E+00  9.000E+00
      21    -1     0     0   501   502  0.000000000E+00  0.000000000E+00 -7.084025182E+02  7.084025182E+02  0.000000000E+00  0.00000E+00  9.000E+00
      25     1     1     2     0     0  1.072266081E+01 -1.812872662E+02 -3.103108250E+02  3.806545106E+02  1.250000000E+02  0.00000E+00  9.000E+00
      25     1     1     2     0     0 -6.835962199E+01  1.649451314E+02 -3.240237364E+02  3.905077669E+02  1.250000000E+02  0.00000E+00  9.000E+00
      -3     1     1     2     0   502  5.763696118E+01  1.634213479E+01  1.530398339E+02  1.643480314E+02  3.814697266E-06  0.00000E+00  9.000E+00
#rwgt            1           1   4.5949111513114878E-002           3      476503           0
</event>
<event>
      5   9999  3.79277E-02  4.61770E+01 -1.00000E+00  1.41076E-01
      21    -1     0     0   502   501  0.000000000E+00  0.000000000E+00  2.124740664E+03  2.124740664E+03  0.000000000E+00  0.00000E+00  9.000E+00
      21    -1     0     0   501   511  0.000000000E+00  0.000000000E+00 -2.151362115E+01  2.151362115E+01  0.000000000E+00  0.00000E+00  9.000E+00
      25     1     1     2     0     0 -1.057479905E+01  2.871777992E+01  2.592510126E+02  2.894350096E+02  1.250000000E+02  0.00000E+00  9.000E+00
      25     1     1     2     0     0 -3.711782820E-01 -7.357864641E+01  1.686134205E+03  1.692361519E+03  1.250000000E+02  0.00000E+00  9.000E+00
      21     1     1     2   502   511  1.094597733E+01  4.486086649E+01  1.578418255E+02  1.644577564E+02  2.697398305E-06  0.00000E+00  9.000E+00
#rwgt            1           1  0.13921571049283132                3      476569           0
</event>
<event>
      5   9999  3.79277E-02  8.43099E+01 -1.00000E+00  1.27256E-01
      21    -1     0     0   502   501  0.000000000E+00  0.000000000E+00  6.294871781E+02  6.294871781E+02  0.000000000E+00  0.00000E+00  9.000E+00
      21    -1     0     0   512   502  0.000000000E+00  0.000000000E+00 -3.172588770E+02  3.172588770E+02  0.000000000E+00  0.00000E+00  9.000E+00
      25     1     1     2     0     0  1.645881192E+02 -2.918929460E+02  2.987699404E+02  4.660249115E+02  1.250000000E+02  0.00000E+00  9.000E+00
      25     1     1     2     0     0 -2.481885164E+02  2.809779392E+02 -9.664457424E-01  3.951861283E+02  1.250000000E+02  0.00000E+00  9.000E+00
      21     1     1     2   512   501  8.360039719E+01  1.091500676E+01  1.442480642E+01  8.553501519E+01  1.261592536E-06  0.00000E+00  9.000E+00
#rwgt            1           1   5.1286094050608827E-002           3      476760           0
</event>
<event>
      5   9999  3.79277E-02  4.38665E+01 -1.00000E+00  1.42398E-01
      21    -1     0     0   511   501  0.000000000E+00  0.000000000E+00  6.945243819E+01  6.945243819E+01  0.000000000E+00  0.00000E+00  9.000E+00
      21    -1     0     0   501   502  0.000000000E+00  0.000000000E+00 -9.266393517E+02  9.266393517E+02  0.000000000E+00  0.00000E+00  9.000E+00
      25     1     1     2     0     0 -1.003255254E+02  6.005361999E+01 -9.840817484E+01  1.974356027E+02  1.250000000E+02  0.00000E+00  9.000E+00
      25     1     1     2     0     0  1.364326097E+02 -3.514288723E+01 -7.024480301E+02  7.272600047E+02  1.250000000E+02  0.00000E+00  9.000E+00
      21     1     1     2   511   502 -3.610708433E+01 -2.491073276E+01 -5.633070861E+01  7.139618252E+01  9.536743164E-07  0.00000E+00  9.000E+00
#rwgt            1           1   3.2004313417410647E-002           3      476852           0
</event>
<event>
      5   9999  3.79277E-02  3.83650E+01 -1.00000E+00  1.45973E-01
      21    -1     0     0   502   512  0.000000000E+00  0.000000000E+00  4.194831250E+02  4.194831250E+02  0.000000000E+00  0.00000E+00  9.000E+00
      21    -1     0     0   501   502  0.000000000E+00  0.000000000E+00 -2.791140051E+02  2.791140051E+02  0.000000000E+00  0.00000E+00  9.000E+00
      25     1     1     2     0     0  1.620368929E+02 -2.588829192E+02  1.409735034E+01  3.303029758E+02  1.250000000E+02  0.00000E+00  9.000E+00
      25     1     1     2     0     0 -1.246694746E+02  2.501908063E+02  1.013457378E+02  3.225428282E+02  1.250000000E+02  0.00000E+00  9.000E+00
      21     1     1     2   501   512 -3.736741833E+01  8.692112941E+00  2.492603183E+01  4.575132613E+01  3.371747881E-07  0.00000E+00  9.000E+00
#rwgt            1           1   3.2423466887885805E-002           3      476968           0
</event>
<event>
      5   9999  3.79277E-02  2.14690E+01 -1.00000E+00  1.63869E-01
      21    -1     0     0   502   501  0.000000000E+00  0.000000000E+00  1.588740443E+03  1.588740443E+03  0.000000000E+00  0.00000E+00  9.000E+00
      21    -1     0     0   501   511  0.000000000E+00  0.000000000E+00 -3.371634320E+01  3.371634320E+01  0.000000000E+00  0.00000E+00  9.000E+00
      25     1     1     2     0     0 -5.484932119E+01  1.282527541E+02  1.202961348E+03  1.217455634E+03  1.250000000E+02  0.00000E+00  9.000E+00
      25     1     1     2     0     0  5.809387875E+01 -1.070302965E+02  2.811423202E+02  3.309023834E+02  1.250000000E+02  0.00000E+00  9.000E+00
      21     1     1     2   502   511 -3.244557559E+00 -2.122245755E+01  7.092043122E+01  7.409876802E+01  1.651812370E-06  0.00000E+00  9.000E+00
#rwgt            1           1   4.7877824629384530E-002           3      477133           0
</event>
<event>
      5   9999  3.79277E-02  1.56181E+02 -1.00000E+00  1.15703E-01
      21    -1     0     0   502   501  0.000000000E+00  0.000000000E+00  9.874420168E+01  9.874420168E+01  0.000000000E+00  0.00000E+00  9.000E+00
       1    -1     0     0   501     0  0.000000000E+00  0.000000000E+00 -1.900878486E+03  1.900878486E+03  0.000000000E+00  0.00000E+00  9.000E+00
      25     1     1     2     0     0 -1.048867206E+02 -2.095916953E+02 -7.855817857E+02  8.292729617E+02  1.250000000E+02  0.00000E+00  9.000E+00
      25     1     1     2     0     0 -2.199081603E+01  3.006664547E+02 -3.220516917E+02  4.585043131E+02  1.250000000E+02  0.00000E+00  9.000E+00
       1     1     1     2   502     0  1.268775366E+02 -9.107475942E+01 -6.945008068E+02  7.118454128E+02  0.000000000E+00  0.00000E+00  9.000E+00
#rwgt            1           1   3.4592012027323052E-002           3      477315           0
</event>
<event>
      5   9999  3.79277E-02  1.22028E+02 -1.00000E+00  1.20060E-01
      21    -1     0     0   511   501  0.000000000E+00  0.000000000E+00  2.596260146E+02  2.596260146E+02  0.000000000E+00  0.00000E+00  9.000E+00
      21    -1     0     0   501   502  0.000000000E+00  0.000000000E+00 -7.652621037E+02  7.652621037E+02  0.000000000E+00  0.00000E+00  9.000E+00
      25     1     1     2     0     0  2.353949642E+02 -1.952061651E+01 -4.609273396E+02  5.327953228E+02  1.250000000E+02  0.00000E+00  9.000E+00
      25     1     1     2     0     0 -2.876500033E+02  1.297946535E+02 -1.059174298E+02  3.555737313E+02  1.250000000E+02  0.00000E+00  9.000E+00
      21     1     1     2   511   502  5.225503913E+01 -1.102740370E+02  6.120868030E+01  1.365190642E+02  6.743495762E-07  0.00000E+00  9.000E+00
#rwgt            1           1   3.7902712265457154E-002           3      477445           0
</event>
<event>
      5   9999 -3.79277E-02  8.51717E+01 -1.00000E+00  1.27046E-01
      21    -1     0     0   502   501  0.000000000E+00  0.000000000E+00  8.929546014E+01  8.929546014E+01  0.000000000E+00  0.00000E+00  9.000E+00
       3    -1     0     0   501     0  0.000000000E+00  0.000000000E+00 -6.295505728E+02  6.295505728E+02  0.000000000E+00  0.00000E+00  9.000E+00
      25     1     1     2     0     0  9.963195423E+01 -1.062490202E+02 -3.038521624E+02  3.593974362E+02  1.250000000E+02  0.00000E+00  9.000E+00
      25     1     1     2     0     0 -9.504169855E+01  2.120112786E+01 -2.224918044E+02  2.731483394E+02  1.250000000E+02  0.00000E+00  9.000E+00
       3     1     1     2   502     0 -4.590255675E+00  8.504789229E+01 -1.391114587E+01  8.630025730E+01  7.152557373E-07  0.00000E+00  9.000E+00
#rwgt            1           1 -0.36589329316380348                3      477726           0
</event>
<event>
      5   9999  3.79277E-02  8.66462E+01 -1.00000E+00  1.26694E-01
      21    -1     0     0   511   501  0.000000000E+00  0.000000000E+00  1.102433996E+03  1.102433996E+03  0.000000000E+00  0.00000E+00  9.000E+00
      21    -1     0     0   501   502  0.000000000E+00  0.000000000E+00 -9.869962263E+01  9.869962263E+01  0.000000000E+00  0.00000E+00  9.000E+00
      25     1     1     2     0     0  2.836444804E+02 -1.270730248E+01  6.489000942E+02  7.192440469E+02  1.250000000E+02  0.00000E+00  9.000E+00
      25     1     1     2     0     0 -1.973743581E+02  2.077123972E+01  2.197699084E+02  3.214216768E+02  1.250000000E+02  0.00000E+00  9.000E+00
      21     1     1     2   511   502 -8.627012228E+01 -8.063937247E+00  1.350643709E+02  1.604678952E+02  1.907348633E-06  0.00000E+00  9.000E+00
#rwgt            1           1   4.0462637346930674E-002           3      477831           0
</event>
<event>
      5   9999  3.79277E-02  3.50702E+01 -1.00000E+00  1.48474E-01
      21    -1     0     0   502   512  0.000000000E+00  0.000000000E+00  1.738577715E+03  1.738577715E+03  0.000000000E+00  0.00000E+00  9.000E+00
      21    -1     0     0   501   502  0.000000000E+00  0.000000000E+00 -7.901254939E+01  7.901254939E+01  0.000000000E+00  0.00000E+00  9.000E+00
      25     1     1     2     0     0  5.426744589E+01 -8.833519487E+01  3.034268233E+02  3.441524363E+02  1.250000000E+02  0.00000E+00  9.000E+00
      25     1     1     2     0     0 -8.901478287E+01  8.358744702E+01  7.228368808E+01  1.891042687E+02  1.250000000E+02  0.00000E+00  9.000E+00
      21     1     1     2   501   512  3.474733698E+01  4.747747852E+00  1.283854654E+03  1.284333559E+03  1.525878906E-05  0.00000E+00  9.000E+00
#rwgt            1           1   3.8081974885467627E-002           3      477905           0
</event>
<event>
      5   9999  3.79277E-02  2.34827E+01 -1.00000E+00  1.60815E-01
       1    -1     0     0   502     0  0.000000000E+00  0.000000000E+00  7.771670407E+02  7.771670407E+02  0.000000000E+00  0.00000E+00  9.000E+00
      21    -1     0     0   501   502  0.000000000E+00  0.000000000E+00 -7.144806796E+02  7.144806796E+02  0.000000000E+00  0.00000E+00  9.000E+00
      25     1     1     2     0     0  8.748548986E+01 -2.024035357E+02 -4.206674066E+02  4.911282614E+02  1.250000000E+02  0.00000E+00  9.000E+00
      25     1     1     2     0     0 -1.106400940E+02  1.984918441E+02 -1.932953203E+02  3.234630171E+02  1.250000000E+02  0.00000E+00  9.000E+00
       1     1     1     2   501     0  2.315460418E+01  3.911691602E+00  6.766490879E+02  6.770564417E+02  7.629394531E-06  0.00000E+00  9.000E+00
#rwgt            1           1   2.9494762549426162E-002           3      478032           0
</event>
<event>
      5   9999  3.79277E-02  1.58766E+02 -1.00000E+00  1.15424E-01
      21    -1     0     0   502   501  0.000000000E+00  0.000000000E+00  9.198395423E+02  9.198395423E+02  0.000000000E+00  0.00000E+00  9.000E+00
      21    -1     0     0   501   511  0.000000000E+00  0.000000000E+00 -1.349274729E+02  1.349274729E+02  0.000000000E+00  0.00000E+00  9.000E+00
      25     1     1     2     0     0  9.489500092E+01  4.252371465E+00  3.075830786E+01  1.599819282E+02  1.250000000E+02  0.00000E+00  9.000E+00
      25     1     1     2     0     0 -9.065137863E+01 -1.629613287E+02  6.863760357E+02  7.221572748E+02  1.250000000E+02  0.00000E+00  9.000E+00
      21     1     1     2   502   511 -4.243622285E+00  1.587089572E+02  6.777772581E+01  1.726278122E+02  9.536743164E-07  0.00000E+00  9.000E+00
#rwgt            1           1   3.0461893338514782E-002           3      478192           0
</event>
<event>
      5   9999  3.79277E-02  8.88985E+01 -1.00000E+00  1.26171E-01
      21    -1     0     0   502   501  0.000000000E+00  0.000000000E+00  8.642847293E+01  8.642847293E+01  0.000000000E+00  0.00000E+00  9.000E+00
      21    -1     0     0   512   502  0.000000000E+00  0.000000000E+00 -4.728167212E+02  4.728167212E+02  0.000000000E+00  0.00000E+00  9.000E+00
      25     1     1     2     0     0  2.639178016E+01 -2.446217655E+01 -9.215168845E+01  1.594109715E+02  1.250000000E+02  0.00000E+00  9.000E+00
      25     1     1     2     0     0 -9.666642734E+01  7.890868048E+01 -1.569724351E+02  2.362971083E+02  1.250000000E+02  0.00000E+00  9.000E+00
      21     1     1     2   512   501  7.027464718E+01 -5.444650393E+01 -1.372641248E+02  1.635371144E+02  0.000000000E+00  0.00000E+00  9.000E+00
#rwgt            1           1   7.6248733224951196E-002           3      478279           0
</event>
<event>
      5   9999  3.79277E-02  4.00394E+01 -1.00000E+00  1.44814E-01
      21    -1     0     0   502   501  0.000000000E+00  0.000000000E+00  1.418238549E+02  1.418238549E+02  0.000000000E+00  0.00000E+00  9.000E+00
      21    -1     0     0   511   502  0.000000000E+00  0.000000000E+00 -6.979070699E+02  6.979070699E+02  0.000000000E+00  0.00000E+00  9.000E+00
      25     1     1     2     0     0  9.240224476E+01 -1.640740372E+02 -5.497609490E+01  2.326066111E+02  1.250000000E+02  0.00000E+00  9.000E+00
      25     1     1     2     0     0 -5.551325816E+01  1.796417057E+02 -1.947746168E+02  2.981862096E+02  1.250000000E+02  0.00000E+00  9.000E+00
      21     1     1     2   511   501 -3.688898659E+01 -1.556766850E+01 -3.063325032E+02  3.089381041E+02  3.814697266E-06  0.00000E+00  9.000E+00
#rwgt            1           1   4.5770595212498405E-002           3      478442           0
</event>
<event>
      5   9999  3.79277E-02  1.91258E+01 -1.00000E+00  1.67987E-01
      21    -1     0     0   502   501  0.000000000E+00  0.000000000E+00  1.446766699E+03  1.446766699E+03  0.000000000E+00  0.00000E+00  9.000E+00
      21    -1     0     0   512   502  0.000000000E+00  0.000000000E+00 -4.691697612E+01  4.691697612E+01  0.000000000E+00  0.00000E+00  9.000E+00
      25     1     1     2     0     0 -1.455072493E+01  6.183857753E+01  2.534278960E+02  2.896315448E+02  1.250000000E+02  0.00000E+00  9.000E+00
      25     1     1     2     0     0  2.577721861E+01 -7.732283066E+01  1.166684201E+03  1.176188892E+03  1.250000000E+02  0.00000E+00  9.000E+00
      21     1     1     2   512   501 -1.122649368E+01  1.548425312E+01 -2.026237393E+01  2.786323837E+01  1.192092896E-06  0.00000E+00  9.000E+00
#rwgt            1           1   2.4642470451472404E-002           3      478550           0
</event>
<event>
      5   9999  3.79277E-02  2.77169E+01 -1.00000E+00  1.55466E-01
      21    -1     0     0   502   501  0.000000000E+00  0.000000000E+00  2.640061644E+02  2.640061644E+02  0.000000000E+00  0.00000E+00  9.000E+00
      21    -1     0     0   501   511  0.000000000E+00  0.000000000E+00 -4.221025634E+02  4.221025634E+02  0.000000000E+00  0.00000E+00  9.000E+00
      25     1     1     2     0     0 -1.865268766E+01 -9.098130792E+01  1.675748864E+02  2.287615870E+02  1.250000000E+02  0.00000E+00  9.000E+00
      25     1     1     2     0     0  4.636793340E+01  9.067698489E+01 -3.453415341E+01  1.648936281E+02  1.250000000E+02  0.00000E+00  9.000E+00
      21     1     1     2   502   511 -2.771524573E+01  3.043230247E-01 -2.911371320E+02  2.924535126E+02  3.814697266E-06  0.00000E+00  9.000E+00
#rwgt            1           1   3.7178613014369373E-002           3      478752           0
</event>
<event>
      5   9999  3.79277E-02  1.73040E+01 -1.00000E+00  1.71730E-01
      21    -1     0     0   512   501  0.000000000E+00  0.000000000E+00  1.021979249E+02  1.021979249E+02  0.000000000E+00  0.00000E+00  9.000E+00
      21    -1     0     0   501   502  0.000000000E+00  0.000000000E+00 -7.418416261E+02  7.418416261E+02  0.000000000E+00  0.00000E+00  9.000E+00
      25     1     1     2     0     0 -2.109564779E+02 -7.197755770E+01 -3.029777038E+02  3.963633351E+02  1.250000000E+02  0.00000E+00  9.000E+00
      25     1     1     2     0     0  2.163456090E+02  8.842099009E+01 -3.388933077E+02  4.302294365E+02  1.250000000E+02  0.00000E+00  9.000E+00
      21     1     1     2   512   502 -5.389131076E+00 -1.644343239E+01  2.227310345E+00  1.744677947E+01  4.204134935E-07  0.00000E+00  9.000E+00
#rwgt            1           1   3.0359113804703360E-002           3      478968           0
</event>
<event>
      5   9999  3.79277E-02  1.43554E+02 -1.00000E+00  1.17155E-01
      21    -1     0     0   511   501  0.000000000E+00  0.000000000E+00  4.871337915E+02  4.871337915E+02  0.000000000E+00  0.00000E+00  9.000E+00
      21    -1     0     0   501   502  0.000000000E+00  0.000000000E+00 -1.573012836E+03  1.573012836E+03  0.000000000E+00  0.00000E+00  9.000E+00
      25     1     1     2     0     0  1.147668398E+02  9.302337073E+00 -1.066950627E+03  1.080401130E+03  1.250000000E+02  0.00000E+00  9.000E+00
      25     1     1     2     0     0 -2.480555353E+02 -6.261055270E+01 -4.460276141E+02  5.291665734E+02  1.250000000E+02  0.00000E+00  9.000E+00
      21     1     1     2   511   502  1.332886956E+02  5.330821562E+01  4.270991972E+02  4.505789237E+02  7.629394531E-06  0.00000E+00  9.000E+00
#rwgt            1           1   2.8974340406698228E-002           3      479147           0
</event>
<event>
      5   9999  3.79277E-02  3.78168E+01 -1.00000E+00  1.46368E-01
      21    -1     0     0   502   501  0.000000000E+00  0.000000000E+00  7.164065286E+02  7.164065286E+02  0.000000000E+00  0.00000E+00  9.000E+00
      21    -1     0     0   501   512  0.000000000E+00  0.000000000E+00 -4.256228954E+02  4.256228954E+02  0.000000000E+00  0.00000E+00  9.000E+00
      25     1     1     2     0     0  5.910382212E+01 -2.084563947E+02  3.842293980E+02  4.584807091E+02  1.250000000E+02  0.00000E+00  9.000E+00
      25     1     1     2     0     0 -2.132068214E+01  2.068612687E+02  2.439337164E+02  3.440564110E+02  1.250000000E+02  0.00000E+00  9.000E+00
      21     1     1     2   502   512 -3.778313998E+01  1.595126071E+00 -3.373794812E+02  3.394923039E+02  3.814697266E-06  0.00000E+00  9.000E+00
#rwgt            1           1   3.6368170281147062E-002           3      479216           0
</event>
<event>
      5   9999  3.79277E-02  5.49662E+01 -1.00000E+00  1.36769E-01
      21    -1     0     0   502   501  0.000000000E+00  0.000000000E+00  1.187656902E+02  1.187656902E+02  0.000000000E+00  0.00000E+00  9.000E+00
       2    -1     0     0   501     0  0.000000000E+00  0.000000000E+00 -9.288937653E+02  9.288937653E+02  0.000000000E+00  0.00000E+00  9.000E+00
      25     1     1     2     0     0  2.250765276E+01  1.660836001E+01  7.097247744E+01  1.464394913E+02  1.250000000E+02  0.00000E+00  9.000E+00
      25     1     1     2     0     0 -3.001671801E+01  3.784252145E+01 -5.977408243E+02  6.125782830E+02  1.250000000E+02  0.00000E+00  9.000E+00
       2     1     1     2   502     0  7.509065256E+00 -5.445088145E+01 -2.833597283E+02  2.886416812E+02  3.814697266E-06  0.00000E+00  9.000E+00
#rwgt            1           1   2.0384475197498902E-002           3      479413           0
</event>
<event>
      5   9999  3.79277E-02  1.62121E+02 -1.00000E+00  1.15072E-01
      21    -1     0     0   511   501  0.000000000E+00  0.000000000E+00  1.516806165E+02  1.516806165E+02  0.000000000E+00  0.00000E+00  9.000E+00
      21    -1     0     0   501   502  0.000000000E+00  0.000000000E+00 -8.067905021E+02  8.067905021E+02  0.000000000E+00  0.00000E+00  9.000E+00
      25     1     1     2     0     0 -1.162471924E+02 -2.450096429E+01 -3.645100663E+00  1.724876626E+02  1.250000000E+02  0.00000E+00  9.000E+00
      25     1     1     2     0     0 -1.530665164E+01 -7.024430056E+01 -5.982034665E+02  6.153380719E+02  1.250000000E+02  0.00000E+00  9.000E+00
      21     1     1     2   511   502  1.315538440E+02  9.474526486E+01 -5.326131843E+01  1.706453842E+02  1.507891493E-06  0.00000E+00  9.000E+00
#rwgt            1           1   4.6377423291649872E-002           3      479649           0
</event>
<event>
      5   9999  3.79277E-02  9.51534E+01 -1.00000E+00  1.24806E-01
       2    -1     0     0   502     0  0.000000000E+00  0.000000000E+00  1.241367237E+03  1.241367237E+03  0.000000000E+00  0.00000E+00  9.000E+00
      21    -1     0     0   501   502  0.000000000E+00  0.000000000E+00 -2.404641950E+02  2.404641950E+02  0.000000000E+00  0.00000E+00  9.000E+00
      25     1     1     2     0     0 -8.513029646E+00  1.556837753E+02  3.407909177E+01  2.027222091E+02  1.250000000E+02  0.00000E+00  9.000E+00
      25     1     1     2     0     0  8.832768764E+01 -1.038785261E+02 -9.848210378E+01  2.095620513E+02  1.250000000E+02  0.00000E+00  9.000E+00
       2     1     1     2   501     0 -7.981465799E+01 -5.180524921E+01  1.065306054E+03  1.069547172E+03  1.525878906E-05  0.00000E+00  9.000E+00
#rwgt            1           1   3.3984120198607852E-002           3      479912           0
</event>
<event>
      5   9999  3.79277E-02  9.38834E+01 -1.00000E+00  1.25073E-01
      21    -1     0     0   511   501  0.000000000E+00  0.000000000E+00  7.395339205E+01  7.395339205E+01  0.000000000E+00  0.00000E+00  9.000E+00
      21    -1     0     0   501   502  0.000000000E+00  0.000000000E+00 -1.126913687E+03  1.126913687E+03  0.000000000E+00  0.00000E+00  9.000E+00
      25     1     1     2     0     0 -1.542236548E+02 -9.627262763E+01 -6.437643541E+02  6.805225185E+02  1.250000000E+02  0.00000E+00  9.000E+00
      25     1     1     2     0     0  1.895404816E+02  9.285144595E+00 -2.790208679E+02  3.598464295E+02  1.250000000E+02  0.00000E+00  9.000E+00
      21     1     1     2   511   502 -3.531682675E+01  8.698748303E+01 -1.301750726E+02  1.604981308E+02  1.907348633E-06  0.00000E+00  9.000E+00
#rwgt            1           1   1.9406153573443049E-002           3      480060           0
</event>
<event>
      5   9999  3.79277E-02  3.57945E+01 -1.00000E+00  1.47897E-01
      21    -1     0     0   512   501  0.000000000E+00  0.000000000E+00  6.689422338E+02  6.689422338E+02  0.000000000E+00  0.00000E+00  9.000E+00
      21    -1     0     0   501   502  0.000000000E+00  0.000000000E+00 -1.984672931E+02  1.984672931E+02  0.000000000E+00  0.00000E+00  9.000E+00
      25     1     1     2     0     0  1.100952220E+02 -1.005999623E+02 -2.005429441E+01  1.956233244E+02  1.250000000E+02  0.00000E+00  9.000E+00
      25     1     1     2     0     0 -1.431658359E+02  8.690399455E+01  3.147625969E+01  2.113398111E+02  1.250000000E+02  0.00000E+00  9.000E+00
      21     1     1     2   512   502  3.307061386E+01  1.369596773E+01  4.590529755E+02  4.604463914E+02  0.000000000E+00  0.00000E+00  9.000E+00
#rwgt            1           1   3.3772877620527046E-002           3      480139           0
</event>
<event>
      5   9999  3.79277E-02  1.14064E+02 -1.00000E+00  1.21311E-01
      21    -1     0     0   502   501  0.000000000E+00  0.000000000E+00  1.103620066E+03  1.103620066E+03  0.000000000E+00  0.00000E+00  9.000E+00
      21    -1     0     0   511   502  0.000000000E+00  0.000000000E+00 -6.424379197E+01  6.424379197E+01  0.000000000E+00  0.00000E+00  9.000E+00
      25     1     1     2     0     0  5.710916043E+01 -1.264781493E+02  3.585413884E+02  4.042710794E+02  1.250000000E+02  0.00000E+00  9.000E+00
      25     1     1     2     0     0  3.814393115E+01  1.892278322E+02  4.896660213E+02  5.409805397E+02  1.250000000E+02  0.00000E+00  9.000E+00
      21     1     1     2   511   501 -9.525309158E+01 -6.274968286E+01  1.911688639E+02  2.226122384E+02  0.000000000E+00  0.00000E+00  9.000E+00
#rwgt            1           1   9.0251155217135406E-002           3      480414           0
</event>
<event>
      5   9999  3.79277E-02  2.54259E+01 -1.00000E+00  1.58203E-01
      21    -1     0     0   502   512  0.000000000E+00  0.000000000E+00  1.540794646E+02  1.540794646E+02  0.000000000E+00  0.00000E+00  9.000E+00
      21    -1     0     0   501   502  0.000000000E+00  0.000000000E+00 -4.260589867E+02  4.260589867E+02  0.000000000E+00  0.00000E+00  9.000E+00
      25     1     1     2     0     0  1.043384749E+02  4.790371248E+01 -1.928089686E+02  2.568688019E+02  1.250000000E+02  0.00000E+00  9.000E+00
      25     1     1     2     0     0 -1.252216763E+02 -3.339958658E+01 -1.585517085E+02  2.399159120E+02  1.250000000E+02  0.00000E+00  9.000E+00
      21     1     1     2   501   512  2.088320136E+01 -1.450412590E+01  7.938115499E+01  8.335373738E+01  0.000000000E+00  0.00000E+00  9.000E+00
#rwgt            1           1   3.5307792685582512E-002           3      480486           0
</event>
<event>
      5   9999  3.79277E-02  3.58805E+02 -1.00000E+00  1.03126E-01
      21    -1     0     0   502   511  0.000000000E+00  0.000000000E+00  5.648191513E+02  5.648191513E+02  0.000000000E+00  0.00000E+00  9.000E+00
      21    -1     0     0   501   502  0.000000000E+00  0.000000000E+00 -5.512555984E+02  5.512555984E+02  0.000000000E+00  0.00000E+00  9.000E+00
      25     1     1     2     0     0  2.135650602E+01  7.614728637E+01 -1.759558370E+02  2.298694546E+02  1.250000000E+02  0.00000E+00  9.000E+00
      25     1     1     2     0     0  2.941957243E+02 -2.469326314E+02 -1.102047955E+02  4.186847807E+02  1.250000000E+02  0.00000E+00  9.000E+00
      21     1     1     2   501   511 -3.155522303E+02  1.707853450E+02  2.997241854E+02  4.675205144E+02  5.394796609E-06  0.00000E+00  9.000E+00
#rwgt            2          11   7.9140738903185528E-004           3      480624           0
</event>
<event>
      5   9999  3.79277E-02  1.55334E+01 -1.00000E+00  1.75966E-01
      21    -1     0     0   502   501  0.000000000E+00  0.000000000E+00  1.783317250E+02  1.783317250E+02  0.000000000E+00  0.00000E+00  9.000E+00
      21    -1     0     0   501   512  0.000000000E+00  0.000000000E+00 -3.767692286E+02  3.767692286E+02  0.000000000E+00  0.00000E+00  9.000E+00
      25     1     1     2     0     0  1.894181060E+02  6.109516762E+01 -1.946309175E+02  3.051524740E+02  1.250000000E+02  0.00000E+00  9.000E+00
      25     1     1     2     0     0 -1.747646910E+02 -6.624909363E+01  1.524826782E+01  2.253644810E+02  1.250000000E+02  0.00000E+00  9.000E+00
      21     1     1     2   502   512 -1.465341499E+01  5.153926005E+00 -1.905485394E+01  2.458399851E+01  3.371747881E-07  0.00000E+00  9.000E+00
#rwgt            1           1   3.5917758944984460E-002           3      480674           0
</event>
<event>
      5   9999  3.79277E-02  5.19327E+01 -1.00000E+00  1.38142E-01
      21    -1     0     0   502   501  0.000000000E+00  0.000000000E+00  2.711433147E+03  2.711433147E+03  0.000000000E+00  0.00000E+00  9.000E+00
      21    -1     0     0   501   511  0.000000000E+00  0.000000000E+00 -5.128048943E+01  5.128048943E+01  0.000000000E+00  0.00000E+00  9.000E+00
      25     1     1     2     0     0  2.693633018E+02  4.512867128E+01  5.600594851E+02  6.355193248E+02  1.250000000E+02  0.00000E+00  9.000E+00
      25     1     1     2     0     0 -2.322181153E+02 -8.142254288E+01  1.920883414E+03  1.940611495E+03  1.250000000E+02  0.00000E+00  9.000E+00
      21     1     1     2   502   511 -3.714518652E+01  3.629387160E+01  1.792097581E+02  1.865828164E+02  3.303624740E-06  0.00000E+00  9.000E+00
#rwgt            1           1   7.9740932384605487E-002           3      480962           0
</event>
<event>
      5   9999  3.79277E-02  3.97211E+01 -1.00000E+00  1.45029E-01
      21    -1     0     0   512   501  0.000000000E+00  0.000000000E+00  3.351171753E+02  3.351171753E+02  0.000000000E+00  0.00000E+00  9.000E+00
      21    -1     0     0   501   502  0.000000000E+00  0.000000000E+00 -8.599984011E+02  8.599984011E+02  0.000000000E+00  0.00000E+00  9.000E+00
      25     1     1     2     0     0 -2.308749345E+02  3.052683135E+01 -4.978407613E+02  5.636537469E+02  1.250000000E+02  0.00000E+00  9.000E+00
      25     1     1     2     0     0  2.236289170E+02  8.527721208E+00 -2.775564560E+02  3.778163586E+02  1.250000000E+02  0.00000E+00  9.000E+00
      21     1     1     2   512   502  7.246017507E+00 -3.905455256E+01  2.505159915E+02  2.536454708E+02  6.031565972E-06  0.00000E+00  9.000E+00
#rwgt            1           1   4.4186936921331937E-002           3      481206           0
</event>
<event>
      5   9999  3.79277E-02  8.18634E+01 -1.00000E+00  1.27867E-01
      21    -1     0     0   502   511  0.000000000E+00  0.000000000E+00  1.013553878E+03  1.013553878E+03  0.000000000E+00  0.00000E+00  9.000E+00
      21    -1     0     0   501   502  0.000000000E+00  0.000000000E+00 -2.111821136E+02  2.111821136E+02  0.000000000E+00  0.00000E+00  9.000E+00
      25     1     1     2     0     0  7.330127655E+01  1.629610752E+02  4.090326896E+02  4.635322322E+02  1.250000000E+02  0.00000E+00  9.000E+00
      25     1     1     2     0     0  6.829191210E+00 -1.797160071E+02 -1.142694689E+02  2.470364195E+02  1.250000000E+02  0.00000E+00  9.000E+00
      21     1     1     2   501   511 -8.013046776E+01  1.675493192E+01  5.076085438E+02  5.141673398E+02  7.629394531E-06  0.00000E+00  9.000E+00
#rwgt            1           1   4.1135273161757267E-002           3      481305           0
</event>
<event>
      5   9999  3.79277E-02  9.62742E+01 -1.00000E+00  1.24574E-01
      21    -1     0     0   502   501  0.000000000E+00  0.000000000E+00  1.322425150E+02  1.322425150E+02  0.000000000E+00  0.00000E+00  9.000E+00
      21    -1     0     0   512   502  0.000000000E+00  0.000000000E+00 -5.652529265E+02  5.652529265E+02  0.000000000E+00  0.00000E+00  9.000E+00
      25     1     1     2     0     0  4.287761876E+01  5.394315460E+01 -2.988939120E+02  3.312263950E+02  1.250000000E+02  0.00000E+00  9.000E+00
      25     1     1     2     0     0  5.137681527E+01 -3.432609961E+01  5.828162280E+01  1.511277798E+02  1.250000000E+02  0.00000E+00  9.000E+00
      21     1     1     2   512   501 -9.425443402E+01 -1.961705498E+01 -1.923981223E+02  2.151412667E+02  0.000000000E+00  0.00000E+00  9.000E+00
#rwgt            1           1   3.8535841207309206E-002           3      481461           0
</event>
<event>
      5   9999  3.79277E-02  9.36105E+01 -1.00000E+00  1.25132E-01
      21    -1     0     0   511   501  0.000000000E+00  0.000000000E+00  5.035849961E+01  5.035849961E+01  0.000000000E+00  0.00000E+00  9.000E+00
      21    -1     0     0   501   502  0.000000000E+00  0.000000000E+00 -1.083463824E+03  1.083463824E+03  0.000000000E+00  0.00000E+00  9.000E+00
      25     1     1     2     0     0  1.308158379E+02 -5.562099633E+01 -4.537506996E+02  4.916514782E+02  1.250000000E+02  0.00000E+00  9.000E+00
      25     1     1     2     0     0 -1.199056900E+02 -3.735154781E+01 -4.395357997E+02  4.739084635E+02  1.250000000E+02  0.00000E+00  9.000E+00
      21     1     1     2   511   502 -1.091014789E+01  9.297254415E+01 -1.398188253E+02  1.682623820E+02  2.697398305E-06  0.00000E+00  9.000E+00
#rwgt            1           1   3.6481045409049701E-002           3      481530           0
</event>
<event>
      5   9999  3.79277E-02  4.03712E+01 -1.00000E+00  1.44592E-01
      21    -1     0     0   502   501  0.000000000E+00  0.000000000E+00  5.203324354E+01  5.203324354E+01  0.000000000E+00  0.00000E+00  9.000E+00
      21    -1     0     0   512   502  0.000000000E+00  0.000000000E+00 -1.385885040E+03  1.385885040E+03  0.000000000E+00  0.00000E+00  9.000E+00
      25     1     1     2     0     0 -1.066334510E+02  6.548960931E+01 -8.835658041E+02  9.010955066E+02  1.250000000E+02  0.00000E+00  9.000E+00
      25     1     1     2     0     0  6.824638235E+01 -7.799030022E+01 -1.146569491E+02  1.987744239E+02  1.250000000E+02  0.00000E+00  9.000E+00
      21     1     1     2   512   501  3.838706866E+01  1.250069091E+01 -3.356290431E+02  3.380483529E+02  6.607249480E-06  0.00000E+00  9.000E+00
#rwgt            1           1   4.2317377816391437E-002           3      481673           0
</event>
<event>
      5   9999  3.79277E-02  2.21958E+01 -1.00000E+00  1.62721E-01
      21    -1     0     0   502   501  0.000000000E+00  0.000000000E+00  1.618260011E+03  1.618260011E+03  0.000000000E+00  0.00000E+00  9.000E+00
      21    -1     0     0   511   502  0.000000000E+00  0.000000000E+00 -7.125048870E+01  7.125048870E+01  0.000000000E+00  0.00000E+00  9.000E+00
      25     1     1     2     0     0 -5.633906735E+01 -1.598892756E+02  1.269191369E+02  2.459108340E+02  1.250000000E+02  0.00000E+00  9.000E+00
      25     1     1     2     0     0  7.112965953E+01  1.764389063E+02  1.370412195E+03  1.389188504E+03  1.250000000E+02  0.00000E+00  9.000E+00
      21     1     1     2   511   501 -1.479059218E+01 -1.654963069E+01  4.967819030E+01  5.441116139E+01  0.000000000E+00  0.00000E+00  9.000E+00
#rwgt            1           1   4.0902349007643821E-002           3      481779           0
</event>
<event>
      5   9999  3.79277E-02  6.16520E+01 -1.00000E+00  1.34076E-01
      21    -1     0     0   502   501  0.000000000E+00  0.000000000E+00  5.725186157E+02  5.725186157E+02  0.000000000E+00  0.00000E+00  9.000E+00
      21    -1     0     0   501   512  0.000000000E+00  0.000000000E+00 -2.709774108E+02  2.709774108E+02  0.000000000E+00  0.00000E+00  9.000E+00
      25     1     1     2     0     0 -1.177406276E+02 -1.816116201E+02  4.426685473E+02  5.083562518E+02  1.250000000E+02  0.00000E+00  9.000E+00
      25     1     1     2     0     0  1.569615860E+02  1.340439676E+02 -1.231724182E+02  2.709265017E+02  1.250000000E+02  0.00000E+00  9.000E+00
      21     1     1     2   502   512 -3.922095837E+01  4.756765243E+01 -1.795492414E+01  6.421327304E+01  7.539457465E-07  0.00000E+00  9.000E+00
#rwgt            1           1   3.1880380451889519E-002           3      481941           0
</event>
<event>
      5   9999  3.79277E-02  1.99586E+01 -1.00000E+00  1.66443E-01
      -1    -1     0     0     0   501  0.000000000E+00  0.000000000E+00  2.191213773E+02  2.191213773E+02  0.000000000E+00  0.00000E+00  9.000E+00
      21    -1     0     0   501   502  0.000000000E+00  0.000000000E+00 -4.787695675E+02  4.787695675E+02  0.000000000E+00  0.00000E+00  9.000E+00
      25     1     1     2     0     0 -3.930486219E+01 -4.188535982E+01  3.026238473E+01  1.408547745E+02  1.250000000E+02  0.00000E+00  9.000E+00
      25     1     1     2     0     0  3.942562476E+01  2.192713869E+01 -4.122187545E+02  4.331102410E+02  1.250000000E+02  0.00000E+00  9.000E+00
      -1     1     1     2     0   502 -1.207625684E-01  1.995822113E+01  1.223081796E+02  1.239259293E+02  1.907348633E-06  0.00000E+00  9.000E+00
#rwgt            1           1   4.6245276556251935E-002           3      482088           0
</event>
<event>
      5   9999  3.79277E-02  1.59785E+01 -1.00000E+00  1.74836E-01
      21    -1     0     0   502   511  0.000000000E+00  0.000000000E+00  1.531844542E+03  1.531844542E+03  0.000000000E+00  0.00000E+00  9.000E+00
      21    -1     0     0   501   502  0.000000000E+00  0.000000000E+00 -3.622641077E+01  3.622641077E+01  0.000000000E+00  0.00000E+00  9.000E+00
      25     1     1     2     0     0 -1.628535628E+02 -7.430270191E+01  4.826326740E+02  5.297182954E+02  1.250000000E+02  0.00000E+00  9.000E+00
      25     1     1     2     0     0  1.495338131E+02  8.312864846E+01  9.534657254E+02  9.767254593E+02  1.250000000E+02  0.00000E+00  9.000E+00
      21     1     1     2   501   511  1.331974968E+01 -8.825946553E+00  5.951973226E+01  6.162719848E+01  0.000000000E+00  0.00000E+00  9.000E+00
#rwgt            1           1   4.0267538914221183E-002           3      482227           0
</event>
<event>
      5   9999  3.79277E-02  1.00719E+02 -1.00000E+00  1.23688E-01
      21    -1     0     0   512   501  0.000000000E+00  0.000000000E+00  5.475066105E+02  5.475066105E+02  0.000000000E+00  0.00000E+00  9.000E+00
      21    -1     0     0   501   502  0.000000000E+00  0.000000000E+00 -3.682431917E+02  3.682431917E+02  0.000000000E+00  0.00000E+00  9.000E+00
      25     1     1     2     0     0 -2.376660309E+02 -3.276615430E+02  7.297558371E+00  4.237044764E+02  1.250000000E+02  0.00000E+00  9.000E+00
      25     1     1     2     0     0  1.463599207E+02  2.851460918E+02  7.473331088E+01  3.520505472E+02  1.250000000E+02  0.00000E+00  9.000E+00
      21     1     1     2   512   502  9.130611020E+01  4.251545114E+01  9.723254951E+01  1.399947786E+02  1.907348633E-06  0.00000E+00  9.000E+00
#rwgt            1           1   3.1040889470107424E-002           3      482364           0
</event>
<event>
      5   9999  3.79277E-02  7.92039E+00 -1.00000E+00  2.08240E-01
      21    -1     0     0   511   501  0.000000000E+00  0.000000000E+00  1.146305720E+03  1.146305720E+03  0.000000000E+00  0.00000E+00  9.000E+00
      21    -1     0     0   501   502  0.000000000E+00  0.000000000E+00 -1.009195792E+02  1.009195792E+02  0.000000000E+00  0.00000E+00  9.000E+00
      25     1     1     2     0     0  2.186628793E+01  1.785926325E+02  1.860596398E+02  2.874311265E+02  1.250000000E+02  0.00000E+00  9.000E+00
      25     1     1     2     0     0 -1.965731644E+01 -1.709865172E+02  1.750777379E+02  2.754995707E+02  1.250000000E+02  0.00000E+00  9.000E+00
      21     1     1     2   511   502 -2.208971491E+00 -7.606115356E+00  6.842487632E+02  6.842946021E+02  0.000000000E+00  0.00000E+00  9.000E+00
#rwgt            1           1   3.9833889382741502E-002           3      482521           0
</event>
<event>
      5   9999  3.79277E-02  5.95960E+01 -1.00000E+00  1.34860E-01
      21    -1     0     0   502   501  0.000000000E+00  0.000000000E+00  1.954046797E+02  1.954046797E+02  0.000000000E+00  0.00000E+00  9.000E+00
       2    -1     0     0   501     0  0.000000000E+00  0.000000000E+00 -3.395847965E+02  3.395847965E+02  0.000000000E+00  0.00000E+00  9.000E+00
      25     1     1     2     0     0 -2.631185790E+01  1.182165058E+02 -4.328446311E+00  1.741010958E+02  1.250000000E+02  0.00000E+00  9.000E+00
      25     1     1     2     0     0 -1.198495846E+01 -1.638787603E+02  2.598386750E+00  2.064743057E+02  1.250000000E+02  0.00000E+00  9.000E+00
       2     1     1     2   502     0  3.829681636E+01  4.566225448E+01 -1.424500572E+02  1.544140746E+02  1.907348633E-06  0.00000E+00  9.000E+00
#rwgt            1           1   3.3270812524650452E-002           3      482843           0
</event>
<event>
      5   9999  3.79277E-02  3.22177E+01 -1.00000E+00  1.50919E-01
      21    -1     0     0   502   501  0.000000000E+00  0.000000000E+00  4.198083451E+02  4.198083451E+02  0.000000000E+00  0.00000E+00  9.000E+00
      21    -1     0     0   511   502  0.000000000E+00  0.000000000E+00 -1.329298147E+02  1.329298147E+02  0.000000000E+00  0.00000E+00  9.000E+00
      25     1     1     2     0     0 -4.210027214E+01  1.473998788E+02  2.762403986E+02  3.397541979E+02  1.250000000E+02  0.00000E+00  9.000E+00
      25     1     1     2     0     0  4.544610440E+01 -1.153563428E+02 -7.103709433E+00  1.762041342E+02  1.250000000E+02  0.00000E+00  9.000E+00
      21     1     1     2   511   501 -3.345832263E+00 -3.204353599E+01  1.774184129E+01  3.677982768E+01  5.331201500E-07  0.00000E+00  9.000E+00
#rwgt            1           1   4.1855933465679208E-002           3      482933           0
</event>
<event>
      5   9999  3.79277E-02  8.77452E+00 -1.00000E+00  2.02558E-01
      21    -1     0     0   502   512  0.000000000E+00  0.000000000E+00  4.179376251E+01  4.179376251E+01  0.000000000E+00  0.00000E+00  9.000E+00
      21    -1     0     0   501   502  0.000000000E+00  0.000000000E+00 -1.141675411E+03  1.141675411E+03  0.000000000E+00  0.00000E+00  9.000E+00
      25     1     1     2     0     0 -4.601577653E+00  7.686276778E+00 -1.017237752E+03  1.024928240E+03  1.250000000E+02  0.00000E+00  9.000E+00
      25     1     1     2     0     0  1.133205579E+01 -1.331591111E+01 -7.975231012E+01  1.493022436E+02  1.250000000E+02  0.00000E+00  9.000E+00
      21     1     1     2   501   512 -6.730478139E+00  5.629634327E+00 -2.891586547E+00  9.238689918E+00  2.190014490E-07  0.00000E+00  9.000E+00
#rwgt            1           1   4.5084425302936756E-002           3      483034           0
</event>
<event>
      5   9999  3.79277E-02  3.35678E+01 -1.00000E+00  1.49726E-01
      21    -1     0     0   511   501  0.000000000E+00  0.000000000E+00  5.332282237E+01  5.332282237E+01  0.000000000E+00  0.00000E+00  9.000E+00
      21    -1     0     0   501   502  0.000000000E+00  0.000000000E+00 -1.274215264E+03  1.274215264E+03  0.000000000E+00  0.00000E+00  9.000E+00
      25     1     1     2     0     0  7.704698085E+01 -7.353548920E+01 -4.478201700E+02  4.769817713E+02  1.250000000E+02  0.00000E+00  9.000E+00
      25     1     1     2     0     0 -7.835179728E+01  1.070778924E+02 -7.915292918E+02  8.122489144E+02  1.250000000E+02  0.00000E+00  9.000E+00
      21     1     1     2   511   502  1.304816435E+00 -3.354240323E+01  1.845702014E+01  3.830740075E+01  1.617033478E-06  0.00000E+00  9.000E+00
#rwgt            1           1   4.4719391720389801E-002           3      483315           0
</event>
<event>
      5   9999  3.79277E-02  2.50247E+01 -1.00000E+00  1.58719E-01
      21    -1     0     0   502   501  0.000000000E+00  0.000000000E+00  1.225796664E+02  1.225796664E+02  0.000000000E+00  0.00000E+00  9.000E+00
      21    -1     0     0   501   512  0.000000000E+00  0.000000000E+00 -7.715850395E+02  7.715850395E+02  0.000000000E+00  0.00000E+00  9.000E+00
      25     1     1     2     0     0 -1.573801953E+02 -1.644074087E+02 -1.196799214E+02  2.859136329E+02  1.250000000E+02  0.00000E+00  9.000E+00
      25     1     1     2     0     0  1.389909571E+02  1.474346792E+02 -3.275593610E+02  4.049390149E+02  1.250000000E+02  0.00000E+00  9.000E+00
      21     1     1     2   502   512  1.838923821E+01  1.697272953E+01 -2.017660907E+02  2.033120581E+02  3.814697266E-06  0.00000E+00  9.000E+00
#rwgt            1           1   4.5915921324685770E-002           3      483450           0
</event>
<event>
      5   9999  3.79277E-02  6.92702E+01 -1.00000E+00  1.31452E-01
      21    -1     0     0   502   511  0.000000000E+00  0.000000000E+00  6.440939377E+01  6.440939377E+01  0.000000000E+00  0.00000E+00  9.000E+00
      21    -1     0     0   501   502  0.000000000E+00  0.000000000E+00 -7.684653407E+02  7.684653407E+02  0.000000000E+00  0.00000E+00  9.000E+00
      25     1     1     2     0     0 -8.305090949E+01 -1.108359921E+02 -4.500247881E+02  4.871646340E+02  1.250000000E+02  0.00000E+00  9.000E+00
      25     1     1     2     0     0  1.739524727E+01  8.875215616E+01 -2.195275962E+02  2.683223907E+02  1.250000000E+02  0.00000E+00  9.000E+00
      21     1     1     2   501   511  6.565566222E+01  2.208383592E+01 -3.450356259E+01  7.738770976E+01  1.581489940E-06  0.00000E+00  9.000E+00
#rwgt            1           1   2.7115627495293938E-002           3      483618           0
</event>
<event>
      5   9999  3.79277E-02  1.46007E+02 -1.00000E+00  1.16860E-01
      21    -1     0     0   512   501  0.000000000E+00  0.000000000E+00  7.926568858E+02  7.926568858E+02  0.000000000E+00  0.00000E+00  9.000E+00
      21    -1     0     0   501   502  0.000000000E+00  0.000000000E+00 -1.384947142E+02  1.384947142E+02  0.000000000E+00  0.00000E+00  9.000E+00
      25     1     1     2     0     0  1.819506795E+02  6.983514901E+00  2.051850550E+02  3.014643031E+02  1.250000000E+02  0.00000E+00  9.000E+00
      25     1     1     2     0     0 -6.629310289E+01 -9.609818821E+01  1.487129876E+01  1.716851560E+02  1.250000000E+02  0.00000E+00  9.000E+00
      21     1     1     2   512   502 -1.156575766E+02  8.911467331E+01  4.341058178E+02  4.580021409E+02  5.394796609E-06  0.00000E+00  9.000E+00
#rwgt            1           1   1.7562488307884282E-002           3      483698           0
</event>
<event>
      5   9999  3.79277E-02  7.64835E+01 -1.00000E+00  1.29302E-01
      21    -1     0     0   502   511  0.000000000E+00  0.000000000E+00  2.124982303E+03  2.124982303E+03  0.000000000E+00  0.00000E+00  9.000E+00
      21    -1     0     0   501   502  0.000000000E+00  0.000000000E+00 -5.921097142E+01  5.921097142E+01  0.000000000E+00  0.00000E+00  9.000E+00
      25     1     1     2     0     0 -2.789419312E+02  4.760598100E+00  9.833622737E+02  1.029785233E+03  1.250000000E+02  0.00000E+00  9.000E+00
      25     1     1     2     0     0  2.309719342E+02 -6.433081244E+01  5.131097864E+02  5.799940868E+02  1.250000000E+02  0.00000E+00  9.000E+00
      21     1     1     2   501   511  4.796999705E+01  5.957021434E+01  5.692992715E+02  5.744139549E+02  7.629394531E-06  0.00000E+00  9.000E+00
#rwgt            1           1  0.17350229746200466                3      483774           0
</event>
<event>
      5   9999  3.79277E-02  1.81234E+02 -1.00000E+00  1.13228E-01
       2    -1     0     0   502     0  0.000000000E+00  0.000000000E+00  2.453334929E+03  2.453334929E+03  0.000000000E+00  0.00000E+00  9.000E+00
      21    -1     0     0   501   502  0.000000000E+00  0.000000000E+00 -1.453887117E+02  1.453887117E+02  0.000000000E+00  0.00000E+00  9.000E+00
      25     1     1     2     0     0  1.329361347E+01 -3.648893053E+00 -6.695300720E+01  1.424701364E+02  1.250000000E+02  0.00000E+00  9.000E+00
      25     1     1     2     0     0 -1.128080466E+02  1.551168961E+02  3.204583999E+02  3.938343471E+02  1.250000000E+02  0.00000E+00  9.000E+00
       2     1     1     2   501     0  9.951443317E+01 -1.514680031E+02  2.054440825E+03  2.062419157E+03  0.000000000E+00  0.00000E+00  9.000E+00
#rwgt            2          18   1.6745358095907900E-003           3      484210           0
</event>
<event>
      5   9999  3.79277E-02  2.63866E+01 -1.00000E+00  1.57015E-01
      21    -1     0     0   511   501  0.000000000E+00  0.000000000E+00  9.819235700E+02  9.819235700E+02  0.000000000E+00  0.00000E+00  9.000E+00
      21    -1     0     0   501   502  0.000000000E+00  0.000000000E+00 -1.808738102E+02  1.808738102E+02  0.000000000E+00  0.00000E+00  9.000E+00
      25     1     1     2     0     0  1.059427237E+02  7.908708389E+01  3.898353879E+02  4.302037392E+02  1.250000000E+02  0.00000E+00  9.000E+00
      25     1     1     2     0     0 -1.316750509E+02 -7.324735534E+01 -1.005921229E+02  2.201074040E+02  1.250000000E+02  0.00000E+00  9.000E+00
      21     1     1     2   511   502  2.573232720E+01 -5.839728550E+00  5.118064947E+02  5.124862370E+02  5.394796609E-06  0.00000E+00  9.000E+00
#rwgt            1           1   3.5263825382348034E-002           3      484304           0
</event>
<event>
      5   9999  3.79277E-02  2.87996E+01 -1.00000E+00  1.54282E-01
      21    -1     0     0   502   501  0.000000000E+00  0.000000000E+00  1.225559356E+03  1.225559356E+03  0.000000000E+00  0.00000E+00  9.000E+00
       3    -1     0     0   501     0  0.000000000E+00  0.000000000E+00 -3.156063091E+02  3.156063091E+02  0.000000000E+00  0.00000E+00  9.000E+00
      25     1     1     2     0     0 -3.464114705E+02  1.640869766E+01  4.914790752E+02  6.143670187E+02  1.250000000E+02  0.00000E+00  9.000E+00
      25     1     1     2     0     0  3.298169916E+02  7.129406393E+00  6.253134669E+02  7.179637932E+02  1.250000000E+02  0.00000E+00  9.000E+00
       3     1     1     2   502     0  1.659447891E+01 -2.353810405E+01 -2.068394954E+02  2.088348532E+02  4.672030912E-06  0.00000E+00  9.000E+00
#rwgt            1           1   3.8043463334426902E-002           3      484502           0
</event>
<event>
      5   9999  3.79277E-02  4.50718E+01 -1.00000E+00  1.41696E-01
      21    -1     0     0   502   511  0.000000000E+00  0.000000000E+00  2.979068080E+02  2.979068080E+02  0.000000000E+00  0.00000E+00  9.000E+00
      21    -1     0     0   501   502  0.000000000E+00  0.000000000E+00 -1.038518524E+02  1.038518524E+02  0.000000000E+00  0.00000E+00  9.000E+00
      25     1     1     2     0     0  3.034546204E+01  4.679715524E+01  1.207238799E+02  1.825104819E+02  1.250000000E+02  0.00000E+00  9.000E+00
      25     1     1     2     0     0 -3.814182608E+01 -9.118953792E+01  4.346869949E+01  1.651812900E+02  1.250000000E+02  0.00000E+00  9.000E+00
      21     1     1     2   501   511  7.796364047E+00  4.439238269E+01  2.986237612E+01  5.406688858E+01  9.536743164E-07  0.00000E+00  9.000E+00
#rwgt            1           1  0.11289385532288113                3      484631           0
</event>
<event>
      5   9999  3.79277E-02  1.67113E+01 -1.00000E+00  1.73075E-01
      21    -1     0     0   502   512  0.000000000E+00  0.000000000E+00  9.839536959E+02  9.839536959E+02  0.000000000E+00  0.00000E+00  9.000E+00
      21    -1     0     0   501   502  0.000000000E+00  0.000000000E+00 -9.481405356E+01  9.481405356E+01  0.000000000E+00  0.00000E+00  9.000E+00
      25     1     1     2     0     0  2.126861480E+02 -5.246020054E+01  1.836750590E+02  3.120080087E+02  1.250000000E+02  0.00000E+00  9.000E+00
      25     1     1     2     0     0 -2.180785376E+02  3.664282924E+01  5.019991310E+02  5.626091654E+02  1.250000000E+02  0.00000E+00  9.000E+00
      21     1     1     2   501   512  5.392389640E+00  1.581737130E+01  2.034654524E+02  2.041505753E+02  2.697398305E-06  0.00000E+00  9.000E+00
#rwgt            1           1   3.4314612288789688E-002           3      484705           0
</event>
<event>
      5   9999  3.79277E-02  2.21482E+02 -1.00000E+00  1.10059E-01
      21    -1     0     0   502   511  0.000000000E+00  0.000000000E+00  8.571074031E+02  8.571074031E+02  0.000000000E+00  0.00000E+00  9.000E+00
      21    -1     0     0   501   502  0.000000000E+00  0.000000000E+00 -1.603231342E+02  1.603231342E+02  0.000000000E+00  0.00000E+00  9.000E+00
      25     1     1     2     0     0 -9.338094709E+01 -6.141872333E+01 -9.504708520E+00  1.679511844E+02  1.250000000E+02  0.00000E+00  9.000E+00
      25     1     1     2     0     0 -8.249440746E+01  1.960364462E+02  4.256095600E+02  4.919391355E+02  1.250000000E+02  0.00000E+00  9.000E+00
      21     1     1     2   501   511  1.758753546E+02 -1.346177229E+02  2.806794175E+02  3.575402174E+02  0.000000000E+00  0.00000E+00  9.000E+00
#rwgt            2          11   1.3461939821675256E-003           3      485055           0
</event>
<event>
      5   9999  3.79277E-02  3.12239E+01 -1.00000E+00  1.51843E-01
      21    -1     0     0   502   501  0.000000000E+00  0.000000000E+00  3.556883509E+02  3.556883509E+02  0.000000000E+00  0.00000E+00  9.000E+00
      21    -1     0     0   512   502  0.000000000E+00  0.000000000E+00 -1.055486289E+02  1.055486289E+02  0.000000000E+00  0.00000E+00  9.000E+00
      25     1     1     2     0     0  7.461450527E+01 -4.921284172E+01  4.549094595E+01  1.602612066E+02  1.250000000E+02  0.00000E+00  9.000E+00
      25     1     1     2     0     0 -9.306810208E+01  7.440004462E+01  2.071039822E+02  2.696555168E+02  1.250000000E+02  0.00000E+00  9.000E+00
      21     1     1     2   512   501  1.845359681E+01 -2.518720289E+01 -2.455206241E+00  3.132025643E+01  5.960464478E-08  0.00000E+00  9.000E+00
#rwgt            1           1   4.0279108303177852E-002           3      485105           0
</event>
<event>
      5   9999  3.79277E-02  8.78585E+00 -1.00000E+00  2.02488E-01
      21    -1     0     0   511   501  0.000000000E+00  0.000000000E+00  9.741680968E+02  9.741680968E+02  0.000000000E+00  0.00000E+00  9.000E+00
      21    -1     0     0   501   502  0.000000000E+00  0.000000000E+00 -1.132900939E+02  1.132900939E+02  0.000000000E+00  0.00000E+00  9.000E+00
      25     1     1     2     0     0  1.474414213E+02 -8.545957475E+00  1.147846359E+01  1.938266267E+02  1.250000000E+02  0.00000E+00  9.000E+00
      25     1     1     2     0     0 -1.414090918E+02  1.493360943E+01  3.838739619E+02  4.280230865E+02  1.250000000E+02  0.00000E+00  9.000E+00
      21     1     1     2   511   502 -6.032329433E+00 -6.387651960E+00  4.655255774E+02  4.656084775E+02  7.629394531E-06  0.00000E+00  9.000E+00
#rwgt            1           1   7.4780543402770516E-002           3      485221           0
</event>
<event>
      5   9999  3.79277E-02  7.72250E+01 -1.00000E+00  1.29096E-01
      21    -1     0     0   502   501  0.000000000E+00  0.000000000E+00  2.808160018E+02  2.808160018E+02  0.000000000E+00  0.00000E+00  9.000E+00
      21    -1     0     0   512   502  0.000000000E+00  0.000000000E+00 -3.650628024E+02  3.650628024E+02  0.000000000E+00  0.00000E+00  9.000E+00
      25     1     1     2     0     0  1.427950526E+02 -1.063263245E+02 -1.151996889E+02  2.461537784E+02  1.250000000E+02  0.00000E+00  9.000E+00
      25     1     1     2     0     0 -1.958818029E+02  5.024156441E+01  1.324859578E+02  2.721606594E+02  1.250000000E+02  0.00000E+00  9.000E+00
      21     1     1     2   512   501  5.308675029E+01  5.608476005E+01 -1.015330696E+02  1.275643664E+02  1.348699152E-06  0.00000E+00  9.000E+00
#rwgt            1           1   3.3701467066731237E-002           3      485653           0
</event>
<event>
      5   9999  3.79277E-02  1.40300E+02 -1.00000E+00  1.17556E-01
      21    -1     0     0   502   501  0.000000000E+00  0.000000000E+00  3.435469629E+02  3.435469629E+02  0.000000000E+00  0.00000E+00  9.000E+00
      21    -1     0     0   501   511  0.000000000E+00  0.000000000E+00 -2.243722148E+02  2.243722148E+02  0.000000000E+00  0.00000E+00  9.000E+00
      25     1     1     2     0     0 -1.412568576E+02 -4.619052536E+01 -4.097693488E-01  1.941963757E+02  1.250000000E+02  0.00000E+00  9.000E+00
      25     1     1     2     0     0  3.370000860E+01  1.362778834E+02  1.366462119E+02  2.323887676E+02  1.250000000E+02  0.00000E+00  9.000E+00
      21     1     1     2   502   511  1.075568490E+02 -9.008735808E+01 -1.706169441E+01  1.413340343E+02  9.830249847E-07  0.00000E+00  9.000E+00
#rwgt            1           1   4.0877955978195095E-002           3      485802           0
</event>
<event>
      5   9999  3.79277E-02  3.84895E+01 -1.00000E+00  1.45885E-01
      21    -1     0     0   512   501  0.000000000E+00  0.000000000E+00  1.294983584E+02  1.294983584E+02  0.000000000E+00  0.00000E+00  9.000E+00
      21    -1     0     0   501   502  0.000000000E+00  0.000000000E+00 -1.626334606E+03  1.626334606E+03  0.000000000E+00  0.00000E+00  9.000E+00
      25     1     1     2     0     0 -2.036933038E+02 -1.373770018E+02 -1.159140638E+03  1.191467760E+03  1.250000000E+02  0.00000E+00  9.000E+00
      25     1     1     2     0     0  1.897610738E+02  1.732564078E+02 -3.997293279E+02  4.913609504E+02  1.250000000E+02  0.00000E+00  9.000E+00
      21     1     1     2   512   502  1.393223007E+01 -3.587940595E+01  6.203371904E+01  7.300425401E+01  2.939421655E-06  0.00000E+00  9.000E+00
#rwgt            1           1   3.4581129135592630E-002           3      485869           0
</event>
<event>
      5   9999  3.79277E-02  2.47445E+01 -1.00000E+00  1.59086E-01
      21    -1     0     0   502   511  0.000000000E+00  0.000000000E+00  9.280752348E+01  9.280752348E+01  0.000000000E+00  0.00000E+00  9.000E+00
      21    -1     0     0   501   502  0.000000000E+00  0.000000000E+00 -5.279292176E+02  5.279292176E+02  0.000000000E+00  0.00000E+00  9.000E+00
      25     1     1     2     0     0 -3.744132314E+01  7.899861241E+01 -4.136968832E+02  4.409226061E+02  1.250000000E+02  0.00000E+00  9.000E+00
      25     1     1     2     0     0  5.874187010E+01 -6.640585257E+01 -1.355174457E+01  1.538473085E+02  1.250000000E+02  0.00000E+00  9.000E+00
      21     1     1     2   501   511 -2.130054696E+01 -1.259275984E+01 -7.873066382E+00  2.596682644E+01  2.384185791E-07  0.00000E+00  9.000E+00
#rwgt            1           1   5.3001768364954273E-002           3      486036           0
</event>
<event>
      5   9999  3.79277E-02  3.80476E+01 -1.00000E+00  1.46201E-01
      21    -1     0     0   512   501  0.000000000E+00  0.000000000E+00  9.706628735E+01  9.706628735E+01  0.000000000E+00  0.00000E+00  9.000E+00
      21    -1     0     0   501   502  0.000000000E+00  0.000000000E+00 -1.326475176E+03  1.326475176E+03  0.000000000E+00  0.00000E+00  9.000E+00
      25     1     1     2     0     0 -1.078910615E+02  1.057125956E+02 -1.478568487E+02  2.455652291E+02  1.250000000E+02  0.00000E+00  9.000E+00
      25     1     1     2     0     0  7.349813834E+01 -1.219835347E+02 -1.112752632E+03  1.128771624E+03  1.250000000E+02  0.00000E+00  9.000E+00
      21     1     1     2   512   502  3.439292317E+01  1.627093909E+01  3.120059273E+01  4.920460964E+01  1.815741803E-06  0.00000E+00  9.000E+00
#rwgt            1           1   4.4059707626201483E-002           3      486146           0
</event>
<event>
      5   9999  3.79277E-02  8.15010E+01 -1.00000E+00  1.27960E-01
      21    -1     0     0   502   511  0.000000000E+00  0.000000000E+00  1.036694336E+03  1.036694336E+03  0.000000000E+00  0.00000E+00  9.000E+00
      21    -1     0     0   501   502  0.000000000E+00  0.000000000E+00 -8.791321352E+01  8.791321352E+01  0.000000000E+00  0.00000E+00  9.000E+00
      25     1     1     2     0     0 -9.152357008E+01  3.274497983E+01  6.324764787E+01  1.705111801E+02  1.250000000E+02  0.00000E+00  9.000E+00
      25     1     1     2     0     0  1.075229104E+02 -1.126601192E+02  2.846603768E+02  3.477211654E+02  1.250000000E+02  0.00000E+00  9.000E+00
      21     1     1     2   501   511 -1.599934032E+01  7.991513941E+01  6.008730981E+02  6.063752044E+02  7.629394531E-06  0.00000E+00  9.000E+00
#rwgt            2          11   1.0143389252848922E-003           3      486382           0
</event>
<event>
      5   9999  3.79277E-02  7.52351E+00 -1.00000E+00  2.11220E-01
      21    -1     0     0   502   501  0.000000000E+00  0.000000000E+00  4.209144020E+01  4.209144020E+01  0.000000000E+00  0.00000E+00  9.000E+00
      21    -1     0     0   501   512  0.000000000E+00  0.000000000E+00 -8.426143800E+02  8.426143800E+02  0.000000000E+00  0.00000E+00  9.000E+00
      25     1     1     2     0     0  9.090000514E+01 -6.161673540E+01 -2.255614543E+02  2.802898548E+02  1.250000000E+02  0.00000E+00  9.000E+00
      25     1     1     2     0     0 -9.817600261E+01  5.970283430E+01 -4.797677427E+02  5.089253804E+02  1.250000000E+02  0.00000E+00  9.000E+00
      21     1     1     2   502   512  7.275997470E+00  1.913901102E+00 -9.519374282E+01  9.549058503E+01  0.000000000E+00  0.00000E+00  9.000E+00
#rwgt            1           1   4.2761052188759786E-002           3      486402           0
</event>
<event>
      5   9999  3.79277E-02  1.49708E+01 -1.00000E+00  1.77463E-01
      21    -1     0     0   502   501  0.000000000E+00  0.000000000E+00  4.454396046E+02  4.454396046E+02  0.000000000E+00  0.00000E+00  9.000E+00
      -5    -1     0     0     0   502  0.000000000E+00  0.000000000E+00 -3.092445450E+02  3.092445450E+02  0.000000000E+00  0.00000E+00  9.000E+00
      25     1     1     2     0     0  7.550964414E+01  1.127473542E+02  2.243265643E+02  2.904497885E+02  1.250000000E+02  0.00000E+00  9.000E+00
      25     1     1     2     0     0 -8.526730196E+01 -1.241013404E+02  1.368226994E+02  2.387825507E+02  1.250000000E+02  0.00000E+00  9.000E+00
      -5     1     1     2     0   501  9.757657820E+00  1.135398621E+01 -2.249542040E+02  2.254518103E+02  3.814697266E-06  0.00000E+00  9.000E+00
#rwgt            1           1   2.6065100721437615E-002           3      486693           0
</event>
<event>
      5   9999  3.79277E-02  1.99075E+02 -1.00000E+00  1.11721E-01
      21    -1     0     0   502   501  0.000000000E+00  0.000000000E+00  3.926368965E+02  3.926368965E+02  0.000000000E+00  0.00000E+00  9.000E+00
      21    -1     0     0   511   502  0.000000000E+00  0.000000000E+00 -7.273730733E+02  7.273730733E+02  0.000000000E+00  0.00000E+00  9.000E+00
      25     1     1     2     0     0 -5.842658892E+01  3.110558521E+02  1.477006534E+02  3.709580737E+02  1.250000000E+02  0.00000E+00  9.000E+00
      25     1     1     2     0     0  2.004425476E+02 -1.715489160E+02 -8.422327520E+01  3.038499721E+02  1.250000000E+02  0.00000E+00  9.000E+00
      21     1     1     2   511   501 -1.420159587E+02 -1.395069361E+02 -3.982135550E+02  4.452019240E+02  0.000000000E+00  0.00000E+00  9.000E+00
#rwgt            1           1   2.9202161340980349E-002           3      486877           0
</event>
<event>
      5   9999  3.79277E-02  1.00321E+02 -1.00000E+00  1.23765E-01
       1    -1     0     0   502     0  0.000000000E+00  0.000000000E+00  1.281253717E+02  1.281253717E+02  0.000000000E+00  0.00000E+00  9.000E+00
      21    -1     0     0   501   502  0.000000000E+00  0.000000000E+00 -6.072264974E+02  6.072264974E+02  0.000000000E+00  0.00000E+00  9.000E+00
      25     1     1     2     0     0  6.427991494E+01 -7.648959352E+01 -4.829100962E+02  5.087334532E+02  1.250000000E+02  0.00000E+00  9.000E+00
      25     1     1     2     0     0 -1.438004950E+01 -1.054037800E+01  2.405393880E+00  1.262880490E+02  1.250000000E+02  0.00000E+00  9.000E+00
       1     1     1     2   501     0 -4.989986544E+01  8.702997152E+01  1.403576657E+00  1.003303670E+02  1.858886264E-06  0.00000E+00  9.000E+00
#rwgt            1           1   3.3651990610955231E-002           3      486988           0
</event>
<event>
      5   9999  3.79277E-02  1.13370E+02 -1.00000E+00  1.21425E-01
      21    -1     0     0   502   511  0.000000000E+00  0.000000000E+00  5.200184988E+02  5.200184988E+02  0.000000000E+00  0.00000E+00  9.000E+00
      21    -1     0     0   501   502  0.000000000E+00  0.000000000E+00 -1.656940591E+02  1.656940591E+02  0.000000000E+00  0.00000E+00  9.000E+00
      25     1     1     2     0     0  1.773475378E+01  1.525504096E+02  2.812920537E+02  3.440005355E+02  1.250000000E+02  0.00000E+00  9.000E+00
      25     1     1     2     0     0  8.609804740E+01 -1.070372722E+02 -3.045913830E+01  1.882089544E+02  1.250000000E+02  0.00000E+00  9.000E+00
      21     1     1     2   501   511 -1.038328012E+02 -4.551313741E+01  1.034915243E+02  1.535030680E+02  3.015782986E-06  0.00000E+00  9.000E+00
#rwgt            1           1   2.4679143011137349E-002           3      487107           0
</event>
<event>
      5   9999  3.79277E-02  2.82286E+01 -1.00000E+00  1.54899E-01
      21    -1     0     0   502   501  0.000000000E+00  0.000000000E+00  2.600832654E+02  2.600832654E+02  0.000000000E+00  0.00000E+00  9.000E+00
      21    -1     0     0   512   502  0.000000000E+00  0.000000000E+00 -4.257514192E+02  4.257514192E+02  0.000000000E+00  0.00000E+00  9.000E+00
      25     1     1     2     0     0 -7.516525752E+01  3.548521632E+01 -3.026084960E+01  1.531330648E+02  1.250000000E+02  0.00000E+00  9.000E+00
      25     1     1     2     0     0  7.568650011E+01 -6.370897536E+01  1.658991903E+02  2.300756858E+02  1.250000000E+02  0.00000E+00  9.000E+00
      21     1     1     2   512   501 -5.212425918E-01  2.822375904E+01 -3.013064945E+02  3.026259339E+02  0.000000000E+00  0.00000E+00  9.000E+00
#rwgt            1           1   2.5458373444450868E-002           3      487213           0
</event>
<event>
      5   9999  3.79277E-02  3.17626E+01 -1.00000E+00  1.51337E-01
      21    -1     0     0   502   501  0.000000000E+00  0.000000000E+00  6.203319871E+01  6.203319871E+01  0.000000000E+00  0.00000E+00  9.000E+00
      21    -1     0     0   511   502  0.000000000E+00  0.000000000E+00 -6.825212397E+02  6.825212397E+02  0.000000000E+00  0.00000E+00  9.000E+00
      25     1     1     2     0     0 -1.269453982E+02  3.728547343E+01 -3.203632187E+02  3.684602184E+02  1.250000000E+02  0.00000E+00  9.000E+00
      25     1     1     2     0     0  1.089779298E+02 -6.347771358E+01 -1.840171053E+02  2.557203636E+02  1.250000000E+02  0.00000E+00  9.000E+00
      21     1     1     2   511   501  1.796746836E+01  2.619224015E+01 -1.161077170E+02  1.203738564E+02  0.000000000E+00  0.00000E+00  9.000E+00
#rwgt            1           1   1.7822152471759146E-002           3      487335           0
</event>
<event>
      5   9999  3.79277E-02  3.86347E+01 -1.00000E+00  1.45782E-01
      21    -1     0     0   502   501  0.000000000E+00  0.000000000E+00  1.391173497E+03  1.391173497E+03  0.000000000E+00  0.00000E+00  9.000E+00
      21    -1     0     0   501   512  0.000000000E+00  0.000000000E+00 -9.080997952E+02  9.080997952E+02  0.000000000E+00  0.00000E+00  9.000E+00
      25     1     1     2     0     0  6.342921997E+01 -7.273852625E+01  8.967808555E+02  9.105795199E+02  1.250000000E+02  0.00000E+00  9.000E+00
      25     1     1     2     0     0 -5.992811407E+01  1.112142698E+02  4.708599771E+02  5.032833304E+02  1.250000000E+02  0.00000E+00  9.000E+00
      21     1     1     2   502   512 -3.501105900E+00 -3.847574351E+01 -8.845671311E+02  8.854104416E+02  1.078959322E-05  0.00000E+00  9.000E+00
#rwgt            1           1   4.9577607557043553E-002           3      487460           0
</event>
<event>
      5   9999  3.79277E-02  6.43573E+01 -1.00000E+00  1.33096E-01
      21    -1     0     0   502   501  0.000000000E+00  0.000000000E+00  2.149466209E+02  2.149466209E+02  0.000000000E+00  0.00000E+00  9.000E+00
      21    -1     0     0   501   511  0.000000000E+00  0.000000000E+00 -4.454294085E+02  4.454294085E+02  0.000000000E+00  0.00000E+00  9.000E+00
      25     1     1     2     0     0 -1.380288022E+02 -2.179146808E+02 -2.969795877E+01  2.881765554E+02  1.250000000E+02  0.00000E+00  9.000E+00
      25     1     1     2     0     0  1.050567558E+02  1.626453314E+02 -9.693242485E+01  2.500226405E+02  1.250000000E+02  0.00000E+00  9.000E+00
      21     1     1     2   502   511  3.297204636E+01  5.526934937E+01 -1.038524040E+02  1.221768335E+02  2.336015456E-06  0.00000E+00  9.000E+00
#rwgt            1           1  0.26585504648323466                3      487615           0
</event>
<event>
      5   9999  3.79277E-02  2.44668E+01 -1.00000E+00  1.59455E-01
      21    -1     0     0   502   501  0.000000000E+00  0.000000000E+00  1.715706965E+02  1.715706965E+02  0.000000000E+00  0.00000E+00  9.000E+00
      21    -1     0     0   512   502  0.000000000E+00  0.000000000E+00 -9.654969772E+02  9.654969772E+02  0.000000000E+00  0.00000E+00  9.000E+00
      25     1     1     2     0     0 -9.658044390E+01 -1.669174262E+02 -6.379870727E+01  2.385046842E+02  1.250000000E+02  0.00000E+00  9.000E+00
      25     1     1     2     0     0  1.191135371E+02  1.573840142E+02 -7.848353020E+01  2.464597881E+02  1.250000000E+02  0.00000E+00  9.000E+00
      21     1     1     2   512   501 -2.253309325E+01  9.533412054E+00 -6.516440432E+02  6.521032014E+02  0.000000000E+00  0.00000E+00  9.000E+00
#rwgt            1           1   3.7208956683668935E-002           3      487861           0
</event>
<event>
      5   9999  3.79277E-02  4.48899E+01 -1.00000E+00  1.41801E-01
       1    -1     0     0   502     0  0.000000000E+00  0.000000000E+00  1.354126500E+03  1.354126500E+03  0.000000000E+00  0.00000E+00  9.000E+00
      21    -1     0     0   501   502  0.000000000E+00  0.000000000E+00 -1.062846135E+02  1.062846135E+02  0.000000000E+00  0.00000E+00  9.000E+00
      25     1     1     2     0     0 -9.750589442E+01 -6.964387665E+01  4.648266142E+02  4.960306949E+02  1.250000000E+02  0.00000E+00  9.000E+00
      25     1     1     2     0     0  7.947366709E+01  2.853497803E+01 -2.689468252E+01  1.532273888E+02  1.250000000E+02  0.00000E+00  9.000E+00
       1     1     1     2   501     0  1.803222733E+01  4.110889862E+01  8.099099545E+02  8.111530294E+02  0.000000000E+00  0.00000E+00  9.000E+00
#rwgt            1           1   3.9908990587169013E-002           3      487971           0
</event>
<event>
      5   9999  3.79277E-02  4.87551E+01 -1.00000E+00  1.39703E-01
      21    -1     0     0   502   501  0.000000000E+00  0.000000000E+00  6.860955907E+02  6.860955907E+02  0.000000000E+00  0.00000E+00  9.000E+00
      21    -1     0     0   501   511  0.000000000E+00  0.000000000E+00 -2.859331677E+02  2.859331677E+02  0.000000000E+00  0.00000E+00  9.000E+00
      25     1     1     2     0     0 -1.148795096E+02  2.161701520E+01  2.427201821E+02  2.969893666E+02  1.250000000E+02  0.00000E+00  9.000E+00
      25     1     1     2     0     0  7.275570889E+01 -4.616591763E+01  3.998888392E+02  4.277391364E+02  1.250000000E+02  0.00000E+00  9.000E+00
      21     1     1     2   502   511  4.212380073E+01  2.454890243E+01 -2.424465984E+02  2.473002553E+02  5.394796609E-06  0.00000E+00  9.000E+00
#rwgt            1           1   3.8326577596339166E-002           3      488133           0
</event>
<event>
      5   9999  3.79277E-02  5.19484E+01 -1.00000E+00  1.38135E-01
      21    -1     0     0   502   512  0.000000000E+00  0.000000000E+00  5.310523552E+01  5.310523552E+01  0.000000000E+00  0.00000E+00  9.000E+00
      21    -1     0     0   501   502  0.000000000E+00  0.000000000E+00 -1.794748499E+03  1.794748499E+03  0.000000000E+00  0.00000E+00  9.000E+00
      25     1     1     2     0     0 -2.845331815E+01 -7.800857388E+01 -1.403177832E+03  1.411179634E+03  1.250000000E+02  0.00000E+00  9.000E+00
      25     1     1     2     0     0  5.889658973E+01  3.591527558E+01 -3.546121822E+02  3.822741360E+02  1.250000000E+02  0.00000E+00  9.000E+00
      21     1     1     2   501   512 -3.044327158E+01  4.209329830E+01  1.614675159E+01  5.439996446E+01  2.050954167E-06  0.00000E+00  9.000E+00
#rwgt            1           1  0.12886394121356273                3      488391           0
</event>
<event>
      5   9999  3.79277E-02  6.67079E+01 -1.00000E+00  1.32289E-01
      21    -1     0     0   511   501  0.000000000E+00  0.000000000E+00  8.821882453E+01  8.821882453E+01  0.000000000E+00  0.00000E+00  9.000E+00
      21    -1     0     0   501   502  0.000000000E+00  0.000000000E+00 -5.877116495E+02  5.877116495E+02  0.000000000E+00  0.00000E+00  9.000E+00
      25     1     1     2     0     0  3.742833261E+01  1.242403573E+02 -3.066699020E+02  3.556795964E+02  1.250000000E+02  0.00000E+00  9.000E+00
      25     1     1     2     0     0  2.923448059E+01 -1.266929928E+02 -1.747592181E+02  2.511405057E+02  1.250000000E+02  0.00000E+00  9.000E+00
      21     1     1     2   511   502 -6.666281321E+01  2.452635540E+00 -1.806370490E+01  6.911037202E+01  2.008950656E-06  0.00000E+00  9.000E+00
#rwgt            1           1   3.7966496079493768E-002           3      488577           0
</event>
<event>
      5   9999  3.79277E-02  5.89738E+01 -1.00000E+00  1.35105E-01
      21    -1     0     0   502   512  0.000000000E+00  0.000000000E+00  2.133634086E+02  2.133634086E+02  0.000000000E+00  0.00000E+00  9.000E+00
      21    -1     0     0   501   502  0.000000000E+00  0.000000000E+00 -2.630983710E+02  2.630983710E+02  0.000000000E+00  0.00000E+00  9.000E+00
      25     1     1     2     0     0 -1.777369325E+01 -7.274782776E+01 -1.716846497E+02  2.251860776E+02  1.250000000E+02  0.00000E+00  9.000E+00
      25     1     1     2     0     0  7.416384094E+01  5.548338088E+01  1.114462648E+02  1.913738509E+02  1.250000000E+02  0.00000E+00  9.000E+00
      21     1     1     2   501   512 -5.639014769E+01  1.726444688E+01  1.050342250E+01  5.990185111E+01  6.194296387E-07  0.00000E+00  9.000E+00
#rwgt            1           1   3.8763189454344843E-002           3      488696           0
</event>
<event>
      5   9999  3.79277E-02  3.37416E+01 -1.00000E+00  1.49577E-01
      21    -1     0     0   502   511  0.000000000E+00  0.000000000E+00  7.278544260E+01  7.278544260E+01  0.000000000E+00  0.00000E+00  9.000E+00
      21    -1     0     0   501   502  0.000000000E+00  0.000000000E+00 -7.213817021E+02  7.213817021E+02  0.000000000E+00  0.00000E+00  9.000E+00
      25     1     1     2     0     0 -4.124141868E+01 -1.332274405E+02 -2.303336241E+02  2.968652622E+02  1.250000000E+02  0.00000E+00  9.000E+00
      25     1     1     2     0     0  4.329319890E+01  1.669065894E+02 -4.108306700E+02  4.627514993E+02  1.250000000E+02  0.00000E+00  9.000E+00
      21     1     1     2   501   511 -2.051780225E+00 -3.367914888E+01 -7.431965397E+00  3.455038322E+01  3.475518164E-07  0.00000E+00  9.000E+00
#rwgt            1           1   4.5193011866240473E-002           3      488750           0
</event>
<event>
      5   9999  3.79277E-02  6.34139E+01 -1.00000E+00  1.33432E-01
      21    -1     0     0   502   501  0.000000000E+00  0.000000000E+00  2.724814407E+03  2.724814407E+03  0.000000000E+00  0.00000E+00  9.000E+00
      21    -1     0     0   501   512  0.000000000E+00  0.000000000E+00 -2.234695526E+01  2.234695526E+01  0.000000000E+00  0.00000E+00  9.000E+00
      25     1     1     2     0     0  3.347925535E+01  1.497241449E+02  8.765923498E+02  8.986530631E+02  1.250000000E+02  0.00000E+00  9.000E+00
      25     1     1     2     0     0  1.958792913E+01 -1.844401270E+02  1.490831414E+03  1.507516220E+03  1.250000000E+02  0.00000E+00  9.000E+00
      21     1     1     2   502   512 -5.306718448E+01  3.471598215E+01  3.350436873E+02  3.409920789E+02  3.814697266E-06  0.00000E+00  9.000E+00
#rwgt            1           1   5.7702638419344358E-002           3      488906           0
</event>
<event>
      5   9999  3.79277E-02  1.13602E+02 -1.00000E+00  1.21387E-01
      21    -1     0     0   502   501  0.000000000E+00  0.000000000E+00  4.895492378E+01  4.895492378E+01  0.000000000E+00  0.00000E+00  9.000E+00
       1    -1     0     0   501     0  0.000000000E+00  0.000000000E+00 -4.891667559E+03  4.891667559E+03  0.000000000E+00  0.00000E+00  9.000E+00
      25     1     1     2     0     0  9.348533873E+01 -1.362458487E+02 -2.535662047E+02  3.274496298E+02  1.250000000E+02  0.00000E+00  9.000E+00
      25     1     1     2     0     0 -1.010942146E+02  2.289869713E+01 -5.769079936E+02  5.993264750E+02  1.250000000E+02  0.00000E+00  9.000E+00
       1     1     1     2   502     0  7.608875919E+00  1.133471516E+02 -4.012238437E+03  4.013846378E+03  4.315837288E-05  0.00000E+00  9.000E+00
#rwgt            1           1   4.7168140174920478E-002           3      488987           0
</event>
<event>
      5   9999  3.79277E-02  7.89706E+01 -1.00000E+00  1.28622E-01
      21    -1     0     0   502   501  0.000000000E+00  0.000000000E+00  1.117525061E+03  1.117525061E+03  0.000000000E+00  0.00000E+00  9.000E+00
      21    -1     0     0   501   511  0.000000000E+00  0.000000000E+00 -6.213696963E+02  6.213696963E+02  0.000000000E+00  0.00000E+00  9.000E+00
      25     1     1     2     0     0 -6.885002740E+01 -1.209408690E+02 -8.283509716E+00  1.872448573E+02  1.250000000E+02  0.00000E+00  9.000E+00
      25     1     1     2     0     0  1.912146905E+00  7.904000161E+01  1.019700712E+03  1.030371545E+03  1.250000000E+02  0.00000E+00  9.000E+00
      21     1     1     2   502   511  6.693788050E+01  4.190086737E+01 -5.152618375E+02  5.212783553E+02  7.629394531E-06  0.00000E+00  9.000E+00
#rwgt            1           1   3.1089902724350409E-002           3      489053           0
</event>
<event>
      5   9999  3.79277E-02  2.46752E+01 -1.00000E+00  1.59177E-01
      -2    -1     0     0     0   501  0.000000000E+00  0.000000000E+00  5.583250195E+02  5.583250195E+02  0.000000000E+00  0.00000E+00  9.000E+00
      21    -1     0     0   501   502  0.000000000E+00  0.000000000E+00 -4.738832600E+02  4.738832600E+02  0.000000000E+00  0.00000E+00  9.000E+00
      25     1     1     2     0     0  1.691324793E+02  7.164433539E+01 -9.669581693E+01  2.423092804E+02  1.250000000E+02  0.00000E+00  9.000E+00
      25     1     1     2     0     0 -1.486412403E+02 -5.789758769E+01 -2.702728430E+02  3.378146809E+02  1.250000000E+02  0.00000E+00  9.000E+00
      -2     1     1     2     0   502 -2.049123903E+01 -1.374674770E+01  4.514104194E+02  4.520843182E+02  0.000000000E+00  0.00000E+00  9.000E+00
#rwgt            1           1   2.8552369185835473E-002           3      489218           0
</event>
<event>
      5   9999  3.79277E-02  8.18916E+01 -1.00000E+00  1.27860E-01
       4    -1     0     0   502     0  0.000000000E+00  0.000000000E+00  4.783415593E+02  4.783415593E+02  0.000000000E+00  0.00000E+00  9.000E+00
      21    -1     0     0   501   502  0.000000000E+00  0.000000000E+00 -3.320131984E+02  3.320131984E+02  0.000000000E+00  0.00000E+00  9.000E+00
      25     1     1     2     0     0 -2.061688077E+01  2.993094249E+01 -2.812963545E+02  3.099573457E+02  1.250000000E+02  0.00000E+00  9.000E+00
      25     1     1     2     0     0  9.985427882E+01 -9.250870947E+00  1.872874934E+02  2.464915025E+02  1.250000000E+02  0.00000E+00  9.000E+00
       4     1     1     2   501     0 -7.923739806E+01 -2.068007154E+01  2.403372220E+02  2.539059095E+02  2.697398305E-06  0.00000E+00  9.000E+00
#rwgt            1           1   3.5302935565927812E-002           3      489366           0
</event>
<event>
      5   9999  3.79277E-02  2.98784E+01 -1.00000E+00  1.53162E-01
      21    -1     0     0   511   501  0.000000000E+00  0.000000000E+00  2.466221507E+02  2.466221507E+02  0.000000000E+00  0.00000E+00  9.000E+00
      21    -1     0     0   501   502  0.000000000E+00  0.000000000E+00 -2.016476609E+02  2.016476609E+02  0.000000000E+00  0.00000E+00  9.000E+00
      25     1     1     2     0     0 -9.400415619E+01 -7.281214696E+01 -7.673802392E+01  1.888176751E+02  1.250000000E+02  0.00000E+00  9.000E+00
      25     1     1     2     0     0  1.128116004E+02  9.602855293E+01  8.378700700E+01  2.111710271E+02  1.250000000E+02  0.00000E+00  9.000E+00
      21     1     1     2   511   502 -1.880744419E+01 -2.321640598E+01  3.792550670E+01  4.828110937E+01  6.743495762E-07  0.00000E+00  9.000E+00
#rwgt            1           1   3.9613859113512215E-002           3      489480           0
</event>
<event>
      5   9999  3.79277E-02  1.25775E+02 -1.00000E+00  1.19508E-01
      21    -1     0     0   502   512  0.000000000E+00  0.000000000E+00  2.017628724E+02  2.017628724E+02  0.000000000E+00  0.00000E+00  9.000E+00
      21    -1     0     0   501   502  0.000000000E+00  0.000000000E+00 -5.705884006E+02  5.705884006E+02  0.000000000E+00  0.00000E+00  9.000E+00
      25     1     1     2     0     0  8.420299460E+01 -1.781092130E+02 -3.414998641E+02  4.135942375E+02  1.250000000E+02  0.00000E+00  9.000E+00
      25     1     1     2     0     0  3.973682946E+01  1.567037957E+02 -8.382228684E+01  2.208761439E+02  1.250000000E+02  0.00000E+00  9.000E+00
      21     1     1     2   501   512 -1.239398241E+02  2.140541735E+01  5.649662281E+01  1.378808916E+02  1.168007728E-06  0.00000E+00  9.000E+00
#rwgt            1           1   4.4145443977192202E-002           3      489662           0
</event>
<event>
      5   9999  3.79277E-02  1.63475E+01 -1.00000E+00  1.73935E-01
      21    -1     0     0   502   501  0.000000000E+00  0.000000000E+00  1.231620713E+03  1.231620713E+03  0.000000000E+00  0.00000E+00  9.000E+00
      21    -1     0     0   511   502  0.000000000E+00  0.000000000E+00 -5.402868375E+01  5.402868375E+01  0.000000000E+00  0.00000E+00  9.000E+00
      25     1     1     2     0     0 -1.623491250E+02  8.199249472E+01  3.071186106E+02  3.781889059E+02  1.250000000E+02  0.00000E+00  9.000E+00
      25     1     1     2     0     0  1.776728916E+02 -8.768663968E+01  8.473775149E+02  8.791645216E+02  1.250000000E+02  0.00000E+00  9.000E+00
      21     1     1     2   511   501 -1.532376664E+01  5.694144968E+00  2.309590393E+01  2.829596948E+01  3.371747881E-07  0.00000E+00  9.000E+00
#rwgt            1           1   2.1924819877859929E-002           3      489778           0
</event>
<event>
      5   9999  3.79277E-02  5.47269E+01 -1.00000E+00  1.36874E-01
      21    -1     0     0   512   501  0.000000000E+00  0.000000000E+00  2.224577609E+02  2.224577609E+02  0.000000000E+00  0.00000E+00  9.000E+00
      21    -1     0     0   501   502  0.000000000E+00  0.000000000E+00 -5.744596499E+02  5.744596499E+02  0.000000000E+00  0.00000E+00  9.000E+00
      25     1     1     2     0     0 -2.499892408E+01 -1.609970766E+02 -4.303687542E+02  4.768514124E+02  1.250000000E+02  0.00000E+00  9.000E+00
      25     1     1     2     0     0  4.979799117E+01  1.122114318E+02 -4.858954260E+01  1.818163607E+02  1.250000000E+02  0.00000E+00  9.000E+00
      21     1     1     2   512   502 -2.479906708E+01  4.878564481E+01  1.269564078E+02  1.382496378E+02  1.348699152E-06  0.00000E+00  9.000E+00
#rwgt            1           1   4.6037173717220221E-002           3      490005           0
</event>
<event>
      5   9999  3.79277E-02  1.50240E+01 -1.00000E+00  1.77318E-01
      21    -1     0     0   511   501  0.000000000E+00  0.000000000E+00  2.851047573E+03  2.851047573E+03  0.000000000E+00  0.00000E+00  9.000E+00
      21    -1     0     0   501   502  0.000000000E+00  0.000000000E+00 -5.129955121E+01  5.129955121E+01  0.000000000E+00  0.00000E+00  9.000E+00
      25     1     1     2     0     0 -7.610030671E+01  3.114652342E+01  5.108563168E+02  5.323162021E+02  1.250000000E+02  0.00000E+00  9.000E+00
      25     1     1     2     0     0  6.167155123E+01 -3.533349933E+01  8.695235493E+01  1.680403179E+02  1.250000000E+02  0.00000E+00  9.000E+00
      21     1     1     2   511   502  1.442875547E+01  4.186975906E+00  2.201939350E+03  2.201990604E+03  0.000000000E+00  0.00000E+00  9.000E+00
#rwgt            1           1   4.9581643205142099E-002           3      490087           0
</event>
<event>
      5   9999  3.79277E-02  6.90817E+00 -1.00000E+00  2.16367E-01
      21    -1     0     0   512   501  0.000000000E+00  0.000000000E+00  1.709505816E+03  1.709505816E+03  0.000000000E+00  0.00000E+00  9.000E+00
      21    -1     0     0   501   502  0.000000000E+00  0.000000000E+00 -2.239597585E+02  2.239597585E+02  0.000000000E+00  0.00000E+00  9.000E+00
      25     1     1     2     0     0 -1.404304652E+02  3.415798858E+01  7.582642482E+01  2.055775533E+02  1.250000000E+02  0.00000E+00  9.000E+00
      25     1     1     2     0     0  1.462695406E+02 -3.784961139E+01 -9.864557411E+01  2.195069951E+02  1.250000000E+02  0.00000E+00  9.000E+00
      21     1     1     2   512   502 -5.839075491E+00  3.691622809E+00  1.508365207E+03  1.508381026E+03  2.157918644E-05  0.00000E+00  9.000E+00
#rwgt            1           1   3.7408978025582122E-002           3      490277           0
</event>
<event>
      5   9999  3.79277E-02  9.26114E+01 -1.00000E+00  1.25346E-01
      21    -1     0     0   502   511  0.000000000E+00  0.000000000E+00  1.469224544E+03  1.469224544E+03  0.000000000E+00  0.00000E+00  9.000E+00
      21    -1     0     0   501   502  0.000000000E+00  0.000000000E+00 -3.978782212E+01  3.978782212E+01  0.000000000E+00  0.00000E+00  9.000E+00
      25     1     1     2     0     0 -1.149186946E+02  7.092708603E+01  3.510220959E+02  3.963312626E+02  1.250000000E+02  0.00000E+00  9.000E+00
      25     1     1     2     0     0  6.715311646E+01  8.415931785E+00  3.405220527E+02  3.689995085E+02  1.250000000E+02  0.00000E+00  9.000E+00
      21     1     1     2   501   511  4.776557817E+01 -7.934301782E+01  7.378925733E+02  7.436815949E+02  1.078959322E-05  0.00000E+00  9.000E+00
#rwgt            1           1   6.1674596781840257E-002           3      490596           0
</event>
<event>
      5   9999 -3.79277E-02  3.92267E+01 -1.00000E+00  1.45368E-01
      21    -1     0     0   502   501  0.000000000E+00  0.000000000E+00  8.408404787E+02  8.408404787E+02  0.000000000E+00  0.00000E+00  9.000E+00
      21    -1     0     0   501   512  0.000000000E+00  0.000000000E+00 -1.701219593E+02  1.701219593E+02  0.000000000E+00  0.00000E+00  9.000E+00
      25     1     1     2     0     0  1.588147506E+02  1.415087952E+02  5.937107868E+02  6.429341820E+02  1.250000000E+02  0.00000E+00  9.000E+00
      25     1     1     2     0     0 -1.251352665E+02 -1.213984116E+02  1.656872393E+02  2.710602710E+02  1.250000000E+02  0.00000E+00  9.000E+00
      21     1     1     2   502   512 -3.367948411E+01 -2.011038360E+01 -8.867950674E+01  9.696798489E+01  1.907348633E-06  0.00000E+00  9.000E+00
#rwgt            1           1 -0.47275912852131646                3      490658           0
</event>
<event>
      5   9999  3.79277E-02  7.75626E+01 -1.00000E+00  1.29003E-01
      21    -1     0     0   502   511  0.000000000E+00  0.000000000E+00  7.640404639E+02  7.640404639E+02  0.000000000E+00  0.00000E+00  9.000E+00
      21    -1     0     0   501   502  0.000000000E+00  0.000000000E+00 -9.377008341E+02  9.377008341E+02  0.000000000E+00  0.00000E+00  9.000E+00
      25     1     1     2     0     0  2.491808875E+02 -1.460400471E+02 -3.905277955E+02  5.015533562E+02  1.250000000E+02  0.00000E+00  9.000E+00
      25     1     1     2     0     0 -2.135129354E+02  2.149149954E+02 -4.344911012E+02  5.442276599E+02  1.250000000E+02  0.00000E+00  9.000E+00
      21     1     1     2   501   511 -3.566795218E+01 -6.887494831E+01  6.513585265E+02  6.559602819E+02  1.321449896E-05  0.00000E+00  9.000E+00
#rwgt            1           1   2.2466838213100835E-002           3      490759           0
</event>
<event>
      5   9999  3.79277E-02  1.57055E+01 -1.00000E+00  1.75524E-01
      21    -1     0     0   502   501  0.000000000E+00  0.000000000E+00  3.146977317E+02  3.146977317E+02  0.000000000E+00  0.00000E+00  9.000E+00
      21    -1     0     0   512   502  0.000000000E+00  0.000000000E+00 -5.133339839E+02  5.133339839E+02  0.000000000E+00  0.00000E+00  9.000E+00
      25     1     1     2     0     0 -2.979649478E+02  2.076236342E+02 -5.743366707E+01  3.883481810E+02  1.250000000E+02  0.00000E+00  9.000E+00
      25     1     1     2     0     0  3.000310046E+02 -1.920546423E+02 -9.275952428E+01  3.887581751E+02  1.250000000E+02  0.00000E+00  9.000E+00
      21     1     1     2   512   501 -2.066056841E+00 -1.556899191E+01 -4.844306077E+01  5.092535947E+01  0.000000000E+00  0.00000E+00  9.000E+00
#rwgt            1           1   1.6191767517936308E-002           3      490921           0
</event>
<event>
      5   9999 -3.79277E-02  2.63473E+01 -1.00000E+00  1.57062E-01
      21    -1     0     0   502   511  0.000000000E+00  0.000000000E+00  2.168805172E+02  2.168805172E+02  0.000000000E+00  0.00000E+00  9.000E+00
      21    -1     0     0   501   502  0.000000000E+00  0.000000000E+00 -2.940537229E+02  2.940537229E+02  0.000000000E+00  0.00000E+00  9.000E+00
      25     1     1     2     0     0 -9.363012343E+01  6.693218956E+01 -1.381061057E+02  2.189630436E+02  1.250000000E+02  0.00000E+00  9.000E+00
      25     1     1     2     0     0  8.011416046E+01 -8.954855390E+01 -4.799285854E+01  1.799042431E+02  1.250000000E+02  0.00000E+00  9.000E+00
      21     1     1     2   501   511  1.351596297E+01  2.261636434E+01  1.089257585E+02  1.120669535E+02  2.336015456E-06  0.00000E+00  9.000E+00
#rwgt            1           1  -5.7361738584516195E-002           3      491272           0
</event>
<event>
      5   9999 -3.79277E-02  3.05423E+01 -1.00000E+00  1.52501E-01
      21    -1     0     0   512   501  0.000000000E+00  0.000000000E+00  7.925370481E+01  7.925370481E+01  0.000000000E+00  0.00000E+00  9.000E+00
      21    -1     0     0   501   502  0.000000000E+00  0.000000000E+00 -8.941145290E+02  8.941145290E+02  0.000000000E+00  0.00000E+00  9.000E+00
      25     1     1     2     0     0  1.639325770E+02 -8.348795746E+01 -3.319851204E+02  3.996038652E+02  1.250000000E+02  0.00000E+00  9.000E+00
      25     1     1     2     0     0 -1.356628688E+02  9.504886294E+01 -4.981283096E+02  5.396253452E+02  1.250000000E+02  0.00000E+00  9.000E+00
      21     1     1     2   512   502 -2.826970823E+01 -1.156090549E+01  1.525260586E+01  3.413902349E+01  9.078709013E-07  0.00000E+00  9.000E+00
#rwgt            1           1  -9.6238655405101250E-002           3      491420           0
</event>
<event>
      5   9999  3.79277E-02  3.85039E+01 -1.00000E+00  1.45874E-01
      21    -1     0     0   502   511  0.000000000E+00  0.000000000E+00  6.610432357E+02  6.610432357E+02  0.000000000E+00  0.00000E+00  9.000E+00
      21    -1     0     0   501   502  0.000000000E+00  0.000000000E+00 -7.779864289E+01  7.779864289E+01  0.000000000E+00  0.00000E+00  9.000E+00
      25     1     1     2     0     0 -3.750656106E+01  1.042759766E+02  5.231280876E+01  1.750481402E+02  1.250000000E+02  0.00000E+00  9.000E+00
      25     1     1     2     0     0  2.787473981E+01 -6.699628327E+01  4.699439806E+02  4.916684330E+02  1.250000000E+02  0.00000E+00  9.000E+00
      21     1     1     2   501   511  9.631821245E+00 -3.727969333E+01  6.098780344E+01  7.212530544E+01  1.507891493E-06  0.00000E+00  9.000E+00
#rwgt            1           1   4.8475384455005252E-002           3      491590           0
</event>
<event>
      5   9999 -3.79277E-02  2.51118E+01 -1.00000E+00  1.58606E-01
      21    -1     0     0   512   501  0.000000000E+00  0.000000000E+00  7.282794412E+01  7.282794412E+01  0.000000000E+00  0.00000E+00  9.000E+00
      21    -1     0     0   501   502  0.000000000E+00  0.000000000E+00 -9.136826318E+02  9.136826318E+02  0.000000000E+00  0.00000E+00  9.000E+00
      25     1     1     2     0     0 -3.099909362E+01 -1.313115810E+02 -4.101569024E+02  4.495079084E+02  1.250000000E+02  0.00000E+00  9.000E+00
      25     1     1     2     0     0  1.043925841E+01  1.457301209E+02 -4.599066527E+02  4.984830744E+02  1.250000000E+02  0.00000E+00  9.000E+00
      21     1     1     2   512   502  2.055983521E+01 -1.441853988E+01  2.920886747E+01  3.851959313E+01  1.305872339E-06  0.00000E+00  9.000E+00
#rwgt            1           1  -6.7584233353031015E-002           3      491753           0
</event>
<event>
      5   9999  3.79277E-02  1.55650E+01 -1.00000E+00  1.75884E-01
      21    -1     0     0   502   501  0.000000000E+00  0.000000000E+00  3.630292442E+03  3.630292442E+03  0.000000000E+00  0.00000E+00  9.000E+00
      21    -1     0     0   501   511  0.000000000E+00  0.000000000E+00 -1.287560496E+02  1.287560496E+02  0.000000000E+00  0.00000E+00  9.000E+00
      25     1     1     2     0     0 -4.973576256E+01 -3.672783014E+01  2.787208075E+03  2.790694615E+03  1.250000000E+02  0.00000E+00  9.000E+00
      25     1     1     2     0     0  5.576735718E+01  5.107668201E+01  8.344931685E+02  8.471851473E+02  1.250000000E+02  0.00000E+00  9.000E+00
      21     1     1     2   502   511 -6.031594617E+00 -1.434885187E+01 -1.201648509E+02  1.211687298E+02  8.422623507E-06  0.00000E+00  9.000E+00
#rwgt            1           1   1.3832828297861380E-002           3      491907           0
</event>
<event>
      5   9999 -3.79277E-02  3.92878E+01 -1.00000E+00  1.45326E-01
      21    -1     0     0   502   501  0.000000000E+00  0.000000000E+00  1.452866723E+03  1.452866723E+03  0.000000000E+00  0.00000E+00  9.000E+00
      21    -1     0     0   512   502  0.000000000E+00  0.000000000E+00 -1.457862357E+02  1.457862357E+02  0.000000000E+00  0.00000E+00  9.000E+00
      25     1     1     2     0     0 -1.430669531E+02 -2.481206132E+01  1.096470189E+03  1.113083854E+03  1.250000000E+02  0.00000E+00  9.000E+00
      25     1     1     2     0     0  1.526641905E+02 -1.328554903E+01  3.161770381E+02  3.729286531E+02  1.250000000E+02  0.00000E+00  9.000E+00
      21     1     1     2   512   501 -9.597237347E+00  3.809761035E+01 -1.055667394E+02  1.126404517E+02  4.473129043E-06  0.00000E+00  9.000E+00
#rwgt            1           1  -7.9102683329911841E-002           3      492096           0
</event>
<event>
      5   9999  3.79277E-02  5.40678E+01 -1.00000E+00  1.37165E-01
      21    -1     0     0   502   501  0.000000000E+00  0.000000000E+00  1.945301217E+03  1.945301217E+03  0.000000000E+00  0.00000E+00  9.000E+00
      21    -1     0     0   501   511  0.000000000E+00  0.000000000E+00 -5.696616107E+01  5.696616107E+01  0.000000000E+00  0.00000E+00  9.000E+00
      25     1     1     2     0     0  1.570714588E+02  9.151637999E+01  7.666795725E+02  7.977902343E+02  1.250000000E+02  0.00000E+00  9.000E+00
      25     1     1     2     0     0 -1.398185942E+02 -4.027513011E+01  1.133090837E+03  1.149213283E+03  1.250000000E+02  0.00000E+00  9.000E+00
      21     1     1     2   502   511 -1.725286459E+01 -5.124124988E+01 -1.143535321E+01  5.526386097E+01  1.469710828E-06  0.00000E+00  9.000E+00
#rwgt            1           1   9.8426021832349095E-002           3      492205           0
</event>
<event>
      5   9999  3.79277E-02  3.02591E+01 -1.00000E+00  1.52781E-01
      21    -1     0     0   502   501  0.000000000E+00  0.000000000E+00  9.717919394E+02  9.717919394E+02  0.000000000E+00  0.00000E+00  9.000E+00
       5    -1     0     0   501     0  0.000000000E+00  0.000000000E+00 -6.925553544E+01  6.925553544E+01  0.000000000E+00  0.00000E+00  9.000E+00
      25     1     1     2     0     0 -1.038114587E+01  8.791208577E+01  2.241811960E+02  2.715115314E+02  1.250000000E+02  0.00000E+00  9.000E+00
      25     1     1     2     0     0 -1.616239990E+01 -7.338436402E+01  7.105437062E+02  7.253577369E+02  1.250000000E+02  0.00000E+00  9.000E+00
       5     1     1     2   502     0  2.654354577E+01 -1.452772175E+01 -3.218849823E+01  4.417820661E+01  1.066240300E-06  0.00000E+00  9.000E+00
#rwgt            1           1   3.3743951022067446E-002           3      492400           0
</event>
<event>
      5   9999  3.79277E-02  3.64327E+01 -1.00000E+00  1.47402E-01
      21    -1     0     0   502   501  0.000000000E+00  0.000000000E+00  1.268215767E+02  1.268215767E+02  0.000000000E+00  0.00000E+00  9.000E+00
      21    -1     0     0   501   511  0.000000000E+00  0.000000000E+00 -6.005005330E+02  6.005005330E+02  0.000000000E+00  0.00000E+00  9.000E+00
      25     1     1     2     0     0 -1.299187662E+02 -9.959273338E+01 -1.126471713E+01  2.062752826E+02  1.250000000E+02  0.00000E+00  9.000E+00
      25     1     1     2     0     0  1.461857590E+02  6.699329219E+01 -3.948388842E+02  4.442759523E+02  1.250000000E+02  0.00000E+00  9.000E+00
      21     1     1     2   502   511 -1.626699276E+01  3.259944119E+01 -6.757535496E+01  7.677087480E+01  9.536743164E-07  0.00000E+00  9.000E+00
#rwgt            1           1   3.7888117679562058E-002           3      492516           0
</event>
<event>
      5   9999  3.79277E-02  4.53889E+01 -1.00000E+00  1.41516E-01
      21    -1     0     0   502   512  0.000000000E+00  0.000000000E+00  2.480875604E+02  2.480875604E+02  0.000000000E+00  0.00000E+00  9.000E+00
      21    -1     0     0   501   502  0.000000000E+00  0.000000000E+00 -2.383688584E+03  2.383688584E+03  0.000000000E+00  0.00000E+00  9.000E+00
      25     1     1     2     0     0  2.280605487E+02 -7.800353138E+01 -2.040286470E+03  2.058273559E+03  1.250000000E+02  0.00000E+00  9.000E+00
      25     1     1     2     0     0 -1.829308331E+02  8.284672791E+01 -2.896343258E+02  3.739522866E+02  1.250000000E+02  0.00000E+00  9.000E+00
      21     1     1     2   501   512 -4.512971565E+01 -4.843196532E+00  1.943197722E+02  1.995502986E+02  2.697398305E-06  0.00000E+00  9.000E+00
#rwgt            1           1   5.8753151471608353E-002           3      492696           0
</event>
<event>
      5   9999  3.79277E-02  6.23858E+01 -1.00000E+00  1.33805E-01
      21    -1     0     0   502   501  0.000000000E+00  0.000000000E+00  4.943338015E+01  4.943338015E+01  0.000000000E+00  0.00000E+00  9.000E+00
      21    -1     0     0   501   511  0.000000000E+00  0.000000000E+00 -1.576866415E+03  1.576866415E+03  0.000000000E+00  0.00000E+00  9.000E+00
      25     1     1     2     0     0  8.435590612E+01  1.095145096E+02 -3.633256935E+02  4.083379805E+02  1.250000000E+02  0.00000E+00  9.000E+00
      25     1     1     2     0     0 -1.336776669E+02 -1.477159914E+02 -5.185069454E+02  5.693541825E+02  1.250000000E+02  0.00000E+00  9.000E+00
      21     1     1     2   502   511  4.932176074E+01  3.820148175E+01 -6.456003954E+02  6.486076317E+02  1.078959322E-05  0.00000E+00  9.000E+00
#rwgt            1           1   3.6815633360049997E-002           3      492919           0
</event>
<event>
      5   9999  3.79277E-02  4.69641E+01 -1.00000E+00  1.40646E-01
      21    -1     0     0   502   512  0.000000000E+00  0.000000000E+00  2.421910663E+02  2.421910663E+02  0.000000000E+00  0.00000E+00  9.000E+00
      21    -1     0     0   501   502  0.000000000E+00  0.000000000E+00 -3.848436882E+02  3.848436882E+02  0.000000000E+00  0.00000E+00  9.000E+00
      25     1     1     2     0     0 -1.849485477E+02  5.401937425E+01 -2.865573520E+00  2.296895070E+02  1.250000000E+02  0.00000E+00  9.000E+00
      25     1     1     2     0     0  2.071518116E+02 -1.263526007E+01 -2.047355418E+02  3.171957832E+02  1.250000000E+02  0.00000E+00  9.000E+00
      21     1     1     2   501   512 -2.220326386E+01 -4.138411418E+01  6.494849345E+01  8.014946434E+01  0.000000000E+00  0.00000E+00  9.000E+00
#rwgt            1           1   3.7579777970890745E-002           3      493055           0
</event>
<event>
      5   9999  3.79277E-02  1.28990E+02 -1.00000E+00  1.19051E-01
      21    -1     0     0   502   501  0.000000000E+00  0.000000000E+00  2.601262285E+03  2.601262285E+03  0.000000000E+00  0.00000E+00  9.000E+00
      21    -1     0     0   501   511  0.000000000E+00  0.000000000E+00 -1.236306438E+02  1.236306438E+02  0.000000000E+00  0.00000E+00  9.000E+00
      25     1     1     2     0     0  5.413029717E+01  3.999794938E+01  5.165867438E+02  5.357394786E+02  1.250000000E+02  0.00000E+00  9.000E+00
      25     1     1     2     0     0 -1.057995170E+02  7.819155932E+01  2.033247753E+03  2.041330175E+03  1.250000000E+02  0.00000E+00  9.000E+00
      21     1     1     2   502   511  5.166921986E+01 -1.181895087E+02 -7.220285587E+01  1.478232750E+02  7.747686772E-06  0.00000E+00  9.000E+00
#rwgt            1           1   5.9807883651463112E-002           3      493177           0
</event>
<event>
      5   9999  3.79277E-02  5.06249E+01 -1.00000E+00  1.38768E-01
      21    -1     0     0   502   501  0.000000000E+00  0.000000000E+00  2.652948326E+02  2.652948326E+02  0.000000000E+00  0.00000E+00  9.000E+00
      21    -1     0     0   512   502  0.000000000E+00  0.000000000E+00 -4.541659616E+02  4.541659616E+02  0.000000000E+00  0.00000E+00  9.000E+00
      25     1     1     2     0     0 -1.866845367E+02  6.855816062E+01  9.330120884E+01  2.527478056E+02  1.250000000E+02  0.00000E+00  9.000E+00
      25     1     1     2     0     0  2.299803673E+02 -9.479459432E+01 -1.317373342E+02  3.079881648E+02  1.250000000E+02  0.00000E+00  9.000E+00
      21     1     1     2   512   501 -4.329583057E+01  2.623643370E+01 -1.504350036E+02  1.587248239E+02  2.697398305E-06  0.00000E+00  9.000E+00
#rwgt            1           1   3.9216049257263984E-002           3      493253           0
</event>
<event>
      5   9999  3.79277E-02  6.39496E+01 -1.00000E+00  1.33240E-01
      21    -1     0     0   502   501  0.000000000E+00  0.000000000E+00  1.787849319E+02  1.787849319E+02  0.000000000E+00  0.00000E+00  9.000E+00
      21    -1     0     0   501   511  0.000000000E+00  0.000000000E+00 -2.953524741E+02  2.953524741E+02  0.000000000E+00  0.00000E+00  9.000E+00
      25     1     1     2     0     0  1.241375657E+02 -4.830424466E+00 -1.378670408E+02  2.237538584E+02  1.250000000E+02  0.00000E+00  9.000E+00
      25     1     1     2     0     0 -8.510646383E+01 -4.582646744E+01  6.715607374E+01  1.716919146E+02  1.250000000E+02  0.00000E+00  9.000E+00
      21     1     1     2   502   511 -3.903110184E+01  5.065689191E+01 -4.585657519E+01  7.869163295E+01  9.536743164E-07  0.00000E+00  9.000E+00
#rwgt            1           1   5.0487196572335608E-002           3      493388           0
</event>
<event>
      5   9999  3.79277E-02  2.44440E+01 -1.00000E+00  1.59486E-01
      21    -1     0     0   502   501  0.000000000E+00  0.000000000E+00  6.291061872E+01  6.291061872E+01  0.000000000E+00  0.00000E+00  9.000E+00
      21    -1     0     0   512   502  0.000000000E+00  0.000000000E+00 -4.195221506E+02  4.195221506E+02  0.000000000E+00  0.00000E+00  9.000E+00
      25     1     1     2     0     0 -3.788364260E+01 -1.625832974E+01 -2.674178781E+02  2.980550707E+02  1.250000000E+02  0.00000E+00  9.000E+00
      25     1     1     2     0     0  1.876882452E+01  3.149431574E+01 -5.284982668E+01  1.405783229E+02  1.250000000E+02  0.00000E+00  9.000E+00
      21     1     1     2   512   501  1.911481808E+01 -1.523598600E+01 -3.634382717E+01  4.379937572E+01  6.743495762E-07  0.00000E+00  9.000E+00
#rwgt            1           1   6.2639706385236402E-002           3      493545           0
</event>
<event>
      5   9999  3.79277E-02  2.90070E+01 -1.00000E+00  1.54062E-01
      21    -1     0     0   502   501  0.000000000E+00  0.000000000E+00  3.364744217E+02  3.364744217E+02  0.000000000E+00  0.00000E+00  9.000E+00
      21    -1     0     0   501   511  0.000000000E+00  0.000000000E+00 -2.183220803E+02  2.183220803E+02  0.000000000E+00  0.00000E+00  9.000E+00
      25     1     1     2     0     0 -5.497592015E+01 -8.349859452E+01 -3.741521252E+01  1.643753790E+02  1.250000000E+02  0.00000E+00  9.000E+00
      25     1     1     2     0     0  3.307637445E+01  1.025200639E+02  2.455690300E+02  2.958607080E+02  1.250000000E+02  0.00000E+00  9.000E+00
      21     1     1     2   502   511  2.189954570E+01 -1.902146938E+01 -9.000147610E+01  9.456041508E+01  1.348699152E-06  0.00000E+00  9.000E+00
#rwgt            1           1   2.8962307980871071E-002           3      493677           0
</event>
<event>
      5   9999  3.79277E-02  5.81147E+01 -1.00000E+00  1.35449E-01
      21    -1     0     0   502   501  0.000000000E+00  0.000000000E+00  5.748258105E+02  5.748258105E+02  0.000000000E+00  0.00000E+00  9.000E+00
      -1    -1     0     0     0   502  0.000000000E+00  0.000000000E+00 -8.079103822E+02  8.079103822E+02  0.000000000E+00  0.00000E+00  9.000E+00
      25     1     1     2     0     0 -6.884472106E+01  2.387631543E+02  1.344403481E+02  3.089444071E+02  1.250000000E+02  0.00000E+00  9.000E+00
      25     1     1     2     0     0  7.585794231E+01 -1.810731739E+02  3.134135082E+02  3.903779564E+02  1.250000000E+02  0.00000E+00  9.000E+00
      -1     1     1     2     0   501 -7.013221245E+00 -5.768998043E+01 -6.809384281E+02  6.834138292E+02  1.078959322E-05  0.00000E+00  9.000E+00
#rwgt            1           1   3.2130573553400828E-002           3      493795           0
</event>
<event>
      5   9999  3.79277E-02  5.65474E+01 -1.00000E+00  1.36093E-01
      21    -1     0     0   502   501  0.000000000E+00  0.000000000E+00  1.806459144E+03  1.806459144E+03  0.000000000E+00  0.00000E+00  9.000E+00
      21    -1     0     0   501   511  0.000000000E+00  0.000000000E+00 -5.593366497E+01  5.593366497E+01  0.000000000E+00  0.00000E+00  9.000E+00
      25     1     1     2     0     0  2.482586975E+02 -9.472542931E+01  8.667451973E+02  9.151379813E+02  1.250000000E+02  0.00000E+00  9.000E+00
      25     1     1     2     0     0 -2.525088197E+02  3.833797994E+01  7.407875972E+02  7.934870943E+02  1.250000000E+02  0.00000E+00  9.000E+00
      21     1     1     2   502   511  4.250122175E+00  5.638744937E+01  1.429926850E+02  1.537677338E+02  2.697398305E-06  0.00000E+00  9.000E+00
#rwgt            1           1   3.9632343653803741E-002           3      493994           0
</event>
<event>
      5   9999  3.79277E-02  7.75432E+01 -1.00000E+00  1.29009E-01
      21    -1     0     0   502   512  0.000000000E+00  0.000000000E+00  1.015613776E+02  1.015613776E+02  0.000000000E+00  0.00000E+00  9.000E+00
      21    -1     0     0   501   502  0.000000000E+00  0.000000000E+00 -7.622569426E+02  7.622569426E+02  0.000000000E+00  0.00000E+00  9.000E+00
      25     1     1     2     0     0 -1.174045994E+01  6.708968920E+01 -5.142962225E+02  5.336332723E+02  1.250000000E+02  0.00000E+00  9.000E+00
      25     1     1     2     0     0  8.297817479E+01 -9.771864261E+01 -1.722425373E+02  2.484487920E+02  1.250000000E+02  0.00000E+00  9.000E+00
      21     1     1     2   501   512 -7.123771485E+01  3.062895341E+01  2.584319486E+01  8.173625588E+01  1.390207266E-06  0.00000E+00  9.000E+00
#rwgt            1           1   3.6317196542963240E-002           3      494115           0
</event>
<event>
      5   9999  3.79277E-02  1.14761E+02 -1.00000E+00  1.21197E-01
      21    -1     0     0   511   501  0.000000000E+00  0.000000000E+00  9.433272971E+02  9.433272971E+02  0.000000000E+00  0.00000E+00  9.000E+00
      21    -1     0     0   501   502  0.000000000E+00  0.000000000E+00 -8.427373129E+01  8.427373129E+01  0.000000000E+00  0.00000E+00  9.000E+00
      25     1     1     2     0     0 -1.145587479E+02  1.544537437E+02  3.365653859E+02  4.072848201E+02  1.250000000E+02  0.00000E+00  9.000E+00
      25     1     1     2     0     0  2.324180594E+00 -1.784030659E+02  3.111974295E+02  3.798708937E+02  1.250000000E+02  0.00000E+00  9.000E+00
      21     1     1     2   511   502  1.122345673E+02  2.394932222E+01  2.112907504E+02  2.404453147E+02  2.697398305E-06  0.00000E+00  9.000E+00
#rwgt            1           1   3.5589765830637131E-002           3      494177           0
</event>
<event>
      5   9999  3.79277E-02  1.49125E+01 -1.00000E+00  1.77623E-01
      21    -1     0     0   512   501  0.000000000E+00  0.000000000E+00  1.530473304E+03  1.530473304E+03  0.000000000E+00  0.00000E+00  9.000E+00
      21    -1     0     0   501   502  0.000000000E+00  0.000000000E+00 -1.443469607E+02  1.443469607E+02  0.000000000E+00  0.00000E+00  9.000E+00
      25     1     1     2     0     0 -2.931613890E+01  3.192510609E+02  1.391114705E+02  3.711572135E+02  1.250000000E+02  0.00000E+00  9.000E+00
      25     1     1     2     0     0  3.165811254E+01 -3.339785146E+02  1.121261466E+03  1.177028529E+03  1.250000000E+02  0.00000E+00  9.000E+00
      21     1     1     2   512   502 -2.341973642E+00  1.472745364E+01  1.257534070E+02  1.266345217E+02  1.907348633E-06  0.00000E+00  9.000E+00
#rwgt            1           1  0.14998179442742660                3      494278           0
</event>
<event>
      5   9999  3.79277E-02  9.31306E+01 -1.00000E+00  1.25234E-01
      21    -1     0     0   502   501  0.000000000E+00  0.000000000E+00  1.547404551E+03  1.547404551E+03  0.000000000E+00  0.00000E+00  9.000E+00
      21    -1     0     0   501   511  0.000000000E+00  0.000000000E+00 -6.307561873E+01  6.307561873E+01  0.000000000E+00  0.00000E+00  9.000E+00
      25     1     1     2     0     0  1.052546594E+01 -1.669698129E+02  6.012823149E+02  6.365179699E+02  1.250000000E+02  0.00000E+00  9.000E+00
      25     1     1     2     0     0 -9.322036731E+01  2.098051198E+02  8.221051184E+02  8.626645066E+02  1.250000000E+02  0.00000E+00  9.000E+00
      21     1     1     2   502   511  8.269490137E+01 -4.283530694E+01  6.094149913E+01  1.112976934E+02  3.438521648E-06  0.00000E+00  9.000E+00
#rwgt            1           1   2.9375973172385165E-002           3      494666           0
</event>
<event>
      5   9999  3.79277E-02  4.29947E+01 -1.00000E+00  1.42922E-01
      21    -1     0     0   512   501  0.000000000E+00  0.000000000E+00  1.953498067E+02  1.953498067E+02  0.000000000E+00  0.00000E+00  9.000E+00
      21    -1     0     0   501   502  0.000000000E+00  0.000000000E+00 -1.975468472E+02  1.975468472E+02  0.000000000E+00  0.00000E+00  9.000E+00
      25     1     1     2     0     0  1.108290915E+02  6.644393741E+01 -2.043660230E+01  1.809434692E+02  1.250000000E+02  0.00000E+00  9.000E+00
      25     1     1     2     0     0 -6.810640272E+01 -6.161528856E+01 -1.742954266E+01  1.560888043E+02  1.250000000E+02  0.00000E+00  9.000E+00
      21     1     1     2   512   502 -4.272268878E+01 -4.828648844E+00  3.566910439E+01  5.586438037E+01  8.259061849E-07  0.00000E+00  9.000E+00
#rwgt            1           1   5.9664697693025175E-002           3      494740           0
</event>
<event>
      5   9999  3.79277E-02  3.05537E+01 -1.00000E+00  1.52490E-01
      21    -1     0     0   502   501  0.000000000E+00  0.000000000E+00  9.084584428E+02  9.084584428E+02  0.000000000E+00  0.00000E+00  9.000E+00
      21    -1     0     0   501   511  0.000000000E+00  0.000000000E+00 -3.000913550E+02  3.000913550E+02  0.000000000E+00  0.00000E+00  9.000E+00
      25     1     1     2     0     0  9.446946423E+01 -5.138453128E+01  7.371953343E+02  7.554116829E+02  1.250000000E+02  0.00000E+00  9.000E+00
      25     1     1     2     0     0 -1.209838840E+02  6.656718581E+01  1.073564561E+02  2.149853462E+02  1.250000000E+02  0.00000E+00  9.000E+00
      21     1     1     2   502   511  2.651441981E+01 -1.518265453E+01 -2.361847026E+02  2.381527686E+02  2.697398305E-06  0.00000E+00  9.000E+00
#rwgt            1           1   3.2832323573544632E-002           3      494815           0
</event>
<event>
      5   9999  3.79277E-02  3.56894E+01 -1.00000E+00  1.47980E-01
      21    -1     0     0   502   501  0.000000000E+00  0.000000000E+00  9.686224900E+01  9.686224900E+01  0.000000000E+00  0.00000E+00  9.000E+00
      21    -1     0     0   501   512  0.000000000E+00  0.000000000E+00 -4.889073920E+02  4.889073920E+02  0.000000000E+00  0.00000E+00  9.000E+00
      25     1     1     2     0     0 -5.970229437E+01 -1.193645417E+02 -8.866731286E+01  2.032219234E+02  1.250000000E+02  0.00000E+00  9.000E+00
      25     1     1     2     0     0  9.510752962E+01  1.148700410E+02 -2.324568093E+02  3.031529922E+02  1.250000000E+02  0.00000E+00  9.000E+00
      21     1     1     2   502   512 -3.540523525E+01  4.494500740E+00 -7.092102081E+01  7.939472534E+01  0.000000000E+00  0.00000E+00  9.000E+00
#rwgt            1           1   4.6235878029790262E-002           3      494920           0
</event>
<event>
      5   9999  3.79277E-02  1.16079E+01 -1.00000E+00  1.88558E-01
      21    -1     0     0   502   501  0.000000000E+00  0.000000000E+00  2.293926254E+02  2.293926254E+02  0.000000000E+00  0.00000E+00  9.000E+00
      21    -1     0     0   511   502  0.000000000E+00  0.000000000E+00 -3.573128290E+02  3.573128290E+02  0.000000000E+00  0.00000E+00  9.000E+00
      25     1     1     2     0     0 -1.055469961E+02  2.071029133E+02  2.066169313E+01  2.647332443E+02  1.250000000E+02  0.00000E+00  9.000E+00
      25     1     1     2     0     0  1.075020880E+02 -2.185449973E+02 -1.452000120E+02  3.098816843E+02  1.250000000E+02  0.00000E+00  9.000E+00
      21     1     1     2   511   501 -1.955091893E+00  1.144208400E+01 -3.381884730E+00  1.209052583E+01  1.397852826E-07  0.00000E+00  9.000E+00
#rwgt            1           1   3.0626483474719798E-002           3      495114           0
</event>
<event>
      5   9999  3.79277E-02  1.96851E+01 -1.00000E+00  1.66940E-01
      21    -1     0     0   502   501  0.000000000E+00  0.000000000E+00  2.730104930E+02  2.730104930E+02  0.000000000E+00  0.00000E+00  9.000E+00
       2    -1     0     0   501     0  0.000000000E+00  0.000000000E+00 -1.027499493E+03  1.027499493E+03  0.000000000E+00  0.00000E+00  9.000E+00
      25     1     1     2     0     0  5.165018997E+01  1.949587743E+02  1.413165085E+02  2.761738970E+02  1.250000000E+02  0.00000E+00  9.000E+00
      25     1     1     2     0     0 -3.573795182E+01 -2.065476784E+02 -1.680606301E+02  2.963250243E+02  1.250000000E+02  0.00000E+00  9.000E+00
       2     1     1     2   502     0 -1.591223815E+01  1.158890405E+01 -7.277448784E+02  7.280110645E+02  1.078959322E-05  0.00000E+00  9.000E+00
#rwgt            1           1   3.4165864501683595E-002           3      495514           0
</event>
<event>
      5   9999  3.79277E-02  1.51972E+02 -1.00000E+00  1.16169E-01
      21    -1     0     0   502   511  0.000000000E+00  0.000000000E+00  3.037152502E+02  3.037152502E+02  0.000000000E+00  0.00000E+00  9.000E+00
      21    -1     0     0   501   502  0.000000000E+00  0.000000000E+00 -5.069531091E+02  5.069531091E+02  0.000000000E+00  0.00000E+00  9.000E+00
      25     1     1     2     0     0  2.608628590E+01 -1.342936818E+02  1.927885716E-01  1.853114256E+02  1.250000000E+02  0.00000E+00  9.000E+00
      25     1     1     2     0     0 -1.495103779E+02  2.229617618E+02 -3.183816270E+02  4.348070385E+02  1.250000000E+02  0.00000E+00  9.000E+00
      21     1     1     2   501   511  1.234240920E+02 -8.866807998E+01  1.149509795E+02  1.905498952E+02  1.907348633E-06  0.00000E+00  9.000E+00
#rwgt            1           1   3.5647392406193974E-002           3      495947           0
</event>
<event>
      5   9999  3.79277E-02  4.90169E+01 -1.00000E+00  1.39569E-01
      21    -1     0     0   502   501  0.000000000E+00  0.000000000E+00  4.925455134E+02  4.925455134E+02  0.000000000E+00  0.00000E+00  9.000E+00
      21    -1     0     0   501   512  0.000000000E+00  0.000000000E+00 -1.485961843E+02  1.485961843E+02  0.000000000E+00  0.00000E+00  9.000E+00
      25     1     1     2     0     0  4.034733665E+01 -1.044098273E+02  3.433648953E+02  3.821698195E+02  1.250000000E+02  0.00000E+00  9.000E+00
      25     1     1     2     0     0 -4.561169491E+01  1.531431995E+02 -2.372590352E+01  2.042576431E+02  1.250000000E+02  0.00000E+00  9.000E+00
      21     1     1     2   502   512  5.264358262E+00 -4.873337221E+01  2.431033736E+01  5.471423523E+01  7.539457465E-07  0.00000E+00  9.000E+00
#rwgt            1           1   3.4364311970107045E-002           3      496166           0
</event>
<event>
      5   9999  3.79277E-02  8.69728E+01 -1.00000E+00  1.26617E-01
      21    -1     0     0   502   501  0.000000000E+00  0.000000000E+00  1.725366570E+02  1.725366570E+02  0.000000000E+00  0.00000E+00  9.000E+00
      21    -1     0     0   511   502  0.000000000E+00  0.000000000E+00 -6.428006952E+02  6.428006952E+02  0.000000000E+00  0.00000E+00  9.000E+00
      25     1     1     2     0     0 -2.405141048E+02  7.298193355E+01 -2.055399975E+02  3.479153458E+02  1.250000000E+02  0.00000E+00  9.000E+00
      25     1     1     2     0     0  1.786776677E+02 -1.182216973E+01 -3.420804833E+01  2.210444824E+02  1.250000000E+02  0.00000E+00  9.000E+00
      21     1     1     2   511   501  6.183643719E+01 -6.115976382E+01 -2.305159923E+02  2.463775241E+02  0.000000000E+00  0.00000E+00  9.000E+00
#rwgt            1           1  0.28199314561098315                3      496290           0
</event>
<event>
      5   9999  3.79277E-02  1.44491E+01 -1.00000E+00  1.78928E-01
      21    -1     0     0   512   501  0.000000000E+00  0.000000000E+00  6.475634562E+02  6.475634562E+02  0.000000000E+00  0.00000E+00  9.000E+00
      21    -1     0     0   501   502  0.000000000E+00  0.000000000E+00 -5.680407194E+01  5.680407194E+01  0.000000000E+00  0.00000E+00  9.000E+00
      25     1     1     2     0     0 -1.243879362E+02  1.473993061E+01  1.725300937E+02  2.471462269E+02  1.250000000E+02  0.00000E+00  9.000E+00
      25     1     1     2     0     0  1.112012518E+02 -8.833246611E+00  3.576981980E+02  3.949895512E+02  1.250000000E+02  0.00000E+00  9.000E+00
      21     1     1     2   512   502  1.318668437E+01 -5.906684002E+00  6.053109254E+01  6.223175013E+01  0.000000000E+00  0.00000E+00  9.000E+00
#rwgt            1           1   4.6726415604752700E-002           3      496500           0
</event>
<event>
      5   9999  3.79277E-02  2.33428E+01 -1.00000E+00  1.61015E-01
      21    -1     0     0   511   501  0.000000000E+00  0.000000000E+00  6.458463578E+02  6.458463578E+02  0.000000000E+00  0.00000E+00  9.000E+00
      21    -1     0     0   501   502  0.000000000E+00  0.000000000E+00 -1.055309900E+02  1.055309900E+02  0.000000000E+00  0.00000E+00  9.000E+00
      25     1     1     2     0     0  9.982211963E+01 -8.429372990E+01  3.215441848E+02  3.688977518E+02  1.250000000E+02  0.00000E+00  9.000E+00
      25     1     1     2     0     0 -1.154360994E+02  1.016457010E+02  4.000371320E+01  2.021945564E+02  1.250000000E+02  0.00000E+00  9.000E+00
      21     1     1     2   511   502  1.561397977E+01 -1.735197110E+01  1.787674698E+02  1.802850396E+02  2.697398305E-06  0.00000E+00  9.000E+00
#rwgt            1           1   4.4476837022874492E-002           3      496785           0
</event>
<event>
      5   9999  3.79277E-02  1.01633E+02 -1.00000E+00  1.23512E-01
      21    -1     0     0   512   501  0.000000000E+00  0.000000000E+00  4.302751305E+02  4.302751305E+02  0.000000000E+00  0.00000E+00  9.000E+00
      21    -1     0     0   501   502  0.000000000E+00  0.000000000E+00 -5.332891531E+02  5.332891531E+02  0.000000000E+00  0.00000E+00  9.000E+00
      25     1     1     2     0     0  2.675840076E+02  2.638365746E+01  2.696446399E+02  4.007873879E+02  1.250000000E+02  0.00000E+00  9.000E+00
      25     1     1     2     0     0 -2.421653338E+02  7.201944018E+01 -3.645550817E+02  4.608212845E+02  1.250000000E+02  0.00000E+00  9.000E+00
      21     1     1     2   512   502 -2.541867385E+01 -9.840309764E+01 -8.103580733E+00  1.019556111E+02  1.410503336E-06  0.00000E+00  9.000E+00
#rwgt            1           1   4.0625603081355419E-002           3      497043           0
</event>
<event>
      5   9999  3.79277E-02  1.29759E+01 -1.00000E+00  1.83527E-01
      21    -1     0     0   502   501  0.000000000E+00  0.000000000E+00  4.613652661E+02  4.613652661E+02  0.000000000E+00  0.00000E+00  9.000E+00
      21    -1     0     0   501   511  0.000000000E+00  0.000000000E+00 -1.108695049E+02  1.108695049E+02  0.000000000E+00  0.00000E+00  9.000E+00
      25     1     1     2     0     0  1.254245943E+02  7.890571183E+00  3.262878054E+02  3.713250893E+02  1.250000000E+02  0.00000E+00  9.000E+00
      25     1     1     2     0     0 -1.381885297E+02 -5.554745595E+00  2.375234066E+01  1.879257796E+02  1.250000000E+02  0.00000E+00  9.000E+00
      21     1     1     2   502   511  1.276393539E+01 -2.335825588E+00  4.556151057E-01  1.298390207E+01  2.253107805E-07  0.00000E+00  9.000E+00
#rwgt            1           1   4.0589971084805214E-002           3      497194           0
</event>
<event>
      5   9999  3.79277E-02  3.74598E+01 -1.00000E+00  1.46630E-01
       1    -1     0     0   502     0  0.000000000E+00  0.000000000E+00  1.183080313E+03  1.183080313E+03  0.000000000E+00  0.00000E+00  9.000E+00
      21    -1     0     0   501   502  0.000000000E+00  0.000000000E+00 -6.913433233E+02  6.913433233E+02  0.000000000E+00  0.00000E+00  9.000E+00
      25     1     1     2     0     0  9.275144858E+01 -2.375429966E+02 -2.606132800E+02  3.854527055E+02  1.250000000E+02  0.00000E+00  9.000E+00
      25     1     1     2     0     0 -1.098737820E+02  2.042253582E+02 -3.208311314E+02  4.151359534E+02  1.250000000E+02  0.00000E+00  9.000E+00
       1     1     1     2   501     0  1.712233339E+01  3.331763846E+01  1.073181401E+03  1.073834977E+03  1.525878906E-05  0.00000E+00  9.000E+00
#rwgt            1           1   3.5068309259623537E-002           3      497382           0
</event>
<event>
      5   9999  3.79277E-02  1.66610E+01 -1.00000E+00  1.73192E-01
      21    -1     0     0   511   501  0.000000000E+00  0.000000000E+00  2.277235468E+02  2.277235468E+02  0.000000000E+00  0.00000E+00  9.000E+00
      21    -1     0     0   501   502  0.000000000E+00  0.000000000E+00 -3.574711454E+02  3.574711454E+02  0.000000000E+00  0.00000E+00  9.000E+00
      25     1     1     2     0     0 -9.103230719E+01 -7.453050675E+01 -2.682584869E+02  3.184796590E+02  1.250000000E+02  0.00000E+00  9.000E+00
      25     1     1     2     0     0  1.062868932E+02  8.123018895E+01  6.968062766E+01  1.958970064E+02  1.250000000E+02  0.00000E+00  9.000E+00
      21     1     1     2   511   502 -1.525458601E+01 -6.699682201E+00  6.883026064E+01  7.081802677E+01  1.348699152E-06  0.00000E+00  9.000E+00
#rwgt            1           1   3.4416863781958636E-002           3      497508           0
</event>
<event>
      5   9999  3.79277E-02  5.81123E+01 -1.00000E+00  1.35449E-01
      21    -1     0     0   502   501  0.000000000E+00  0.000000000E+00  1.021683480E+02  1.021683480E+02  0.000000000E+00  0.00000E+00  9.000E+00
      21    -1     0     0   501   512  0.000000000E+00  0.000000000E+00 -7.214271354E+02  7.214271354E+02  0.000000000E+00  0.00000E+00  9.000E+00
      25     1     1     2     0     0 -2.533133141E+01  1.379811875E+02 -8.469844010E+01  2.061050951E+02  1.250000000E+02  0.00000E+00  9.000E+00
      25     1     1     2     0     0  7.376055203E+01 -1.058618802E+02 -1.667186832E+02  2.450866705E+02  1.250000000E+02  0.00000E+00  9.000E+00
      21     1     1     2   502   512 -4.842922062E+01 -3.211930732E+01 -3.678416640E+02  3.724037179E+02  5.394796609E-06  0.00000E+00  9.000E+00
#rwgt            2          11   9.9957584827562807E-004           3      497722           0
</event>
<event>
      5   9999  3.79277E-02  3.93910E+01 -1.00000E+00  1.45255E-01
      21    -1     0     0   502   501  0.000000000E+00  0.000000000E+00  1.747782758E+02  1.747782758E+02  0.000000000E+00  0.00000E+00  9.000E+00
      21    -1     0     0   511   502  0.000000000E+00  0.000000000E+00 -4.838043123E+02  4.838043123E+02  0.000000000E+00  0.00000E+00  9.000E+00
      25     1     1     2     0     0  8.711419736E+01 -1.452026917E+02 -2.032840788E+01  2.114496376E+02  1.250000000E+02  0.00000E+00  9.000E+00
      25     1     1     2     0     0 -7.951460595E+01  1.838536093E+02 -1.035168274E+02  2.578089521E+02  1.250000000E+02  0.00000E+00  9.000E+00
      21     1     1     2   511   501 -7.599591406E+00 -3.865091764E+01 -1.851808012E+02  1.893239984E+02  2.697398305E-06  0.00000E+00  9.000E+00
#rwgt            2          11   7.9821762387574939E-004           3      497967           0
</event>
<event>
      5   9999  3.79277E-02  2.83632E+01 -1.00000E+00  1.54752E-01
      -4    -1     0     0     0   501  0.000000000E+00  0.000000000E+00  8.653126738E+02  8.653126738E+02  0.000000000E+00  0.00000E+00  9.000E+00
      21    -1     0     0   501   502  0.000000000E+00  0.000000000E+00 -1.320744287E+02  1.320744287E+02  0.000000000E+00  0.00000E+00  9.000E+00
      25     1     1     2     0     0  8.272194264E+01 -7.153317873E+01 -3.251518043E+01  1.692399256E+02  1.250000000E+02  0.00000E+00  9.000E+00
      25     1     1     2     0     0 -1.046715970E+02  5.356975793E+01  2.079291545E+02  2.696022913E+02  1.250000000E+02  0.00000E+00  9.000E+00
      -4     1     1     2     0   502  2.194965435E+01  1.796342080E+01  5.578242711E+02  5.585448856E+02  7.629394531E-06  0.00000E+00  9.000E+00
#rwgt            1           1   4.1725004007022365E-002           3      498017           0
</event>
<event>
      5   9999  3.79277E-02  7.89177E+01 -1.00000E+00  1.28636E-01
      21    -1     0     0   502   511  0.000000000E+00  0.000000000E+00  6.446569891E+02  6.446569891E+02  0.000000000E+00  0.00000E+00  9.000E+00
      21    -1     0     0   501   502  0.000000000E+00  0.000000000E+00 -1.026402083E+02  1.026402083E+02  0.000000000E+00  0.00000E+00  9.000E+00
      25     1     1     2     0     0 -6.142483927E+01  5.226214637E+01  4.086567547E+02  4.348904299E+02  1.250000000E+02  0.00000E+00  9.000E+00
      25     1     1     2     0     0  8.421388954E+01  2.329351640E+01 -5.586021636E+00  1.526131408E+02  1.250000000E+02  0.00000E+00  9.000E+00
      21     1     1     2   501   511 -2.278905027E+01 -7.555566277E+01  1.389460477E+02  1.597936268E+02  0.000000000E+00  0.00000E+00  9.000E+00
#rwgt            1           1   2.9431010082378816E-002           3      498282           0
</event>
<event>
      5   9999  3.79277E-02  7.97927E+01 -1.00000E+00  1.28404E-01
      21    -1     0     0   502   501  0.000000000E+00  0.000000000E+00  5.922546739E+02  5.922546739E+02  0.000000000E+00  0.00000E+00  9.000E+00
      21    -1     0     0   512   502  0.000000000E+00  0.000000000E+00 -8.865749432E+01  8.865749432E+01  0.000000000E+00  0.00000E+00  9.000E+00
      25     1     1     2     0     0  8.758406658E+01  5.267789998E+01  1.749981387E+02  2.381077034E+02  1.250000000E+02  0.00000E+00  9.000E+00
      25     1     1     2     0     0 -1.026170192E+02 -1.310417154E+02  2.816651031E+02  3.502319433E+02  1.250000000E+02  0.00000E+00  9.000E+00
      21     1     1     2   512   501  1.503295259E+01  7.836381541E+01  4.693393783E+01  9.257252157E+01  9.536743164E-07  0.00000E+00  9.000E+00
#rwgt            1           1   3.7987137253568858E-002           3      498357           0
</event>
<event>
      5   9999  3.79277E-02  8.12799E+01 -1.00000E+00  1.28017E-01
      21    -1     0     0   502   501  0.000000000E+00  0.000000000E+00  3.887136689E+02  3.887136689E+02  0.000000000E+00  0.00000E+00  9.000E+00
      21    -1     0     0   511   502  0.000000000E+00  0.000000000E+00 -7.762342319E+02  7.762342319E+02  0.000000000E+00  0.00000E+00  9.000E+00
      25     1     1     2     0     0 -2.848965843E+01  1.844061218E+02  3.581910516E+01  2.274319386E+02  1.250000000E+02  0.00000E+00  9.000E+00
      25     1     1     2     0     0 -5.259263375E+01 -1.900702382E+02  2.008899245E+02  3.080169514E+02  1.250000000E+02  0.00000E+00  9.000E+00
      21     1     1     2   511   501  8.108229218E+01  5.664116430E+00 -6.242295926E+02  6.294990108E+02  0.000000000E+00  0.00000E+00  9.000E+00
#rwgt            1           1   3.2563463134985558E-002           3      498615           0
</event>
<event>
      5   9999  3.79277E-02  1.01428E+01 -1.00000E+00  1.95048E-01
      21    -1     0     0   502   501  0.000000000E+00  0.000000000E+00  2.462611298E+02  2.462611298E+02  0.000000000E+00  0.00000E+00  9.000E+00
      21    -1     0     0   501   512  0.000000000E+00  0.000000000E+00 -2.775694874E+02  2.775694874E+02  0.000000000E+00  0.00000E+00  9.000E+00
      25     1     1     2     0     0  2.071334054E+02  9.195055687E+01 -1.945220074E+01  2.595429457E+02  1.250000000E+02  0.00000E+00  9.000E+00
      25     1     1     2     0     0 -1.976331406E+02 -9.550309337E+01 -6.194772183E+00  2.526718708E+02  1.250000000E+02  0.00000E+00  9.000E+00
      21     1     1     2   502   512 -9.500264847E+00  3.552536500E+00 -5.661384726E+00  1.161580065E+01  1.460009660E-07  0.00000E+00  9.000E+00
#rwgt            1           1   3.0271184368384663E-002           3      498718           0
</event>
<event>
      5   9999  3.79277E-02  4.14136E+01 -1.00000E+00  1.43911E-01
      21    -1     0     0   502   501  0.000000000E+00  0.000000000E+00  8.791287257E+02  8.791287257E+02  0.000000000E+00  0.00000E+00  9.000E+00
      21    -1     0     0   501   511  0.000000000E+00  0.000000000E+00 -8.077582182E+01  8.077582182E+01  0.000000000E+00  0.00000E+00  9.000E+00
      25     1     1     2     0     0  2.971850082E+00  1.402814037E+02  1.593604701E+02  2.463908755E+02  1.250000000E+02  0.00000E+00  9.000E+00
      25     1     1     2     0     0  3.241720342E+01 -1.617919702E+02  6.394238933E+02  6.720977846E+02  1.250000000E+02  0.00000E+00  9.000E+00
      21     1     1     2   502   511 -3.538905350E+01  2.151056645E+01 -4.314594605E-01  4.141588746E+01  9.314566754E-07  0.00000E+00  9.000E+00
#rwgt            1           1   1.8663299126130975E-002           3      499113           0
</event>
<event>
      5   9999  3.79277E-02  4.55950E+01 -1.00000E+00  1.41400E-01
      21    -1     0     0   502   501  0.000000000E+00  0.000000000E+00  1.216427860E+02  1.216427860E+02  0.000000000E+00  0.00000E+00  9.000E+00
      21    -1     0     0   501   512  0.000000000E+00  0.000000000E+00 -5.825671599E+02  5.825671599E+02  0.000000000E+00  0.00000E+00  9.000E+00
      25     1     1     2     0     0  9.866921551E+01 -3.893927854E+01  1.741312211E+01  1.648638782E+02  1.250000000E+02  0.00000E+00  9.000E+00
      25     1     1     2     0     0 -1.070443484E+02 -5.879932480E+00 -2.085240550E+02  2.657072593E+02  1.250000000E+02  0.00000E+00  9.000E+00
      21     1     1     2   502   512  8.375132888E+00  4.481921102E+01 -2.698134410E+02  2.736388084E+02  5.394796609E-06  0.00000E+00  9.000E+00
#rwgt            1           1   4.3462740856445699E-002           3      499262           0
</event>
<event>
      5   9999  3.79277E-02  7.20055E+01 -1.00000E+00  1.30602E-01
       1    -1     0     0   502     0  0.000000000E+00  0.000000000E+00  3.598020269E+03  3.598020269E+03  0.000000000E+00  0.00000E+00  9.000E+00
      21    -1     0     0   501   502  0.000000000E+00  0.000000000E+00 -6.865625432E+02  6.865625432E+02  0.000000000E+00  0.00000E+00  9.000E+00
      25     1     1     2     0     0  5.604334984E+01  1.326475066E+02 -6.267338043E+02  6.551003583E+02  1.250000000E+02  0.00000E+00  9.000E+00
      25     1     1     2     0     0 -7.268876302E+01 -6.259232992E+01  9.183457675E+01  1.823733685E+02  1.250000000E+02  0.00000E+00  9.000E+00
       1     1     1     2   501     0  1.664541319E+01 -7.005517671E+01  3.446356953E+03  3.447109085E+03  4.315837288E-05  0.00000E+00  9.000E+00
#rwgt            1           1   3.4711140520130697E-002           3      499362           0
</event>
<event>
      5   9999  3.79277E-02  7.48123E+01 -1.00000E+00  1.29775E-01
      21    -1     0     0   502   501  0.000000000E+00  0.000000000E+00  9.023573707E+01  9.023573707E+01  0.000000000E+00  0.00000E+00  9.000E+00
      21    -1     0     0   511   502  0.000000000E+00  0.000000000E+00 -4.871694081E+02  4.871694081E+02  0.000000000E+00  0.00000E+00  9.000E+00
      25     1     1     2     0     0 -1.663438617E+00 -8.676145442E+01 -2.375132561E+02  2.820777620E+02  1.250000000E+02  0.00000E+00  9.000E+00
      25     1     1     2     0     0  2.858537665E+01  1.696105146E+01 -1.186084336E+01  1.298864143E+02  1.250000000E+02  0.00000E+00  9.000E+00
      21     1     1     2   511   501 -2.692193804E+01  6.980040296E+01 -1.475595716E+02  1.654409689E+02  3.814697266E-06  0.00000E+00  9.000E+00
#rwgt            1           1   5.3255897121193413E-002           3      499435           0
</event>
<event>
      5   9999  3.79277E-02  8.59974E+01 -1.00000E+00  1.26848E-01
      21    -1     0     0   512   501  0.000000000E+00  0.000000000E+00  1.334983262E+03  1.334983262E+03  0.000000000E+00  0.00000E+00  9.000E+00
      21    -1     0     0   501   502  0.000000000E+00  0.000000000E+00 -5.894920882E+01  5.894920882E+01  0.000000000E+00  0.00000E+00  9.000E+00
      25     1     1     2     0     0 -1.298520643E+02 -1.376650174E+02  6.493275443E+02  6.877968272E+02  1.250000000E+02  0.00000E+00  9.000E+00
      25     1     1     2     0     0  1.376229532E+02  5.201938648E+01  2.303319409E+02  3.005393432E+02  1.250000000E+02  0.00000E+00  9.000E+00
      21     1     1     2   512   502 -7.770888958E+00  8.564563096E+01  3.963745676E+02  4.055963001E+02  0.000000000E+00  0.00000E+00  9.000E+00
#rwgt            1           1   3.4620160470903091E-002           3      499573           0
</event>
<event>
      5   9999  3.79277E-02  3.51571E+01 -1.00000E+00  1.48404E-01
      21    -1     0     0   511   501  0.000000000E+00  0.000000000E+00  5.635200285E+01  5.635200285E+01  0.000000000E+00  0.00000E+00  9.000E+00
      21    -1     0     0   501   502  0.000000000E+00  0.000000000E+00 -7.882230442E+02  7.882230442E+02  0.000000000E+00  0.00000E+00  9.000E+00
      25     1     1     2     0     0  3.121161927E+00  4.855827077E+01 -6.455498339E+02  6.593384831E+02  1.250000000E+02  0.00000E+00  9.000E+00
      25     1     1     2     0     0  2.003521998E+00 -1.377664817E+01 -5.198144483E+01  1.360914426E+02  1.250000000E+02  0.00000E+00  9.000E+00
      21     1     1     2   511   502 -5.124683925E+00 -3.478162261E+01 -3.433976269E+01  4.914512141E+01  4.768371582E-07  0.00000E+00  9.000E+00
#rwgt            1           1   1.7778952198121797E-002           3      499715           0
</event>
<event>
      5   9999  3.79277E-02  5.33648E+01 -1.00000E+00  1.37481E-01
      21    -1     0     0   502   501  0.000000000E+00  0.000000000E+00  1.093451684E+02  1.093451684E+02  0.000000000E+00  0.00000E+00  9.000E+00
      21    -1     0     0   501   512  0.000000000E+00  0.000000000E+00 -4.891582759E+02  4.891582759E+02  0.000000000E+00  0.00000E+00  9.000E+00
      25     1     1     2     0     0  3.832635533E+01  1.580378050E+01 -3.478950734E+02  3.719874341E+02  1.250000000E+02  0.00000E+00  9.000E+00
      25     1     1     2     0     0  9.146547621E+00 -4.017857255E+01  3.945063451E+01  1.374020727E+02  1.250000000E+02  0.00000E+00  9.000E+00
      21     1     1     2   502   512 -4.747290295E+01  2.437479204E+01 -7.136866862E+01  8.911393753E+01  0.000000000E+00  0.00000E+00  9.000E+00
#rwgt            1           1   3.6597053536766219E-002           3      499961           0
</event>
<event>
      5   9999  3.79277E-02  5.24295E+01 -1.00000E+00  1.37910E-01
      21    -1     0     0   502   511  0.000000000E+00  0.000000000E+00  4.989699671E+02  4.989699671E+02  0.000000000E+00  0.00000E+00  9.000E+00
      21    -1     0     0   501   502  0.000000000E+00  0.000000000E+00 -1.302440450E+02  1.302440450E+02  0.000000000E+00  0.00000E+00  9.000E+00
      25     1     1     2     0     0 -1.244285854E+02 -5.640515452E+01 -9.242808102E+00  1.854034623E+02  1.250000000E+02  0.00000E+00  9.000E+00
      25     1     1     2     0     0  8.854034283E+01  9.462665419E+01  2.864370329E+02  3.383264249E+02  1.250000000E+02  0.00000E+00  9.000E+00
      21     1     1     2   501   511  3.588824259E+01 -3.822149967E+01  9.153169734E+01  1.054841249E+02  0.000000000E+00  0.00000E+00  9.000E+00
#rwgt            1           1   4.6773519121691649E-002           3      500040           0
</event>
<event>
      5   9999  3.79277E-02  3.99059E+01 -1.00000E+00  1.44904E-01
      21    -1     0     0   512   501  0.000000000E+00  0.000000000E+00  1.046873052E+02  1.046873052E+02  0.000000000E+00  0.00000E+00  9.000E+00
      21    -1     0     0   501   502  0.000000000E+00  0.000000000E+00 -5.615209982E+02  5.615209982E+02  0.000000000E+00  0.00000E+00  9.000E+00
      25     1     1     2     0     0 -1.479114151E+02 -4.941800312E+01 -1.849149153E+02  2.722837704E+02  1.250000000E+02  0.00000E+00  9.000E+00
      25     1     1     2     0     0  1.797427986E+02  2.535054279E+01 -2.766830470E+02  3.537352572E+02  1.250000000E+02  0.00000E+00  9.000E+00
      21     1     1     2   512   502 -3.183138353E+01  2.406746033E+01  4.764269249E+00  4.018927576E+01  1.332800375E-07  0.00000E+00  9.000E+00
#rwgt            1           1   3.5281860423084468E-002           3      500112           0
</event>
<event>
      5   9999  3.79277E-02  2.08443E+01 -1.00000E+00  1.64901E-01
      21    -1     0     0   502   511  0.000000000E+00  0.000000000E+00  1.222637431E+03  1.222637431E+03  0.000000000E+00  0.00000E+00  9.000E+00
      21    -1     0     0   501   502  0.000000000E+00  0.000000000E+00 -8.114813778E+01  8.114813778E+01  0.000000000E+00  0.00000E+00  9.000E+00
      25     1     1     2     0     0  1.941172961E+02  1.771825239E+01  2.400966445E+02  3.335668746E+02  1.250000000E+02  0.00000E+00  9.000E+00
      25     1     1     2     0     0 -1.732749486E+02 -1.800391434E+01  3.015162904E+02  3.699802996E+02  1.250000000E+02  0.00000E+00  9.000E+00
      21     1     1     2   501   511 -2.084234748E+01  2.856619492E-01  5.998763588E+02  6.002383950E+02  0.000000000E+00  0.00000E+00  9.000E+00
#rwgt            1           1   3.3403477919535789E-002           3      500370           0
</event>
<event>
      5   9999  3.79277E-02  2.08893E+01 -1.00000E+00  1.64825E-01
      21    -1     0     0   502   501  0.000000000E+00  0.000000000E+00  6.584840948E+01  6.584840948E+01  0.000000000E+00  0.00000E+00  9.000E+00
      21    -1     0     0   501   512  0.000000000E+00  0.000000000E+00 -6.255777348E+02  6.255777348E+02  0.000000000E+00  0.00000E+00  9.000E+00
      25     1     1     2     0     0  1.088973040E+02 -3.321911349E+01 -3.909406422E+02  4.259362840E+02  1.250000000E+02  0.00000E+00  9.000E+00
      25     1     1     2     0     0 -9.993748064E+01  5.208930502E+01 -1.050058388E+02  1.983734405E+02  1.250000000E+02  0.00000E+00  9.000E+00
      21     1     1     2   502   512 -8.959823343E+00 -1.887019152E+01 -6.378284439E+01  6.711641976E+01  9.536743164E-07  0.00000E+00  9.000E+00
#rwgt            1           1   2.4983556217341624E-002           3      500568           0
</event>
<event>
      5   9999  3.79277E-02  4.79854E+00 -1.00000E+00  2.46136E-01
      21    -1     0     0   502   511  0.000000000E+00  0.000000000E+00  1.388122646E+02  1.388122646E+02  0.000000000E+00  0.00000E+00  9.000E+00
      21    -1     0     0   501   502  0.000000000E+00  0.000000000E+00 -3.895855365E+02  3.895855365E+02  0.000000000E+00  0.00000E+00  9.000E+00
      25     1     1     2     0     0 -1.078932569E+02 -1.188027422E+02 -5.323488807E+01  2.102712528E+02  1.250000000E+02  0.00000E+00  9.000E+00
      25     1     1     2     0     0  1.044281517E+02  1.154832497E+02 -2.188703970E+02  2.962614901E+02  1.250000000E+02  0.00000E+00  9.000E+00
      21     1     1     2   501   511  3.465105165E+00  3.319492451E+00  2.133201320E+01  2.186505822E+01  2.384185791E-07  0.00000E+00  9.000E+00
#rwgt            1           1   3.6596004600014297E-002           3      500783           0
</event>
<event>
      5   9999  3.79277E-02  2.19555E+01 -1.00000E+00  1.63094E-01
      21    -1     0     0   502   512  0.000000000E+00  0.000000000E+00  1.888430582E+02  1.888430582E+02  0.000000000E+00  0.00000E+00  9.000E+00
      21    -1     0     0   501   502  0.000000000E+00  0.000000000E+00 -6.234886396E+02  6.234886396E+02  0.000000000E+00  0.00000E+00  9.000E+00
      25     1     1     2     0     0 -2.742702406E+02  1.086189912E+02 -3.269678179E+02  4.577720000E+02  1.250000000E+02  0.00000E+00  9.000E+00
      25     1     1     2     0     0  2.640305207E+02 -8.919750096E+01 -1.213861552E+02  3.286759935E+02  1.250000000E+02  0.00000E+00  9.000E+00
      21     1     1     2   501   512  1.023971989E+01 -1.942149019E+01  1.370839167E+01  2.588370427E+01  2.384185791E-07  0.00000E+00  9.000E+00
#rwgt            1           1   3.7891748257483385E-002           3      501153           0
</event>
<event>
      5   9999  3.79277E-02  4.87458E+01 -1.00000E+00  1.39708E-01
      21    -1     0     0   502   511  0.000000000E+00  0.000000000E+00  1.000619672E+02  1.000619672E+02  0.000000000E+00  0.00000E+00  9.000E+00
      21    -1     0     0   501   502  0.000000000E+00  0.000000000E+00 -9.603363788E+02  9.603363788E+02  0.000000000E+00  0.00000E+00  9.000E+00
      25     1     1     2     0     0  1.053923563E+02  1.947825005E+02 -5.002111324E+02  5.611452113E+02  1.250000000E+02  0.00000E+00  9.000E+00
      25     1     1     2     0     0 -1.361394650E+02 -2.326079461E+02 -3.100771124E+02  4.294336109E+02  1.250000000E+02  0.00000E+00  9.000E+00
      21     1     1     2   501   511  3.074710866E+01  3.782544560E+01 -4.998616680E+01  6.981952376E+01  6.743495762E-07  0.00000E+00  9.000E+00
#rwgt            1           1   5.0088049634955979E-002           3      501345           0
</event>
<event>
      5   9999  3.79277E-02  5.92626E+01 -1.00000E+00  1.34991E-01
      21    -1     0     0   502   512  0.000000000E+00  0.000000000E+00  1.570530804E+02  1.570530804E+02  0.000000000E+00  0.00000E+00  9.000E+00
      21    -1     0     0   501   502  0.000000000E+00  0.000000000E+00 -7.818605588E+02  7.818605588E+02  0.000000000E+00  0.00000E+00  9.000E+00
      25     1     1     2     0     0  1.696475562E+01 -2.777790526E+02 -5.218710538E+02  6.045026069E+02  1.250000000E+02  0.00000E+00  9.000E+00
      25     1     1     2     0     0 -2.160001505E+01  2.186979802E+02 -5.634678642E+01  2.590276579E+02  1.250000000E+02  0.00000E+00  9.000E+00
      21     1     1     2   501   512  4.635259422E+00  5.908107238E+01 -4.658963818E+01  7.538337435E+01  1.168007728E-06  0.00000E+00  9.000E+00
#rwgt            1           1   3.9444207747902492E-002           3      501562           0
</event>
<event>
      5   9999  3.79277E-02  1.31438E+02 -1.00000E+00  1.18714E-01
      21    -1     0     0   502   501  0.000000000E+00  0.000000000E+00  1.008792390E+02  1.008792390E+02  0.000000000E+00  0.00000E+00  9.000E+00
      21    -1     0     0   511   502  0.000000000E+00  0.000000000E+00 -5.344572446E+02  5.344572446E+02  0.000000000E+00  0.00000E+00  9.000E+00
      25     1     1     2     0     0 -6.808417654E+01 -5.570785562E+01 -5.136245595E+01  1.612511152E+02  1.250000000E+02  0.00000E+00  9.000E+00
      25     1     1     2     0     0 -6.006794785E+01  2.650078678E+01 -2.532138165E+02  2.899184143E+02  1.250000000E+02  0.00000E+00  9.000E+00
      21     1     1     2   511   501  1.281521244E+02  2.920706884E+01 -1.290017331E+02  1.841669541E+02  3.303624740E-06  0.00000E+00  9.000E+00
#rwgt            1           1   3.1216332881627472E-002           3      501674           0
</event>
<event>
      5   9999  3.79277E-02  1.66192E+01 -1.00000E+00  1.73290E-01
      21    -1     0     0   502   501  0.000000000E+00  0.000000000E+00  3.104691476E+02  3.104691476E+02  0.000000000E+00  0.00000E+00  9.000E+00
      21    -1     0     0   501   512  0.000000000E+00  0.000000000E+00 -1.820087745E+02  1.820087745E+02  0.000000000E+00  0.00000E+00  9.000E+00
      25     1     1     2     0     0 -1.481152963E+02  7.336053637E+01 -2.158450124E+01  2.083525857E+02  1.250000000E+02  0.00000E+00  9.000E+00
      25     1     1     2     0     0  1.318790056E+02 -6.981342482E+01  1.698009582E+02  2.583086368E+02  1.250000000E+02  0.00000E+00  9.000E+00
      21     1     1     2   502   512  1.623629062E+01 -3.547111546E+00 -1.975608382E+01  2.581669966E+01  2.384185791E-07  0.00000E+00  9.000E+00
#rwgt            1           1   5.0225332760891347E-002           3      501745           0
</event>
<event>
      5   9999  3.79277E-02  6.44247E+01 -1.00000E+00  1.33073E-01
       2    -1     0     0   502     0  0.000000000E+00  0.000000000E+00  1.724050181E+03  1.724050181E+03  0.000000000E+00  0.00000E+00  9.000E+00
      21    -1     0     0   501   502  0.000000000E+00  0.000000000E+00 -1.689635330E+02  1.689635330E+02  0.000000000E+00  0.00000E+00  9.000E+00
      25     1     1     2     0     0  1.209456962E+02  1.428870612E+01  7.320640735E+01  1.892517018E+02  1.250000000E+02  0.00000E+00  9.000E+00
      25     1     1     2     0     0 -7.661500853E+01  3.245886410E+01 -5.914586670E+01  1.613898105E+02  1.250000000E+02  0.00000E+00  9.000E+00
       2     1     1     2   501     0 -4.433068764E+01 -4.674757022E+01  1.541026108E+03  1.542372202E+03  0.000000000E+00  0.00000E+00  9.000E+00
#rwgt            1           1   4.3417375265152595E-002           3      501955           0
</event>
<event>
      5   9999  3.79277E-02  1.94427E+02 -1.00000E+00  1.12097E-01
       1    -1     0     0   502     0  0.000000000E+00  0.000000000E+00  2.204604749E+03  2.204604749E+03  0.000000000E+00  0.00000E+00  9.000E+00
      21    -1     0     0   501   502  0.000000000E+00  0.000000000E+00 -5.683223904E+01  5.683223904E+01  0.000000000E+00  0.00000E+00  9.000E+00
      25     1     1     2     0     0  8.981870341E+01 -1.311826534E+02  1.984536635E+02  2.833463333E+02  1.250000000E+02  0.00000E+00  9.000E+00
      25     1     1     2     0     0  1.636414550E+01 -3.168898212E+01  1.048611819E+03  1.056637934E+03  1.250000000E+02  0.00000E+00  9.000E+00
       1     1     1     2   501     0 -1.061828489E+02  1.628716355E+02  9.007070277E+02  9.214527209E+02  1.525878906E-05  0.00000E+00  9.000E+00
#rwgt            1           1   3.1284100304474587E-002           3      502012           0
</event>
<event>
      5   9999  3.79277E-02  4.05992E+01 -1.00000E+00  1.44441E-01
      21    -1     0     0   502   511  0.000000000E+00  0.000000000E+00  1.580310929E+02  1.580310929E+02  0.000000000E+00  0.00000E+00  9.000E+00
      21    -1     0     0   501   502  0.000000000E+00  0.000000000E+00 -4.312725177E+02  4.312725177E+02  0.000000000E+00  0.00000E+00  9.000E+00
      25     1     1     2     0     0 -6.580991640E+01 -1.863269896E+01 -3.493305659E+02  3.772730667E+02  1.250000000E+02  0.00000E+00  9.000E+00
      25     1     1     2     0     0  6.746444971E+01 -2.193280682E+01  2.356738297E+01  1.456465637E+02  1.250000000E+02  0.00000E+00  9.000E+00
      21     1     1     2   501   511 -1.654533302E+00  4.056550578E+01  5.252175818E+01  6.638398016E+01  1.168007728E-06  0.00000E+00  9.000E+00
#rwgt            1           1   4.4959538571173990E-002           3      502109           0
</event>
<event>
      5   9999  3.79277E-02  3.17120E+01 -1.00000E+00  1.51384E-01
       2    -1     0     0   502     0  0.000000000E+00  0.000000000E+00  8.555827008E+02  8.555827008E+02  0.000000000E+00  0.00000E+00  9.000E+00
      21    -1     0     0   501   502  0.000000000E+00  0.000000000E+00 -1.000344122E+02  1.000344122E+02  0.000000000E+00  0.00000E+00  9.000E+00
      25     1     1     2     0     0  1.875293508E+02  6.113484934E+01  2.822314151E+02  3.663117510E+02  1.250000000E+02  0.00000E+00  9.000E+00
      25     1     1     2     0     0 -1.940849676E+02 -3.010783930E+01  1.800009440E+02  2.942801326E+02  1.250000000E+02  0.00000E+00  9.000E+00
       2     1     1     2   501     0  6.555616791E+00 -3.102701004E+01  2.933159295E+02  2.950252294E+02  5.394796609E-06  0.00000E+00  9.000E+00
#rwgt            2          18   9.5954855082597498E-005           3      502197           0
</event>
<event>
      5   9999  3.79277E-02  1.98602E+02 -1.00000E+00  1.11759E-01
       2    -1     0     0   502     0  0.000000000E+00  0.000000000E+00  6.013201920E+02  6.013201920E+02  0.000000000E+00  0.00000E+00  9.000E+00
      21    -1     0     0   501   502  0.000000000E+00  0.000000000E+00 -3.588478092E+02  3.588478092E+02  0.000000000E+00  0.00000E+00  9.000E+00
      25     1     1     2     0     0  6.647403473E+01 -2.428019828E+02  1.019583507E+01  2.812482093E+02  1.250000000E+02  0.00000E+00  9.000E+00
      25     1     1     2     0     0  1.159450359E+02  1.642788366E+02 -1.268018021E+02  2.685786375E+02  1.250000000E+02  0.00000E+00  9.000E+00
       2     1     1     2   501     0 -1.824190706E+02  7.852314627E+01  3.590783498E+02  4.103411545E+02  3.814697266E-06  0.00000E+00  9.000E+00
#rwgt            2          18   4.5538415588371195E-004           3      502246           0
</event>
<event>
      5   9999  3.79277E-02  6.44525E+01 -1.00000E+00  1.33063E-01
      21    -1     0     0   511   501  0.000000000E+00  0.000000000E+00  6.508578954E+02  6.508578954E+02  0.000000000E+00  0.00000E+00  9.000E+00
      21    -1     0     0   501   502  0.000000000E+00  0.000000000E+00 -5.608084144E+01  5.608084144E+01  0.000000000E+00  0.00000E+00  9.000E+00
      25     1     1     2     0     0  3.500825121E+01  6.956496700E+01  1.432230062E+02  2.054329375E+02  1.250000000E+02  0.00000E+00  9.000E+00
      25     1     1     2     0     0  9.138354533E+00 -2.260539297E+01  1.685481288E+02  2.112533669E+02  1.250000000E+02  0.00000E+00  9.000E+00
      21     1     1     2   511   502 -4.414660574E+01 -4.695957403E+01  2.830059189E+02  2.902524324E+02  0.000000000E+00  0.00000E+00  9.000E+00
#rwgt            1           1   1.8477513637832468E-002           3      502280           0
</event>
<event>
      5   9999  3.79277E-02  1.01500E+02 -1.00000E+00  1.23538E-01
      21    -1     0     0   502   501  0.000000000E+00  0.000000000E+00  9.713378717E+01  9.713378717E+01  0.000000000E+00  0.00000E+00  9.000E+00
      21    -1     0     0   501   512  0.000000000E+00  0.000000000E+00 -2.072549169E+03  2.072549169E+03  0.000000000E+00  0.00000E+00  9.000E+00
      25     1     1     2     0     0  3.300841297E+02  4.192592166E+01 -1.438877706E+03  1.482129336E+03  1.250000000E+02  0.00000E+00  9.000E+00
      25     1     1     2     0     0 -2.285890396E+02 -4.092292678E+01 -1.862707307E+02  3.228767877E+02  1.250000000E+02  0.00000E+00  9.000E+00
      21     1     1     2   502   512 -1.014950901E+02 -1.002994878E+00 -3.502669458E+02  3.646768331E+02  3.814697266E-06  0.00000E+00  9.000E+00
#rwgt            2          11   1.7969845792361208E-003           3      502358           0
</event>
<event>
      5   9999  3.79277E-02  9.46691E+00 -1.00000E+00  1.98548E-01
      21    -1     0     0   502   501  0.000000000E+00  0.000000000E+00  1.195255506E+03  1.195255506E+03  0.000000000E+00  0.00000E+00  9.000E+00
      21    -1     0     0   501   511  0.000000000E+00  0.000000000E+00 -5.383429167E+01  5.383429167E+01  0.000000000E+00  0.00000E+00  9.000E+00
      25     1     1     2     0     0 -1.109161493E+02  7.190614931E+01  2.086956113E+02  2.768605148E+02  1.250000000E+02  0.00000E+00  9.000E+00
      25     1     1     2     0     0  1.152053674E+02 -6.346665873E+01  9.417969851E+02  9.591177480E+02  1.250000000E+02  0.00000E+00  9.000E+00
      21     1     1     2   502   511 -4.289218086E+00 -8.439490582E+00 -9.071381601E+00  1.311153527E+01  2.384185791E-07  0.00000E+00  9.000E+00
#rwgt            1           1   3.4805356081723693E-002           3      502423           0
</event>
<event>
      5   9999  3.79277E-02  1.92044E+02 -1.00000E+00  1.12294E-01
      21    -1     0     0   502   501  0.000000000E+00  0.000000000E+00  1.150314879E+03  1.150314879E+03  0.000000000E+00  0.00000E+00  9.000E+00
      21    -1     0     0   501   512  0.000000000E+00  0.000000000E+00 -3.472515815E+02  3.472515815E+02  0.000000000E+00  0.00000E+00  9.000E+00
      25     1     1     2     0     0 -5.597843446E+00 -2.880104557E+02  1.005459400E+03  1.053354149E+03  1.250000000E+02  0.00000E+00  9.000E+00
      25     1     1     2     0     0 -6.574168211E+01  1.097089174E+02 -2.104120787E+01  1.800715073E+02  1.250000000E+02  0.00000E+00  9.000E+00
      21     1     1     2   502   512  7.133952555E+01  1.783015383E+02 -1.813548947E+02  2.641408039E+02  3.814697266E-06  0.00000E+00  9.000E+00
#rwgt            1           1   4.3775290140514282E-002           3      502643           0
</event>
<event>
      5   9999  3.79277E-02  3.36225E+01 -1.00000E+00  1.49679E-01
      21    -1     0     0   502   501  0.000000000E+00  0.000000000E+00  1.019613308E+03  1.019613308E+03  0.000000000E+00  0.00000E+00  9.000E+00
      21    -1     0     0   511   502  0.000000000E+00  0.000000000E+00 -1.022192951E+02  1.022192951E+02  0.000000000E+00  0.00000E+00  9.000E+00
      25     1     1     2     0     0  1.078836274E+02 -1.093346578E+02  3.906082355E+01  2.018506685E+02  1.250000000E+02  0.00000E+00  9.000E+00
      25     1     1     2     0     0 -1.367136646E+02  9.203441805E+01  8.534351818E+02  8.781443900E+02  1.250000000E+02  0.00000E+00  9.000E+00
      21     1     1     2   511   501  2.883003723E+01  1.730023974E+01  2.489800740E+01  4.183754431E+01  5.840038640E-07  0.00000E+00  9.000E+00
#rwgt            1           1   5.1088772459261370E-002           3      502717           0
</event>
<event>
      5   9999  3.79277E-02  5.06562E+01 -1.00000E+00  1.38753E-01
      21    -1     0     0   502   501  0.000000000E+00  0.000000000E+00  5.245879610E+02  5.245879610E+02  0.000000000E+00  0.00000E+00  9.000E+00
      21    -1     0     0   512   502  0.000000000E+00  0.000000000E+00 -1.612352190E+02  1.612352190E+02  0.000000000E+00  0.00000E+00  9.000E+00
      25     1     1     2     0     0 -8.452320686E+01 -1.716046032E+02  3.255867572E+02  3.977738664E+02  1.250000000E+02  0.00000E+00  9.000E+00
      25     1     1     2     0     0  3.462201242E+01  1.803176521E+02  6.378886794E+01  2.310998898E+02  1.250000000E+02  0.00000E+00  9.000E+00
      21     1     1     2   512   501  4.990119444E+01 -8.713048919E+00 -2.602288314E+01  5.694942383E+01  8.920806376E-07  0.00000E+00  9.000E+00
#rwgt            1           1   4.3396593381896303E-002           3      502841           0
</event>
<event>
      5   9999  3.79277E-02  2.61729E+01 -1.00000E+00  1.57274E-01
      21    -1     0     0   511   501  0.000000000E+00  0.000000000E+00  4.154877256E+02  4.154877256E+02  0.000000000E+00  0.00000E+00  9.000E+00
      21    -1     0     0   501   502  0.000000000E+00  0.000000000E+00 -6.509894921E+02  6.509894921E+02  0.000000000E+00  0.00000E+00  9.000E+00
      25     1     1     2     0     0 -1.483829920E+02 -4.247352433E+01 -5.200853608E+02  5.567183266E+02  1.250000000E+02  0.00000E+00  9.000E+00
      25     1     1     2     0     0  1.222720976E+02  4.067323815E+01 -4.015893146E+01  1.839633603E+02  1.250000000E+02  0.00000E+00  9.000E+00
      21     1     1     2   511   502  2.611089446E+01  1.800286180E+00  3.247425258E+02  3.257955308E+02  3.814697266E-06  0.00000E+00  9.000E+00
#rwgt            1           1   2.3795550574855124E-002           3      502974           0
</event>
<event>
      5   9999  3.79277E-02  2.11757E+01 -1.00000E+00  1.64348E-01
      21    -1     0     0   502   501  0.000000000E+00  0.000000000E+00  4.095073402E+02  4.095073402E+02  0.000000000E+00  0.00000E+00  9.000E+00
       1    -1     0     0   501     0  0.000000000E+00  0.000000000E+00 -1.867785104E+02  1.867785104E+02  0.000000000E+00  0.00000E+00  9.000E+00
      25     1     1     2     0     0 -1.423830373E+02  9.760576819E+01 -1.153433885E+01  2.134428642E+02  1.250000000E+02  0.00000E+00  9.000E+00
      25     1     1     2     0     0  1.617096252E+02 -1.062599376E+02  2.614014937E+02  3.484206052E+02  1.250000000E+02  0.00000E+00  9.000E+00
       1     1     1     2   502     0 -1.932658787E+01  8.654169399E+00 -2.713832503E+01  3.442238127E+01  6.743495762E-07  0.00000E+00  9.000E+00
#rwgt            1           1   2.5579325641673104E-002           3      503116           0
</event>
<event>
      5   9999  3.79277E-02  1.84060E+02 -1.00000E+00  1.12977E-01
      21    -1     0     0   502   501  0.000000000E+00  0.000000000E+00  1.749188099E+02  1.749188099E+02  0.000000000E+00  0.00000E+00  9.000E+00
      21    -1     0     0   511   502  0.000000000E+00  0.000000000E+00 -5.696541501E+02  5.696541501E+02  0.000000000E+00  0.00000E+00  9.000E+00
      25     1     1     2     0     0 -1.356935220E+02  1.811056739E+02 -1.388761755E+02  2.934682081E+02  1.250000000E+02  0.00000E+00  9.000E+00
      25     1     1     2     0     0 -2.573797162E+01 -9.268670388E+01 -3.139048578E+01  1.608217363E+02  1.250000000E+02  0.00000E+00  9.000E+00
      21     1     1     2   511   501  1.614314936E+02 -8.841897002E+01 -2.244686789E+02  2.902830157E+02  2.697398305E-06  0.00000E+00  9.000E+00
#rwgt            1           1   3.3753875839433865E-002           3      503351           0
</event>
<event>
      5   9999  3.79277E-02  2.66707E+01 -1.00000E+00  1.56675E-01
      21    -1     0     0   502   501  0.000000000E+00  0.000000000E+00  1.411965813E+02  1.411965813E+02  0.000000000E+00  0.00000E+00  9.000E+00
       2    -1     0     0   501     0  0.000000000E+00  0.000000000E+00 -6.029147121E+02  6.029147121E+02  0.000000000E+00  0.00000E+00  9.000E+00
      25     1     1     2     0     0 -1.313039486E+02 -1.699326027E+02 -1.759891284E+02  3.044913622E+02  1.250000000E+02  0.00000E+00  9.000E+00
      25     1     1     2     0     0  1.108897334E+02  1.870960804E+02 -1.317443854E+02  2.833426537E+02  1.250000000E+02  0.00000E+00  9.000E+00
       2     1     1     2   502     0  2.041421512E+01 -1.716347769E+01 -1.539846171E+02  1.562772774E+02  1.907348633E-06  0.00000E+00  9.000E+00
#rwgt            1           1   3.6564937962439106E-002           3      503517           0
</event>
<event>
      5   9999  3.79277E-02  3.50003E+01 -1.00000E+00  1.48531E-01
      21    -1     0     0   502   501  0.000000000E+00  0.000000000E+00  1.404993215E+03  1.404993215E+03  0.000000000E+00  0.00000E+00  9.000E+00
      21    -1     0     0   501   511  0.000000000E+00  0.000000000E+00 -2.180457056E+01  2.180457056E+01  0.000000000E+00  0.00000E+00  9.000E+00
      25     1     1     2     0     0  6.650978168E+01 -1.180319495E+01  6.783540255E+02  6.930743469E+02  1.250000000E+02  0.00000E+00  9.000E+00
      25     1     1     2     0     0 -8.845287011E+01  3.907083308E+01  6.478608835E+02  6.668576794E+02  1.250000000E+02  0.00000E+00  9.000E+00
      21     1     1     2   502   511  2.194308843E+01 -2.726763813E+01  5.697373517E+01  6.686575894E+01  9.536743164E-07  0.00000E+00  9.000E+00
#rwgt            1           1  0.11264752849938885                3      503641           0
</event>
<event>
      5   9999  3.79277E-02  5.16086E+01 -1.00000E+00  1.38295E-01
      -2    -1     0     0     0   501  0.000000000E+00  0.000000000E+00  4.003526792E+02  4.003526792E+02  0.000000000E+00  0.00000E+00  9.000E+00
      21    -1     0     0   501   502  0.000000000E+00  0.000000000E+00 -1.418173446E+02  1.418173446E+02  0.000000000E+00  0.00000E+00  9.000E+00
      25     1     1     2     0     0 -6.803241581E+01  9.626445071E+01  2.652010107E+01  1.738492733E+02  1.250000000E+02  0.00000E+00  9.000E+00
      25     1     1     2     0     0  1.151278646E+02 -7.515830162E+01  7.046904175E+01  1.987311786E+02  1.250000000E+02  0.00000E+00  9.000E+00
      -2     1     1     2     0   502 -4.709544882E+01 -2.110614910E+01  1.615461917E+02  1.695895719E+02  1.907348633E-06  0.00000E+00  9.000E+00
#rwgt            1           1   9.5478997552289405E-002           3      503715           0
</event>
<event>
      5   9999  3.79277E-02  5.99548E+00 -1.00000E+00  2.25523E-01
      21    -1     0     0   502   501  0.000000000E+00  0.000000000E+00  4.587027182E+01  4.587027182E+01  0.000000000E+00  0.00000E+00  9.000E+00
      21    -1     0     0   511   502  0.000000000E+00  0.000000000E+00 -1.435008666E+03  1.435008666E+03  0.000000000E+00  0.00000E+00  9.000E+00
      25     1     1     2     0     0  4.856435891E+01 -1.028802174E+02 -1.234982543E+03  1.246494973E+03  1.250000000E+02  0.00000E+00  9.000E+00
      25     1     1     2     0     0 -4.748846310E+01  9.698206075E+01 -1.320451244E+02  2.114747954E+02  1.250000000E+02  0.00000E+00  9.000E+00
      21     1     1     2   511   501 -1.075895813E+00  5.898156632E+00 -2.211072670E+01  2.290916932E+01  3.371747881E-07  0.00000E+00  9.000E+00
#rwgt            1           1   3.6456849754357291E-002           3      503806           0
</event>
<event>
      5   9999  3.79277E-02  5.98418E+01 -1.00000E+00  1.34765E-01
       2    -1     0     0   502     0  0.000000000E+00  0.000000000E+00  4.576101300E+02  4.576101300E+02  0.000000000E+00  0.00000E+00  9.000E+00
      21    -1     0     0   501   502  0.000000000E+00  0.000000000E+00 -1.402613648E+03  1.402613648E+03  0.000000000E+00  0.00000E+00  9.000E+00
      25     1     1     2     0     0 -1.721816023E+02 -1.664979200E+02 -8.051765113E+02  8.492951642E+02  1.250000000E+02  0.00000E+00  9.000E+00
      25     1     1     2     0     0  1.870432158E+02  1.085309174E+02 -5.459737853E+02  6.003969511E+02  1.250000000E+02  0.00000E+00  9.000E+00
       2     1     1     2   501     0 -1.486161356E+01  5.796700259E+01  4.061467783E+02  4.105316631E+02  1.206313194E-05  0.00000E+00  9.000E+00
#rwgt            1           1   2.9593735328818802E-002           3      504097           0
</event>
<event>
      5   9999  3.79277E-02  1.40272E+01 -1.00000E+00  1.80172E-01
      21    -1     0     0   502   501  0.000000000E+00  0.000000000E+00  2.264422067E+02  2.264422067E+02  0.000000000E+00  0.00000E+00  9.000E+00
      21    -1     0     0   511   502  0.000000000E+00  0.000000000E+00 -2.570165921E+02  2.570165921E+02  0.000000000E+00  0.00000E+00  9.000E+00
      25     1     1     2     0     0  4.526063110E+01 -1.563181031E+02 -5.222860395E+01  2.117467855E+02  1.250000000E+02  0.00000E+00  9.000E+00
      25     1     1     2     0     0 -3.758803832E+01  1.680609322E+02  6.791493246E+01  2.233713849E+02  1.250000000E+02  0.00000E+00  9.000E+00
      21     1     1     2   511   501 -7.672592781E+00 -1.174282905E+01 -4.626071383E+01  4.834062844E+01  6.743495762E-07  0.00000E+00  9.000E+00
#rwgt            1           1   3.2151157436066266E-002           3      504216           0
</event>
<event>
      5   9999  3.79277E-02  4.46680E+01 -1.00000E+00  1.41929E-01
      21    -1     0     0   502   512  0.000000000E+00  0.000000000E+00  2.064142183E+02  2.064142183E+02  0.000000000E+00  0.00000E+00  9.000E+00
      21    -1     0     0   501   502  0.000000000E+00  0.000000000E+00 -2.709855078E+02  2.709855078E+02  0.000000000E+00  0.00000E+00  9.000E+00
      25     1     1     2     0     0  5.044787236E+01  1.196314540E+02 -1.010861928E+01  1.805099909E+02  1.250000000E+02  0.00000E+00  9.000E+00
      25     1     1     2     0     0 -8.831585602E+01 -9.594084032E+01 -1.205178298E+02  2.171494476E+02  1.250000000E+02  0.00000E+00  9.000E+00
      21     1     1     2   501   512  3.786798366E+01 -2.369061369E+01  6.605515958E+01  7.974028763E+01  1.651812370E-06  0.00000E+00  9.000E+00
#rwgt            1           1   4.3088958740296085E-002           3      504530           0
</event>
<event>
      5   9999  3.79277E-02  1.56591E+01 -1.00000E+00  1.75642E-01
      21    -1     0     0   502   501  0.000000000E+00  0.000000000E+00  3.532533955E+02  3.532533955E+02  0.000000000E+00  0.00000E+00  9.000E+00
      21    -1     0     0   511   502  0.000000000E+00  0.000000000E+00 -2.766864286E+02  2.766864286E+02  0.000000000E+00  0.00000E+00  9.000E+00
      25     1     1     2     0     0 -6.408693142E+01 -2.580482932E+02 -4.823942615E+00  2.938440518E+02  1.250000000E+02  0.00000E+00  9.000E+00
      25     1     1     2     0     0  6.563123171E+01  2.736310427E+02  8.614638354E+01  3.197305201E+02  1.250000000E+02  0.00000E+00  9.000E+00
      21     1     1     2   511   501 -1.544300294E+00 -1.558274953E+01 -4.755474019E+00  1.636525220E+01  0.000000000E+00  0.00000E+00  9.000E+00
#rwgt            1           1   5.5303021350754468E-002           3      504655           0
</event>
<event>
      5   9999  3.79277E-02  5.83075E+01 -1.00000E+00  1.35371E-01
      21    -1     0     0   512   501  0.000000000E+00  0.000000000E+00  2.175619410E+02  2.175619410E+02  0.000000000E+00  0.00000E+00  9.000E+00
      21    -1     0     0   501   502  0.000000000E+00  0.000000000E+00 -6.888107477E+02  6.888107477E+02  0.000000000E+00  0.00000E+00  9.000E+00
      25     1     1     2     0     0 -1.156556383E+02 -2.214745668E+02 -1.446507463E+02  3.146045912E+02  1.250000000E+02  0.00000E+00  9.000E+00
      25     1     1     2     0     0  8.875552981E+01  1.697430968E+02 -4.219767335E+02  4.799787772E+02  1.250000000E+02  0.00000E+00  9.000E+00
      21     1     1     2   512   502  2.690010854E+01  5.173146995E+01  9.537867319E+01  1.117893202E+02  1.348699152E-06  0.00000E+00  9.000E+00
#rwgt            2          11   9.8228514854490625E-004           3      505094           0
</event>
<event>
      5   9999  3.79277E-02  3.66739E+01 -1.00000E+00  1.47218E-01
      21    -1     0     0   511   501  0.000000000E+00  0.000000000E+00  7.020893053E+02  7.020893053E+02  0.000000000E+00  0.00000E+00  9.000E+00
      21    -1     0     0   501   502  0.000000000E+00  0.000000000E+00 -7.402716650E+01  7.402716650E+01  0.000000000E+00  0.00000E+00  9.000E+00
      25     1     1     2     0     0 -1.306955796E+02 -8.842764473E+01  2.841476769E+02  3.482322288E+02  1.250000000E+02  0.00000E+00  9.000E+00
      25     1     1     2     0     0  1.357086880E+02  5.209795435E+01  1.909624366E+02  2.705969273E+02  1.250000000E+02  0.00000E+00  9.000E+00
      21     1     1     2   511   502 -5.013108457E+00  3.632969038E+01  1.529520253E+02  1.572873158E+02  2.697398305E-06  0.00000E+00  9.000E+00
#rwgt            1           1   4.0315080739515979E-002           3      505204           0
</event>
<event>
      5   9999  3.79277E-02  6.49022E+00 -1.00000E+00  2.20302E-01
      21    -1     0     0   512   501  0.000000000E+00  0.000000000E+00  3.346376036E+02  3.346376036E+02  0.000000000E+00  0.00000E+00  9.000E+00
      21    -1     0     0   501   502  0.000000000E+00  0.000000000E+00 -7.121960004E+01  7.121960004E+01  0.000000000E+00  0.00000E+00  9.000E+00
      25     1     1     2     0     0 -5.667382738E+01  2.116968317E+01  1.754632043E+02  2.237686623E+02  1.250000000E+02  0.00000E+00  9.000E+00
      25     1     1     2     0     0  6.024343287E+01 -1.574926606E+01  5.762595613E+01  1.510730333E+02  1.250000000E+02  0.00000E+00  9.000E+00
      21     1     1     2   512   502 -3.569605492E+00 -5.420417111E+00  3.032884313E+01  3.101550790E+01  5.840038640E-07  0.00000E+00  9.000E+00
#rwgt            1           1   5.5994507666731086E-002           3      505292           0
</event>
<event>
      5   9999  3.79277E-02  8.19430E+01 -1.00000E+00  1.27847E-01
      21    -1     0     0   511   501  0.000000000E+00  0.000000000E+00  1.473854472E+02  1.473854472E+02  0.000000000E+00  0.00000E+00  9.000E+00
      21    -1     0     0   501   502  0.000000000E+00  0.000000000E+00 -5.899336456E+02  5.899336456E+02  0.000000000E+00  0.00000E+00  9.000E+00
      25     1     1     2     0     0  3.878383455E+00  6.617346723E+01 -4.139246454E+02  4.374386605E+02  1.250000000E+02  0.00000E+00  9.000E+00
      25     1     1     2     0     0  5.613504124E+01 -1.219680943E+02 -8.319462781E+01  2.014291562E+02  1.250000000E+02  0.00000E+00  9.000E+00
      21     1     1     2   511   502 -6.001342470E+01  5.579462709E+01  5.457107486E+01  9.845127611E+01  2.023048729E-06  0.00000E+00  9.000E+00
#rwgt            1           1   3.9010142247822732E-002           3      505532           0
</event>
<event>
      5   9999  3.79277E-02  6.90364E+01 -1.00000E+00  1.31526E-01
      21    -1     0     0   502   512  0.000000000E+00  0.000000000E+00  2.273949049E+02  2.273949049E+02  0.000000000E+00  0.00000E+00  9.000E+00
      21    -1     0     0   501   502  0.000000000E+00  0.000000000E+00 -3.195738268E+02  3.195738268E+02  0.000000000E+00  0.00000E+00  9.000E+00
      25     1     1     2     0     0  1.535471278E+02  2.743652108E+01 -1.448472707E+01  2.004103053E+02  1.250000000E+02  0.00000E+00  9.000E+00
      25     1     1     2     0     0 -1.901987695E+02  3.106717240E+01 -1.262882654E+02  2.621344447E+02  1.250000000E+02  0.00000E+00  9.000E+00
      21     1     1     2   501   512  3.665164170E+01 -5.850369348E+01  4.859407055E+01  8.442398168E+01  1.651812370E-06  0.00000E+00  9.000E+00
#rwgt            1           1   2.5758079800046588E-002           3      505628           0
</event>
<event>
      5   9999  3.79277E-02  6.60516E+01 -1.00000E+00  1.32511E-01
      21    -1     0     0   502   511  0.000000000E+00  0.000000000E+00  1.545592187E+03  1.545592187E+03  0.000000000E+00  0.00000E+00  9.000E+00
      21    -1     0     0   501   502  0.000000000E+00  0.000000000E+00 -4.346119041E+01  4.346119041E+01  0.000000000E+00  0.00000E+00  9.000E+00
      25     1     1     2     0     0  3.393646064E+01  1.060778368E+02  4.733044573E+02  5.020421298E+02  1.250000000E+02  0.00000E+00  9.000E+00
      25     1     1     2     0     0 -7.555065182E+01 -1.573718688E+02  3.935349451E+02  4.482951696E+02  1.250000000E+02  0.00000E+00  9.000E+00
      21     1     1     2   501   511  4.161419118E+01  5.129403203E+01  6.352915942E+02  6.387160780E+02  0.000000000E+00  0.00000E+00  9.000E+00
#rwgt            1           1   2.7111611047685873E-002           3      505866           0
</event>
<event>
      5   9999  3.79277E-02  1.30463E+02 -1.00000E+00  1.18847E-01
      21    -1     0     0   502   501  0.000000000E+00  0.000000000E+00  1.270363186E+03  1.270363186E+03  0.000000000E+00  0.00000E+00  9.000E+00
       2    -1     0     0   501     0  0.000000000E+00  0.000000000E+00 -1.469367713E+02  1.469367713E+02  0.000000000E+00  0.00000E+00  9.000E+00
      25     1     1     2     0     0 -1.084971163E+02 -2.556871307E+01  2.596571891E+02  3.089858236E+02  1.250000000E+02  0.00000E+00  9.000E+00
      25     1     1     2     0     0  1.270723864E+02 -1.035649779E+02  9.365179701E+02  9.589389993E+02  1.250000000E+02  0.00000E+00  9.000E+00
       2     1     1     2   502     0 -1.857527012E+01  1.291336909E+02 -7.274874483E+01  1.493751340E+02  4.672030912E-06  0.00000E+00  9.000E+00
#rwgt            1           1   4.2311195585019522E-002           3      506030           0
</event>
<event>
      5   9999 -3.79277E-02  8.69498E+01 -1.00000E+00  1.26622E-01
      21    -1     0     0   502   501  0.000000000E+00  0.000000000E+00  1.651129425E+03  1.651129425E+03  0.000000000E+00  0.00000E+00  9.000E+00
      21    -1     0     0   501   511  0.000000000E+00  0.000000000E+00 -1.700720964E+02  1.700720964E+02  0.000000000E+00  0.00000E+00  9.000E+00
      25     1     1     2     0     0  8.205360974E+01  3.489192156E+01  4.554833235E+02  4.806665155E+02  1.250000000E+02  0.00000E+00  9.000E+00
      25     1     1     2     0     0 -1.682313254E+02 -4.645332846E+01  1.160407222E+03  1.180097289E+03  1.250000000E+02  0.00000E+00  9.000E+00
      21     1     1     2   502   511  8.617771563E+01  1.156140690E+01 -1.348332167E+02  1.604377173E+02  3.814697266E-06  0.00000E+00  9.000E+00
#rwgt            1           1 -0.10649908130613708                3      506109           0
</event>
<event>
      5   9999  3.79277E-02  5.21132E+01 -1.00000E+00  1.38057E-01
      21    -1     0     0   502   512  0.000000000E+00  0.000000000E+00  1.288576845E+03  1.288576845E+03  0.000000000E+00  0.00000E+00  9.000E+00
      21    -1     0     0   501   502  0.000000000E+00  0.000000000E+00 -6.289499598E+01  6.289499598E+01  0.000000000E+00  0.00000E+00  9.000E+00
      25     1     1     2     0     0  1.439903608E+02  2.269063789E+01  2.162951175E+02  2.892346226E+02  1.250000000E+02  0.00000E+00  9.000E+00
      25     1     1     2     0     0 -9.874722954E+01 -4.855261134E+01  2.459656587E+02  2.970395204E+02  1.250000000E+02  0.00000E+00  9.000E+00
      21     1     1     2   501   512 -4.524313129E+01  2.586197346E+01  7.634210725E+02  7.651976977E+02  0.000000000E+00  0.00000E+00  9.000E+00
#rwgt            1           1   4.7716565404715791E-002           3      506191           0
</event>
<event>
      5   9999  3.79277E-02  8.30424E+00 -1.00000E+00  2.05573E-01
      21    -1     0     0   511   501  0.000000000E+00  0.000000000E+00  1.183415401E+02  1.183415401E+02  0.000000000E+00  0.00000E+00  9.000E+00
      21    -1     0     0   501   502  0.000000000E+00  0.000000000E+00 -2.783405809E+02  2.783405809E+02  0.000000000E+00  0.00000E+00  9.000E+00
      25     1     1     2     0     0 -4.840905852E+01 -6.537313493E+01 -1.829571008E+02  2.360410652E+02  1.250000000E+02  0.00000E+00  9.000E+00
      25     1     1     2     0     0  5.411287618E+01  5.933766105E+01  1.532559753E+01  1.493620947E+02  1.250000000E+02  0.00000E+00  9.000E+00
      21     1     1     2   511   502 -5.703817656E+00  6.035473885E+00  7.632462470E+00  1.127896113E+01  1.192092896E-07  0.00000E+00  9.000E+00
#rwgt            1           1   3.4980832221912096E-002           3      506361           0
</event>
<event>
      5   9999  3.79277E-02  2.15541E+01 -1.00000E+00  1.63731E-01
       1    -1     0     0   502     0  0.000000000E+00  0.000000000E+00  1.629748058E+03  1.629748058E+03  0.000000000E+00  0.00000E+00  9.000E+00
      21    -1     0     0   501   502  0.000000000E+00  0.000000000E+00 -2.327129276E+02  2.327129276E+02  0.000000000E+00  0.00000E+00  9.000E+00
      25     1     1     2     0     0 -1.482444417E+02 -8.296089772E+01  1.903828236E+02  2.841294504E+02  1.250000000E+02  0.00000E+00  9.000E+00
      25     1     1     2     0     0  1.570944781E+02  6.330752408E+01 -1.261146180E+02  2.453903310E+02  1.250000000E+02  0.00000E+00  9.000E+00
       1     1     1     2   501     0 -8.850036473E+00  1.965337364E+01  1.332766925E+03  1.332941204E+03  1.525878906E-05  0.00000E+00  9.000E+00
#rwgt            1           1   3.4993201165528863E-002           3      506624           0
</event>
</LesHouchesEvents>
 #Random number generator exit values:            3        506724             0
