<LesHouchesEvents version="3.0">
<!--
file generated with POWHEG-BOX-V2
Input file powheg.input contained:
! ggHH production parameters:
mtdep 2              ! 0: Higgs effective field theory (HEFT)

hmass 125            ! Higgs boson mass
topmass 173          ! top quark mass (THIS VALUE IS HARD CODED IN THE VIRTUAL
hdecaymode -1        ! PDG code for Higgs boson decay products (it affects only the SMC)
!                      allowed values are:
!                      0 all decay channels open
!                      1-6 d dbar, u ubar,..., t tbar (as in HERWIG)
!                      7-9 e+ e-, mu+ mu-, tau+ tau-
!                      10  W+W-
!                      11  ZZ
!                      12  gamma gamma
!                      -1  all decay channels closed

! general parameters:
numevts  3000        ! number of events to be generated
ih1         1        ! hadron 1 (1 for protons, -1 for antiprotons)
ih2         1        ! hadron 2 (1 for protons, -1 for antiprotons)
ebeam1 7000d0        ! energy of beam 1
ebeam2 7000d0        ! energy of beam 2
! To be set only if using LHA pdfs
lhans1 90200         ! pdf set for hadron 1 (LHA numbering)
lhans2 90200 	     ! pdf set for hadron 2 (LHA numbering)
! To be set only if using internal mlm pdf
# ndns1 131          ! pdf set for hadron 1 (mlm numbering)
# ndns2 131          ! pdf set for hadron 2 (mlm numbering)
! To be set only if using different pdf sets for the two incoming hadrons
! QCDLambda5 0.25    ! for not equal pdf sets

! Parameters to allow or not the use of stored data
use-old-grid    1    ! if 1 use old grid if file pwggrids.dat is present (<> 1 regenerate)
use-old-ubound  1    ! if 1 use norm of upper bounding function stored in pwgubound.dat, if present;
!
ncall1  10000        ! number of calls for initializing the integration grid
itmx1       3        ! number of iterations for initializing the integration grid
ncall2  10000        ! number of calls for computing the integral and finding upper bound
itmx2       3        ! number of iterations for computing the integral and finding upper bound
foldcsi     1        ! number of folds on csi integration
foldy       1        ! number of folds on  y  integration
foldphi     1        ! number of folds on phi integration
nubound 10000        ! number of bbarra calls to setup norm of upper bounding function
# icsimax   1        ! <= 100, number of csi subdivision when computing the upper bounds
# iymax     1        ! <= 100, number of y subdivision when computing the upper bounds
# xupbound 2d0       ! increase upper bound for radiation generation

! OPTIONAL PARAMETERS

! scale settings:
#fixedscale   1      ! (dafault 0) Use muren = mufac = 2*m_H
facscfact   1d0      ! (default 1d0) fac scale factor: mufact = muref * facscfact
renscfact   1d0      ! (default 1d0) ren scale factor: muren  = muref * renscfact

! Born, plots and powheg strategy:
#bornonly         1  ! (default 0) if 1 do Born only
# testplots 1
fastbtlbound      1  ! fast evaluation of Btilde upper bounds
storemintupb      1  ! store function calls in binary file for more precise generation
ubexcess_correct  1  ! corrects for error in upper bound estimate
storeinfo_rwgt    1  ! store info to allow for reweighting
softtest          0  ! no check of the soft limit in the real
colltest          0  ! no check of the collinear limit in the real

! PARAMETERS needed for ggHH
hdamp           250

! PARAMETERS for parallel runnning
! -- non parallel (for testing purposes only)
#iseed    547        !  Start the random number generator with seed iseed
#rand1     0         !  skipping  rand2*100000000+rand1 numbers.
#rand2     0         !  (see RM48 short writeup in CERNLIB)

! -- parallel
manyseeds 1          ! Used to perform multiple runs with different random
                     ! seeds in the same directory.
                     ! If set to 1, the program asks for an integer j;
                     ! The file pwgseeds.dat at line j is read, and the
                     ! integer at line j is used to initialize the random
                     ! sequence for the generation of the event.
                     ! The event file is called pwgevents-'j'.lhe
parallelstage 4
xgriditeration 1
maxseeds    1000

! PARAMETERS for reweighting
#rwl_file 'reweight_setup.xml'


! PARAMETERS for Pythia8
#py8tune  xxx
#py8hepmc 1
#py8nohad 1
#py8nompi 1
End of powheg.input content
PDF package: lha
 Random number generator initialized with:            6             0             0
-->
<init>
     2212     2212  7.00000E+03  7.00000E+03     -1     -1     -1     -1     -4      1
  3.38081E-02  5.61572E-05  1.00000E+00   9999
</init>
<event>
      5   9999  3.79277E-02  9.75548E+00 -1.00000E+00  1.97008E-01
      21    -1     0     0   511   501  0.000000000E+00  0.000000000E+00  6.051744221E+02  6.051744221E+02  0.000000000E+00  0.00000E+00  9.000E+00
      21    -1     0     0   501   502  0.000000000E+00  0.000000000E+00 -4.044259315E+02  4.044259315E+02  0.000000000E+00  0.00000E+00  9.000E+00
      25     1     1     2     0     0 -2.237859711E+02 -1.546110389E+02 -1.908074987E+02  3.549890643E+02  1.250000000E+02  0.00000E+00  9.000E+00
      25     1     1     2     0     0  2.145311123E+02  1.576959849E+02  3.306740373E+01  2.959899914E+02  1.250000000E+02  0.00000E+00  9.000E+00
      21     1     1     2   511   502  9.254858785E+00 -3.084945994E+00  3.584885855E+02  3.586212978E+02  0.000000000E+00  0.00000E+00  9.000E+00
#rwgt            1           1   3.6105752780991728E-002           6          76           0
</event>
<event>
      5   9999  3.79277E-02  1.68574E+02 -1.00000E+00  1.14419E-01
      21    -1     0     0   502   501  0.000000000E+00  0.000000000E+00  2.742646612E+02  2.742646612E+02  0.000000000E+00  0.00000E+00  9.000E+00
       2    -1     0     0   501     0  0.000000000E+00  0.000000000E+00 -2.933616227E+03  2.933616227E+03  0.000000000E+00  0.00000E+00  9.000E+00
      25     1     1     2     0     0  1.485394745E+02  1.208980751E+02 -3.789511112E+01  2.318218271E+02  1.250000000E+02  0.00000E+00  9.000E+00
      25     1     1     2     0     0 -1.952975282E+02  4.106168553E+01  9.533033241E+01  2.540473555E+02  1.250000000E+02  0.00000E+00  9.000E+00
       2     1     1     2   502     0  4.675805364E+01 -1.619597607E+02 -2.716786787E+03  2.722011705E+03  3.051757812E-05  0.00000E+00  9.000E+00
#rwgt            1           1   3.8734139420240336E-002           6         393           0
</event>
<event>
      5   9999  3.79277E-02  1.49675E+02 -1.00000E+00  1.16431E-01
      21    -1     0     0   502   501  0.000000000E+00  0.000000000E+00  5.949340550E+02  5.949340550E+02  0.000000000E+00  0.00000E+00  9.000E+00
      21    -1     0     0   501   511  0.000000000E+00  0.000000000E+00 -2.312261640E+02  2.312261640E+02  0.000000000E+00  0.00000E+00  9.000E+00
      25     1     1     2     0     0 -2.226397691E+02  5.355543542E+01  1.812177303E+02  3.176499917E+02  1.250000000E+02  0.00000E+00  9.000E+00
      25     1     1     2     0     0  2.141682769E+02 -2.029901168E+02  1.563441312E+02  3.565691037E+02  1.250000000E+02  0.00000E+00  9.000E+00
      21     1     1     2   502   511  8.471492254E+00  1.494346814E+02  2.614602948E+01  1.519411236E+02  3.455013453E-06  0.00000E+00  9.000E+00
#rwgt            2          11   2.8180231134415914E-003           6         537           0
</event>
<event>
      5   9999  3.79277E-02  8.29952E+01 -1.00000E+00  1.27582E-01
      21    -1     0     0   502   501  0.000000000E+00  0.000000000E+00  1.018947565E+02  1.018947565E+02  0.000000000E+00  0.00000E+00  9.000E+00
      21    -1     0     0   512   502  0.000000000E+00  0.000000000E+00 -6.476855698E+02  6.476855698E+02  0.000000000E+00  0.00000E+00  9.000E+00
      25     1     1     2     0     0  1.037040589E+02 -8.132289210E+01 -1.129325988E+02  2.138848206E+02  1.250000000E+02  0.00000E+00  9.000E+00
      25     1     1     2     0     0 -1.067075730E+02  1.642637555E+02 -3.096123218E+02  3.871096451E+02  1.250000000E+02  0.00000E+00  9.000E+00
      21     1     1     2   512   501  3.003514029E+00 -8.294086338E+01 -1.232458926E+02  1.485858606E+02  1.348699152E-06  0.00000E+00  9.000E+00
#rwgt            1           1   4.4294650020391568E-002           6         572           0
</event>
<event>
      5   9999  3.79277E-02  6.19699E+01 -1.00000E+00  1.33958E-01
      21    -1     0     0   511   501  0.000000000E+00  0.000000000E+00  8.935277568E+02  8.935277568E+02  0.000000000E+00  0.00000E+00  9.000E+00
      21    -1     0     0   501   502  0.000000000E+00  0.000000000E+00 -3.093510467E+02  3.093510467E+02  0.000000000E+00  0.00000E+00  9.000E+00
      25     1     1     2     0     0 -4.219469373E+01 -1.007765903E+02 -4.824783605E+01  1.728848374E+02  1.250000000E+02  0.00000E+00  9.000E+00
      25     1     1     2     0     0  1.011089772E+02  1.199957738E+02 -1.466227097E+02  2.484858748E+02  1.250000000E+02  0.00000E+00  9.000E+00
      21     1     1     2   511   502 -5.891428345E+01 -1.921918345E+01  7.790472558E+02  7.815080912E+02  1.525878906E-05  0.00000E+00  9.000E+00
#rwgt            2          11   3.6086930153018874E-003           6         825           0
</event>
<event>
      5   9999  3.79277E-02  3.57838E+01 -1.00000E+00  1.47905E-01
      21    -1     0     0   502   512  0.000000000E+00  0.000000000E+00  1.365144207E+02  1.365144207E+02  0.000000000E+00  0.00000E+00  9.000E+00
      21    -1     0     0   501   502  0.000000000E+00  0.000000000E+00 -3.730359829E+02  3.730359829E+02  0.000000000E+00  0.00000E+00  9.000E+00
      25     1     1     2     0     0 -6.003142021E+01 -1.317856085E+02 -8.790962467E+01  2.105334181E+02  1.250000000E+02  0.00000E+00  9.000E+00
      25     1     1     2     0     0  9.544010760E+01  1.369535957E+02 -1.584454534E+02  2.619065925E+02  1.250000000E+02  0.00000E+00  9.000E+00
      21     1     1     2   501   512 -3.540868739E+01 -5.167987265E+00  9.833515828E+00  3.711039300E+01  2.665600750E-07  0.00000E+00  9.000E+00
#rwgt            1           1   3.9045409968232463E-002           6         950           0
</event>
<event>
      5   9999  3.79277E-02  3.03020E+01 -1.00000E+00  1.52738E-01
      21    -1     0     0   502   501  0.000000000E+00  0.000000000E+00  8.482962739E+02  8.482962739E+02  0.000000000E+00  0.00000E+00  9.000E+00
      21    -1     0     0   501   511  0.000000000E+00  0.000000000E+00 -1.116782598E+02  1.116782598E+02  0.000000000E+00  0.00000E+00  9.000E+00
      25     1     1     2     0     0  2.123264042E+02 -1.852063540E+01  2.352315227E+02  3.411515574E+02  1.250000000E+02  0.00000E+00  9.000E+00
      25     1     1     2     0     0 -2.166147450E+02  4.851762702E+01  5.229021891E+02  5.816593567E+02  1.250000000E+02  0.00000E+00  9.000E+00
      21     1     1     2   502   511  4.288340817E+00 -2.999699162E+01 -2.151569761E+01  3.716361954E+01  6.743495762E-07  0.00000E+00  9.000E+00
#rwgt            1           1   5.5989258572754892E-002           6        1179           0
</event>
<event>
      5   9999 -3.79277E-02  1.62710E+01 -1.00000E+00  1.74119E-01
      21    -1     0     0   502   512  0.000000000E+00  0.000000000E+00  1.536126096E+02  1.536126096E+02  0.000000000E+00  0.00000E+00  9.000E+00
      21    -1     0     0   501   502  0.000000000E+00  0.000000000E+00 -6.720832127E+02  6.720832127E+02  0.000000000E+00  0.00000E+00  9.000E+00
      25     1     1     2     0     0 -4.250119089E+01  2.829456821E+02 -1.801271159E+02  3.604655159E+02  1.250000000E+02  0.00000E+00  9.000E+00
      25     1     1     2     0     0  3.119332033E+01 -2.712461483E+02 -3.322846043E+02  4.478677868E+02  1.250000000E+02  0.00000E+00  9.000E+00
      21     1     1     2   501   512  1.130787056E+01 -1.169953377E+01 -6.058882839E+00  1.736251964E+01  2.665600750E-07  0.00000E+00  9.000E+00
#rwgt            1           1 -0.10995352381692300                6        1320           0
</event>
<event>
      5   9999  3.79277E-02  4.07416E+01 -1.00000E+00  1.44347E-01
      21    -1     0     0   511   501  0.000000000E+00  0.000000000E+00  3.929641055E+02  3.929641055E+02  0.000000000E+00  0.00000E+00  9.000E+00
      21    -1     0     0   501   502  0.000000000E+00  0.000000000E+00 -1.280366705E+02  1.280366705E+02  0.000000000E+00  0.00000E+00  9.000E+00
      25     1     1     2     0     0 -4.830162779E+01  6.527802985E+01  2.512175483E+02  2.921121788E+02  1.250000000E+02  0.00000E+00  9.000E+00
      25     1     1     2     0     0  8.848543365E+01 -5.855922835E+01 -3.263770285E+01  1.671797680E+02  1.250000000E+02  0.00000E+00  9.000E+00
      21     1     1     2   511   502 -4.018380586E+01 -6.718801500E+00  4.634758951E+01  6.170882919E+01  9.536743164E-07  0.00000E+00  9.000E+00
#rwgt            1           1   4.7683981769700838E-002           6        1604           0
</event>
<event>
      5   9999  3.79277E-02  1.36941E+02 -1.00000E+00  1.17983E-01
       2    -1     0     0   502     0  0.000000000E+00  0.000000000E+00  1.587473798E+03  1.587473798E+03  0.000000000E+00  0.00000E+00  9.000E+00
      21    -1     0     0   501   502  0.000000000E+00  0.000000000E+00 -9.819502322E+01  9.819502322E+01  0.000000000E+00  0.00000E+00  9.000E+00
      25     1     1     2     0     0  1.409481803E+02 -4.055423015E+01  3.353861946E+02  3.868073611E+02  1.250000000E+02  0.00000E+00  9.000E+00
      25     1     1     2     0     0 -2.770576506E+02  2.548543190E+01  2.791775268E+02  4.134918868E+02  1.250000000E+02  0.00000E+00  9.000E+00
       2     1     1     2   501     0  1.361094703E+02  1.506879824E+01  8.747150530E+02  8.853695728E+02  1.078959322E-05  0.00000E+00  9.000E+00
#rwgt            1           1   3.4764638459067590E-002           6        1786           0
</event>
<event>
      5   9999  3.79277E-02  4.76517E+01 -1.00000E+00  1.40278E-01
      21    -1     0     0   502   511  0.000000000E+00  0.000000000E+00  3.043553576E+02  3.043553576E+02  0.000000000E+00  0.00000E+00  9.000E+00
      21    -1     0     0   501   502  0.000000000E+00  0.000000000E+00 -2.762472338E+02  2.762472338E+02  0.000000000E+00  0.00000E+00  9.000E+00
      25     1     1     2     0     0  1.290251152E+02  1.163416316E+02  1.211124431E+02  2.459188473E+02  1.250000000E+02  0.00000E+00  9.000E+00
      25     1     1     2     0     0 -9.503488238E+01 -1.497384188E+02 -1.474463574E+02  2.623330922E+02  1.250000000E+02  0.00000E+00  9.000E+00
      21     1     1     2   501   511 -3.399023279E+01  3.339678717E+01  5.444203811E+01  7.235065191E+01  9.536743164E-07  0.00000E+00  9.000E+00
#rwgt            1           1   7.2545740716043111E-002           6        1825           0
</event>
<event>
      5   9999  3.79277E-02  9.69341E+01 -1.00000E+00  1.24439E-01
      21    -1     0     0   502   501  0.000000000E+00  0.000000000E+00  7.263523499E+02  7.263523499E+02  0.000000000E+00  0.00000E+00  9.000E+00
      21    -1     0     0   512   502  0.000000000E+00  0.000000000E+00 -1.170892171E+03  1.170892171E+03  0.000000000E+00  0.00000E+00  9.000E+00
      25     1     1     2     0     0 -7.475534678E+01 -1.095887145E+02  9.749899262E+00  1.825324869E+02  1.250000000E+02  0.00000E+00  9.000E+00
      25     1     1     2     0     0 -1.665211281E+01  1.418516120E+02  6.136756426E+02  6.423565731E+02  1.250000000E+02  0.00000E+00  9.000E+00
      21     1     1     2   512   501  9.140745959E+01 -3.226289748E+01 -1.067965363E+03  1.072355461E+03  2.157918644E-05  0.00000E+00  9.000E+00
#rwgt            1           1   4.0552913145747167E-002           6        1962           0
</event>
<event>
      5   9999  3.79277E-02  1.37408E+01 -1.00000E+00  1.81048E-01
      21    -1     0     0   511   501  0.000000000E+00  0.000000000E+00  6.155045403E+02  6.155045403E+02  0.000000000E+00  0.00000E+00  9.000E+00
      21    -1     0     0   501   502  0.000000000E+00  0.000000000E+00 -5.914771885E+01  5.914771885E+01  0.000000000E+00  0.00000E+00  9.000E+00
      25     1     1     2     0     0  3.532654148E+01  3.342188751E+01  4.572376322E+02  4.765041862E+02  1.250000000E+02  0.00000E+00  9.000E+00
      25     1     1     2     0     0 -2.651646725E+01 -4.396662142E+01  4.518056096E+01  1.424867360E+02  1.250000000E+02  0.00000E+00  9.000E+00
      21     1     1     2   511   502 -8.810074236E+00  1.054473391E+01  5.393862828E+01  5.566133705E+01  0.000000000E+00  0.00000E+00  9.000E+00
#rwgt            1           1   5.9437924281206561E-002           6        2021           0
</event>
<event>
      5   9999  3.79277E-02  6.80571E+01 -1.00000E+00  1.31843E-01
      21    -1     0     0   512   501  0.000000000E+00  0.000000000E+00  4.593842268E+01  4.593842268E+01  0.000000000E+00  0.00000E+00  9.000E+00
      21    -1     0     0   501   502  0.000000000E+00  0.000000000E+00 -1.494912459E+03  1.494912459E+03  0.000000000E+00  0.00000E+00  9.000E+00
      25     1     1     2     0     0  4.690305912E+01  1.559795653E+02 -1.048907538E+03  1.068813148E+03  1.250000000E+02  0.00000E+00  9.000E+00
      25     1     1     2     0     0  1.621500475E+01 -1.305259683E+02 -2.712045802E+02  3.263079513E+02  1.250000000E+02  0.00000E+00  9.000E+00
      21     1     1     2   512   502 -6.311806387E+01 -2.545359705E+01 -1.288619188E+02  1.457297832E+02  1.907348633E-06  0.00000E+00  9.000E+00
#rwgt            1           1   4.2122641892041790E-002           6        2210           0
</event>
<event>
      5   9999  3.79277E-02  2.08552E+01 -1.00000E+00  1.64882E-01
      21    -1     0     0   502   501  0.000000000E+00  0.000000000E+00  3.558136971E+03  3.558136971E+03  0.000000000E+00  0.00000E+00  9.000E+00
      21    -1     0     0   501   511  0.000000000E+00  0.000000000E+00 -1.776137966E+01  1.776137966E+01  0.000000000E+00  0.00000E+00  9.000E+00
      25     1     1     2     0     0  1.192142971E+02 -4.022651788E+01  2.907488870E+03  2.912893193E+03  1.250000000E+02  0.00000E+00  9.000E+00
      25     1     1     2     0     0 -1.092117952E+02  5.852655102E+01  5.467988762E+02  5.744271794E+02  1.250000000E+02  0.00000E+00  9.000E+00
      21     1     1     2   502   511 -1.000250185E+01 -1.830003315E+01  8.608784491E+01  8.857797863E+01  2.132480600E-06  0.00000E+00  9.000E+00
#rwgt            1           1   7.6493418389546311E-003           6        2323           0
</event>
<event>
      5   9999  3.79277E-02  2.44628E+02 -1.00000E+00  1.08554E-01
      21    -1     0     0   502   512  0.000000000E+00  0.000000000E+00  1.221121719E+03  1.221121719E+03  0.000000000E+00  0.00000E+00  9.000E+00
      21    -1     0     0   501   502  0.000000000E+00  0.000000000E+00 -8.573758250E+02  8.573758250E+02  0.000000000E+00  0.00000E+00  9.000E+00
      25     1     1     2     0     0 -2.982821950E+02 -2.597765922E+02 -3.140109845E+02  5.202730476E+02  1.250000000E+02  0.00000E+00  9.000E+00
      25     1     1     2     0     0  2.164245682E+02  2.925102278E+01 -3.892668653E+02  4.635179699E+02  1.250000000E+02  0.00000E+00  9.000E+00
      21     1     1     2   501   512  8.185762679E+01  2.305255694E+02  1.067023743E+03  1.094706526E+03  1.525878906E-05  0.00000E+00  9.000E+00
#rwgt            2          11   4.2777151485883756E-003           6        2516           0
</event>
<event>
      5   9999  3.79277E-02  1.09829E+01 -1.00000E+00  1.91165E-01
      21    -1     0     0   502   501  0.000000000E+00  0.000000000E+00  2.570767014E+02  2.570767014E+02  0.000000000E+00  0.00000E+00  9.000E+00
      21    -1     0     0   511   502  0.000000000E+00  0.000000000E+00 -1.674692617E+03  1.674692617E+03  0.000000000E+00  0.00000E+00  9.000E+00
      25     1     1     2     0     0  1.979480084E+02 -2.790374373E+02 -1.900942158E+02  4.108602151E+02  1.250000000E+02  0.00000E+00  9.000E+00
      25     1     1     2     0     0 -2.073004697E+02  2.732794095E+02 -8.051345807E+01  3.738482812E+02  1.250000000E+02  0.00000E+00  9.000E+00
      21     1     1     2   511   501  9.352461310E+00  5.758027737E+00 -1.147008241E+03  1.147060822E+03  0.000000000E+00  0.00000E+00  9.000E+00
#rwgt            1           1   2.5942208688846575E-002           6        2536           0
</event>
<event>
      5   9999  3.79277E-02  2.32636E+01 -1.00000E+00  1.61129E-01
      21    -1     0     0   502   501  0.000000000E+00  0.000000000E+00  6.214649683E+02  6.214649683E+02  0.000000000E+00  0.00000E+00  9.000E+00
      -3    -1     0     0     0   502  0.000000000E+00  0.000000000E+00 -1.880835650E+02  1.880835650E+02  0.000000000E+00  0.00000E+00  9.000E+00
      25     1     1     2     0     0  1.265987820E+02 -1.201009914E+00  2.680053414E+02  3.216839397E+02  1.250000000E+02  0.00000E+00  9.000E+00
      25     1     1     2     0     0 -1.334265329E+02 -2.103808607E+01  2.996154595E+02  3.516243227E+02  1.250000000E+02  0.00000E+00  9.000E+00
      -3     1     1     2     0   501  6.827750916E+00  2.223909598E+01 -1.342393976E+02  1.362402710E+02  2.697398305E-06  0.00000E+00  9.000E+00
#rwgt            1           1   2.7378585512123181E-002           6        2910           0
</event>
<event>
      5   9999  3.79277E-02  8.92285E+01 -1.00000E+00  1.26096E-01
      21    -1     0     0   502   501  0.000000000E+00  0.000000000E+00  2.459058860E+02  2.459058860E+02  0.000000000E+00  0.00000E+00  9.000E+00
      21    -1     0     0   501   511  0.000000000E+00  0.000000000E+00 -1.014481565E+03  1.014481565E+03  0.000000000E+00  0.00000E+00  9.000E+00
      25     1     1     2     0     0 -1.317787655E+02  8.697709096E+01  4.926324320E+01  2.073222722E+02  1.250000000E+02  0.00000E+00  9.000E+00
      25     1     1     2     0     0  2.154093050E+02 -1.180842612E+02 -5.008093972E+01  2.801395402E+02  1.250000000E+02  0.00000E+00  9.000E+00
      21     1     1     2   502   511 -8.363053948E+01  3.110717023E+01 -7.677579825E+02  7.729256386E+02  1.078959322E-05  0.00000E+00  9.000E+00
#rwgt            2          11   9.8677171757256951E-004           6        3054           0
</event>
<event>
      5   9999  3.79277E-02  3.29920E+01 -1.00000E+00  1.50226E-01
      21    -1     0     0   502   501  0.000000000E+00  0.000000000E+00  1.308930677E+03  1.308930677E+03  0.000000000E+00  0.00000E+00  9.000E+00
      21    -1     0     0   512   502  0.000000000E+00  0.000000000E+00 -1.228182604E+02  1.228182604E+02  0.000000000E+00  0.00000E+00  9.000E+00
      25     1     1     2     0     0  3.210990378E+01  1.761197152E+02  7.838295749E+02  8.136725401E+02  1.250000000E+02  0.00000E+00  9.000E+00
      25     1     1     2     0     0 -6.130941708E+01 -1.914773865E+02  4.791403570E+02  5.344370084E+02  1.250000000E+02  0.00000E+00  9.000E+00
      21     1     1     2   512   501  2.919951330E+01  1.535767122E+01 -7.685751556E+01  8.363938869E+01  5.135693366E-06  0.00000E+00  9.000E+00
#rwgt            1           1   3.8776842471670049E-002           6        3134           0
</event>
<event>
      5   9999  3.79277E-02  1.35837E+02 -1.00000E+00  1.18127E-01
      21    -1     0     0   502   501  0.000000000E+00  0.000000000E+00  3.116759771E+02  3.116759771E+02  0.000000000E+00  0.00000E+00  9.000E+00
      -1    -1     0     0     0   502  0.000000000E+00  0.000000000E+00 -1.337555301E+03  1.337555301E+03  0.000000000E+00  0.00000E+00  9.000E+00
      25     1     1     2     0     0 -2.135507785E+02 -3.126827090E+02 -3.885191001E+01  4.006355980E+02  1.250000000E+02  0.00000E+00  9.000E+00
      25     1     1     2     0     0  9.423327404E+01  2.477602981E+02 -4.461802291E+01  2.964470328E+02  1.250000000E+02  0.00000E+00  9.000E+00
      -1     1     1     2     0   501  1.193175044E+02  6.492241088E+01 -9.424093908E+02  9.521486471E+02  1.078959322E-05  0.00000E+00  9.000E+00
#rwgt            1           1   5.0754065888094259E-002           6        3353           0
</event>
<event>
      5   9999  3.79277E-02  2.34979E+02 -1.00000E+00  1.09158E-01
      -5    -1     0     0     0   501  0.000000000E+00  0.000000000E+00  2.101360179E+03  2.101360179E+03  0.000000000E+00  0.00000E+00  9.000E+00
      21    -1     0     0   501   502  0.000000000E+00  0.000000000E+00 -8.912562516E+01  8.912562516E+01  0.000000000E+00  0.00000E+00  9.000E+00
      25     1     1     2     0     0  5.170571565E+01 -2.170235593E+02  4.133712802E+02  4.860797482E+02  1.250000000E+02  0.00000E+00  9.000E+00
      25     1     1     2     0     0 -2.500549453E+02  9.103577216E+01  4.943259360E+02  5.751505182E+02  1.250000000E+02  0.00000E+00  9.000E+00
      -5     1     1     2     0   502  1.983492297E+02  1.259877872E+02  1.104537337E+03  1.129255537E+03  2.642899792E-05  0.00000E+00  9.000E+00
#rwgt            1           1   4.1028291372994095E-002           6        3544           0
</event>
<event>
      5   9999  3.79277E-02  4.16008E+01 -1.00000E+00  1.43791E-01
      21    -1     0     0   502   511  0.000000000E+00  0.000000000E+00  6.151794835E+01  6.151794835E+01  0.000000000E+00  0.00000E+00  9.000E+00
      21    -1     0     0   501   502  0.000000000E+00  0.000000000E+00 -6.361872440E+02  6.361872440E+02  0.000000000E+00  0.00000E+00  9.000E+00
      25     1     1     2     0     0  9.894334943E+01 -2.616559272E+01 -2.576517104E+02  3.041115396E+02  1.250000000E+02  0.00000E+00  9.000E+00
      25     1     1     2     0     0 -7.993168450E+01  6.316810114E+01 -3.126205063E+02  3.517610896E+02  1.250000000E+02  0.00000E+00  9.000E+00
      21     1     1     2   501   511 -1.901166493E+01 -3.700250842E+01 -4.397078877E+00  4.183256310E+01  5.809542146E-07  0.00000E+00  9.000E+00
#rwgt            1           1   5.1362705795900257E-002           6        3597           0
</event>
<event>
      5   9999  3.79277E-02  6.58259E+01 -1.00000E+00  1.32587E-01
      21    -1     0     0   502   512  0.000000000E+00  0.000000000E+00  3.230501209E+02  3.230501209E+02  0.000000000E+00  0.00000E+00  9.000E+00
      21    -1     0     0   501   502  0.000000000E+00  0.000000000E+00 -3.088015814E+02  3.088015814E+02  0.000000000E+00  0.00000E+00  9.000E+00
      25     1     1     2     0     0 -1.027810128E+02  1.259769305E+02 -1.679916211E+02  2.651043348E+02  1.250000000E+02  0.00000E+00  9.000E+00
      25     1     1     2     0     0  9.325770346E+01 -1.911102485E+02  1.133534913E+02  2.714666468E+02  1.250000000E+02  0.00000E+00  9.000E+00
      21     1     1     2   501   512  9.523309291E+00  6.513331800E+01  6.888666923E+01  9.528072067E+01  9.536743164E-07  0.00000E+00  9.000E+00
#rwgt            1           1   3.1915124761922833E-002           6        3679           0
</event>
<event>
      5   9999  3.79277E-02  5.63033E+01 -1.00000E+00  1.36196E-01
      21    -1     0     0   511   501  0.000000000E+00  0.000000000E+00  4.116951067E+01  4.116951067E+01  0.000000000E+00  0.00000E+00  9.000E+00
      21    -1     0     0   501   502  0.000000000E+00  0.000000000E+00 -7.896116364E+02  7.896116364E+02  0.000000000E+00  0.00000E+00  9.000E+00
      25     1     1     2     0     0  8.234546799E+01 -3.296573632E+00 -2.989792108E+02  3.343728637E+02  1.250000000E+02  0.00000E+00  9.000E+00
      25     1     1     2     0     0 -6.949284218E+01  5.811325213E+01 -3.338744352E+02  3.678363001E+02  1.250000000E+02  0.00000E+00  9.000E+00
      21     1     1     2   511   502 -1.285262581E+01 -5.481667850E+01 -1.155884797E+02  1.285719832E+02  1.907348633E-06  0.00000E+00  9.000E+00
#rwgt            1           1   8.5856235128664124E-002           6        3782           0
</event>
<event>
      5   9999  3.79277E-02  6.25134E+01 -1.00000E+00  1.33758E-01
      21    -1     0     0   502   501  0.000000000E+00  0.000000000E+00  3.233798070E+01  3.233798070E+01  0.000000000E+00  0.00000E+00  9.000E+00
       2    -1     0     0   501     0  0.000000000E+00  0.000000000E+00 -2.339701017E+03  2.339701017E+03  0.000000000E+00  0.00000E+00  9.000E+00
      25     1     1     2     0     0 -1.213869723E+02  3.101475743E+01 -4.121028041E+02  4.484979748E+02  1.250000000E+02  0.00000E+00  9.000E+00
      25     1     1     2     0     0  8.772559583E+01  2.166199186E+01 -4.279021378E+02  4.548519117E+02  1.250000000E+02  0.00000E+00  9.000E+00
       2     1     1     2   502     0  3.366137650E+01 -5.267674929E+01 -1.467358095E+03  1.468689111E+03  3.051757812E-05  0.00000E+00  9.000E+00
#rwgt            1           1   2.5083022935765888E-002           6        3818           0
</event>
<event>
      5   9999  3.79277E-02  3.71329E+01 -1.00000E+00  1.46872E-01
      21    -1     0     0   502   501  0.000000000E+00  0.000000000E+00  1.141401810E+03  1.141401810E+03  0.000000000E+00  0.00000E+00  9.000E+00
      21    -1     0     0   501   511  0.000000000E+00  0.000000000E+00 -5.919534391E+01  5.919534391E+01  0.000000000E+00  0.00000E+00  9.000E+00
      25     1     1     2     0     0  1.071436470E+02  1.747927189E+02  6.636351626E+02  7.057399555E+02  1.250000000E+02  0.00000E+00  9.000E+00
      25     1     1     2     0     0 -8.244629478E+01 -1.470638153E+02  4.034236314E+02  4.547535417E+02  1.250000000E+02  0.00000E+00  9.000E+00
      21     1     1     2   502   511 -2.469735219E+01 -2.772890359E+01  1.514767166E+01  4.010365639E+01  1.215700987E-06  0.00000E+00  9.000E+00
#rwgt            1           1   5.6640907482960474E-002           6        3957           0
</event>
<event>
      5   9999  3.79277E-02  3.30208E+01 -1.00000E+00  1.50201E-01
      21    -1     0     0   502   501  0.000000000E+00  0.000000000E+00  2.219462142E+02  2.219462142E+02  0.000000000E+00  0.00000E+00  9.000E+00
      21    -1     0     0   501   512  0.000000000E+00  0.000000000E+00 -3.073764601E+02  3.073764601E+02  0.000000000E+00  0.00000E+00  9.000E+00
      25     1     1     2     0     0 -1.473329944E+02 -6.196962699E+01 -1.490459856E+02  2.517676543E+02  1.250000000E+02  0.00000E+00  9.000E+00
      25     1     1     2     0     0  1.200086904E+02  4.342904041E+01  1.178824711E+02  2.140314096E+02  1.250000000E+02  0.00000E+00  9.000E+00
      21     1     1     2   502   512  2.732430406E+01  1.854058659E+01 -5.426673144E+01  6.352361045E+01  9.536743164E-07  0.00000E+00  9.000E+00
#rwgt            1           1   4.0726260517573713E-002           6        4120           0
</event>
<event>
      5   9999  3.79277E-02  3.17839E+01 -1.00000E+00  1.51318E-01
      21    -1     0     0   502   501  0.000000000E+00  0.000000000E+00  4.784829055E+02  4.784829055E+02  0.000000000E+00  0.00000E+00  9.000E+00
      21    -1     0     0   501   511  0.000000000E+00  0.000000000E+00 -4.724666105E+02  4.724666105E+02  0.000000000E+00  0.00000E+00  9.000E+00
      25     1     1     2     0     0  1.470847015E+02  2.304315462E+01  1.783250117E+02  2.637986091E+02  1.250000000E+02  0.00000E+00  9.000E+00
      25     1     1     2     0     0 -1.413653167E+02 -5.430826526E+01  2.192362708E+02  2.943179962E+02  1.250000000E+02  0.00000E+00  9.000E+00
      21     1     1     2   502   511 -5.719384796E+00  3.126511064E+01 -3.915449875E+02  3.928329108E+02  5.394796609E-06  0.00000E+00  9.000E+00
#rwgt            2          11   6.3715379053124787E-003           6        4322           0
</event>
<event>
      5   9999  3.79277E-02  1.33184E+02 -1.00000E+00  1.18478E-01
      21    -1     0     0   502   512  0.000000000E+00  0.000000000E+00  1.097900545E+03  1.097900545E+03  0.000000000E+00  0.00000E+00  9.000E+00
      21    -1     0     0   501   502  0.000000000E+00  0.000000000E+00 -9.701658093E+01  9.701658093E+01  0.000000000E+00  0.00000E+00  9.000E+00
      25     1     1     2     0     0 -9.403734177E+01  1.317920251E+02  2.887259171E+02  3.538358585E+02  1.250000000E+02  0.00000E+00  9.000E+00
      25     1     1     2     0     0  2.122024552E+02 -1.932335309E+02  4.698306775E+02  5.645661564E+02  1.250000000E+02  0.00000E+00  9.000E+00
      21     1     1     2   501   512 -1.181651134E+02  6.144150578E+01  2.423273697E+02  2.765151113E+02  2.697398305E-06  0.00000E+00  9.000E+00
#rwgt            2          11   2.5292205321066651E-003           6        4432           0
</event>
<event>
      5   9999  3.79277E-02  1.40148E+01 -1.00000E+00  1.80209E-01
      21    -1     0     0   502   511  0.000000000E+00  0.000000000E+00  2.638480738E+02  2.638480738E+02  0.000000000E+00  0.00000E+00  9.000E+00
      21    -1     0     0   501   502  0.000000000E+00  0.000000000E+00 -2.107148220E+02  2.107148220E+02  0.000000000E+00  0.00000E+00  9.000E+00
      25     1     1     2     0     0 -7.213724861E+01  4.006162699E+01  1.006685824E+02  1.804657310E+02  1.250000000E+02  0.00000E+00  9.000E+00
      25     1     1     2     0     0  8.101035584E+01 -2.921343236E+01 -1.364365145E+02  2.040980766E+02  1.250000000E+02  0.00000E+00  9.000E+00
      21     1     1     2   501   511 -8.873107224E+00 -1.084819464E+01  8.890118394E+01  8.999908813E+01  9.536743164E-07  0.00000E+00  9.000E+00
#rwgt            1           1   4.8258490590883101E-002           6        4512           0
</event>
<event>
      5   9999  3.79277E-02  1.00993E+02 -1.00000E+00  1.23635E-01
      21    -1     0     0   502   512  0.000000000E+00  0.000000000E+00  1.081327915E+03  1.081327915E+03  0.000000000E+00  0.00000E+00  9.000E+00
      21    -1     0     0   501   502  0.000000000E+00  0.000000000E+00 -5.968754770E+01  5.968754770E+01  0.000000000E+00  0.00000E+00  9.000E+00
      25     1     1     2     0     0  5.594141924E+01  1.094167015E+02  4.117608664E+02  4.475192376E+02  1.250000000E+02  0.00000E+00  9.000E+00
      25     1     1     2     0     0  4.203813265E+01 -8.492933898E+01  1.318467376E+02  2.049115893E+02  1.250000000E+02  0.00000E+00  9.000E+00
      21     1     1     2   501   512 -9.797955189E+01 -2.448736257E+01  4.780327638E+02  4.885846362E+02  5.394796609E-06  0.00000E+00  9.000E+00
#rwgt            2          11   1.4859450348843107E-003           6        4650           0
</event>
<event>
      5   9999  3.79277E-02  2.13263E+01 -1.00000E+00  1.64101E-01
      21    -1     0     0   511   501  0.000000000E+00  0.000000000E+00  4.144652487E+02  4.144652487E+02  0.000000000E+00  0.00000E+00  9.000E+00
      21    -1     0     0   501   502  0.000000000E+00  0.000000000E+00 -9.516747916E+01  9.516747916E+01  0.000000000E+00  0.00000E+00  9.000E+00
      25     1     1     2     0     0  1.254520294E+02 -3.795971119E+01  2.154984763E+02  2.815026548E+02  1.250000000E+02  0.00000E+00  9.000E+00
      25     1     1     2     0     0 -1.147400422E+02  5.640054236E+01  7.916341693E+01  1.955457620E+02  1.250000000E+02  0.00000E+00  9.000E+00
      21     1     1     2   511   502 -1.071198717E+01 -1.844083117E+01  2.463587630E+01  3.258431102E+01  0.000000000E+00  0.00000E+00  9.000E+00
#rwgt            1           1   3.6461178315032608E-002           6        4670           0
</event>
<event>
      5   9999 -3.79277E-02  2.56710E+01 -1.00000E+00  1.57894E-01
      21    -1     0     0   502   512  0.000000000E+00  0.000000000E+00  1.594589427E+02  1.594589427E+02  0.000000000E+00  0.00000E+00  9.000E+00
      21    -1     0     0   501   502  0.000000000E+00  0.000000000E+00 -5.090864851E+02  5.090864851E+02  0.000000000E+00  0.00000E+00  9.000E+00
      25     1     1     2     0     0  2.470618646E+02 -7.539933981E+00 -1.130372149E+02  2.991635464E+02  1.250000000E+02  0.00000E+00  9.000E+00
      25     1     1     2     0     0 -2.217700471E+02  3.144239466E+00 -2.294648422E+02  3.427403592E+02  1.250000000E+02  0.00000E+00  9.000E+00
      21     1     1     2   501   512 -2.529181748E+01  4.395694515E+00 -7.125485339E+00  2.664152216E+01  1.884864366E-07  0.00000E+00  9.000E+00
#rwgt            1           1 -0.12422617575328058                6        4767           0
</event>
<event>
      5   9999  3.79277E-02  7.12499E+01 -1.00000E+00  1.30833E-01
      21    -1     0     0   502   511  0.000000000E+00  0.000000000E+00  7.446432801E+01  7.446432801E+01  0.000000000E+00  0.00000E+00  9.000E+00
      21    -1     0     0   501   502  0.000000000E+00  0.000000000E+00 -7.999528088E+02  7.999528088E+02  0.000000000E+00  0.00000E+00  9.000E+00
      25     1     1     2     0     0  1.359033459E+02 -2.921353280E+01 -1.826619520E+02  2.613685877E+02  1.250000000E+02  0.00000E+00  9.000E+00
      25     1     1     2     0     0 -1.520818017E+02 -4.017528173E+01 -4.701038022E+02  5.112391931E+02  1.250000000E+02  0.00000E+00  9.000E+00
      21     1     1     2   501   511  1.617845582E+01  6.938881453E+01 -7.272272653E+01  1.018093560E+02  9.536743164E-07  0.00000E+00  9.000E+00
#rwgt            1           1   4.2873533115575686E-002           6        5042           0
</event>
<event>
      5   9999  3.79277E-02  8.76042E+00 -1.00000E+00  2.02645E-01
      21    -1     0     0   512   501  0.000000000E+00  0.000000000E+00  6.296526799E+02  6.296526799E+02  0.000000000E+00  0.00000E+00  9.000E+00
      21    -1     0     0   501   502  0.000000000E+00  0.000000000E+00 -3.006289381E+02  3.006289381E+02  0.000000000E+00  0.00000E+00  9.000E+00
      25     1     1     2     0     0 -7.714582059E+01 -1.093659607E+02  5.334400362E+01  1.907432141E+02  1.250000000E+02  0.00000E+00  9.000E+00
      25     1     1     2     0     0  7.285897048E+01  1.017260761E+02 -1.981640410E+02  2.656136504E+02  1.250000000E+02  0.00000E+00  9.000E+00
      21     1     1     2   512   502  4.286850111E+00  7.639884584E+00  4.738437792E+02  4.739247535E+02  5.394796609E-06  0.00000E+00  9.000E+00
#rwgt            1           1  0.16654965044263370                6        5130           0
</event>
<event>
      5   9999  3.79277E-02  1.07754E+02 -1.00000E+00  1.22387E-01
      21    -1     0     0   511   501  0.000000000E+00  0.000000000E+00  3.282639643E+02  3.282639643E+02  0.000000000E+00  0.00000E+00  9.000E+00
      21    -1     0     0   501   502  0.000000000E+00  0.000000000E+00 -4.887014646E+02  4.887014646E+02  0.000000000E+00  0.00000E+00  9.000E+00
      25     1     1     2     0     0  2.185159639E+02  2.554964970E+02  7.286787872E+01  3.660087625E+02  1.250000000E+02  0.00000E+00  9.000E+00
      25     1     1     2     0     0 -1.419151279E+02 -1.797127954E+02 -2.220993980E+02  3.426218542E+02  1.250000000E+02  0.00000E+00  9.000E+00
      21     1     1     2   511   502 -7.660083607E+01 -7.578370162E+01 -1.120598096E+01  1.083348122E+02  1.617033478E-06  0.00000E+00  9.000E+00
#rwgt            1           1   4.4652576212924740E-002           6        5464           0
</event>
<event>
      5   9999  3.79277E-02  2.54612E+01 -1.00000E+00  1.58159E-01
      21    -1     0     0   512   501  0.000000000E+00  0.000000000E+00  2.368220267E+02  2.368220267E+02  0.000000000E+00  0.00000E+00  9.000E+00
      21    -1     0     0   501   502  0.000000000E+00  0.000000000E+00 -2.962851919E+02  2.962851919E+02  0.000000000E+00  0.00000E+00  9.000E+00
      25     1     1     2     0     0  4.346243691E+01  1.480479209E+02 -9.395252582E+01  2.196798748E+02  1.250000000E+02  0.00000E+00  9.000E+00
      25     1     1     2     0     0 -6.675341272E+01 -1.583340139E+02 -5.573854949E+01  2.196758156E+02  1.250000000E+02  0.00000E+00  9.000E+00
      21     1     1     2   512   502  2.329097582E+01  1.028609304E+01  9.022791013E+01  9.375152815E+01  1.348699152E-06  0.00000E+00  9.000E+00
#rwgt            1           1   4.1970944310774888E-002           6        5530           0
</event>
<event>
      5   9999  3.79277E-02  7.10715E+01 -1.00000E+00  1.30887E-01
      21    -1     0     0   502   501  0.000000000E+00  0.000000000E+00  8.791277346E+01  8.791277346E+01  0.000000000E+00  0.00000E+00  9.000E+00
      21    -1     0     0   501   511  0.000000000E+00  0.000000000E+00 -6.624490028E+02  6.624490028E+02  0.000000000E+00  0.00000E+00  9.000E+00
      25     1     1     2     0     0 -1.590388723E+02  8.097658905E+01 -2.564729506E+02  3.365322351E+02  1.250000000E+02  0.00000E+00  9.000E+00
      25     1     1     2     0     0  1.206271371E+02 -2.117943106E+01 -1.468458654E+02  2.284473302E+02  1.250000000E+02  0.00000E+00  9.000E+00
      21     1     1     2   502   511  3.841173521E+01 -5.979715799E+01 -1.712174133E+02  1.853822109E+02  2.697398305E-06  0.00000E+00  9.000E+00
#rwgt            1           1   4.2974848987749198E-002           6        5638           0
</event>
<event>
      5   9999  3.79277E-02  1.74995E+01 -1.00000E+00  1.71302E-01
      21    -1     0     0   502   501  0.000000000E+00  0.000000000E+00  1.465698528E+02  1.465698528E+02  0.000000000E+00  0.00000E+00  9.000E+00
      21    -1     0     0   512   502  0.000000000E+00  0.000000000E+00 -4.566507898E+02  4.566507898E+02  0.000000000E+00  0.00000E+00  9.000E+00
      25     1     1     2     0     0  7.973420832E+01  2.343227207E+01  8.728258945E+01  1.736371670E+02  1.250000000E+02  0.00000E+00  9.000E+00
      25     1     1     2     0     0 -6.227238863E+01 -2.458053992E+01 -3.159615919E+02  3.463217881E+02  1.250000000E+02  0.00000E+00  9.000E+00
      21     1     1     2   512   501 -1.746181969E+01  1.148267847E+00 -8.140193448E+01  8.326168749E+01  1.348699152E-06  0.00000E+00  9.000E+00
#rwgt            1           1   3.1419161124911846E-002           6        5776           0
</event>
<event>
      5   9999  3.79277E-02  1.37167E+02 -1.00000E+00  1.17954E-01
      21    -1     0     0   502   501  0.000000000E+00  0.000000000E+00  1.419757602E+02  1.419757602E+02  0.000000000E+00  0.00000E+00  9.000E+00
      21    -1     0     0   511   502  0.000000000E+00  0.000000000E+00 -8.644560380E+02  8.644560380E+02  0.000000000E+00  0.00000E+00  9.000E+00
      25     1     1     2     0     0  2.312996257E+01  1.267175895E+02  1.910105014E+01  1.805053816E+02  1.250000000E+02  0.00000E+00  9.000E+00
      25     1     1     2     0     0 -1.349793008E+02 -4.731644201E+01 -5.976098628E+02  6.270732058E+02  1.250000000E+02  0.00000E+00  9.000E+00
      21     1     1     2   511   501  1.118493382E+02 -7.940114753E+01 -1.439714651E+02  1.988532108E+02  1.907348633E-06  0.00000E+00  9.000E+00
#rwgt            1           1   3.2079615603056763E-002           6        5916           0
</event>
<event>
      5   9999 -3.79277E-02  1.52307E+01 -1.00000E+00  1.76761E-01
      21    -1     0     0   512   501  0.000000000E+00  0.000000000E+00  3.205984898E+01  3.205984898E+01  0.000000000E+00  0.00000E+00  9.000E+00
      21    -1     0     0   501   502  0.000000000E+00  0.000000000E+00 -2.041612127E+03  2.041612127E+03  0.000000000E+00  0.00000E+00  9.000E+00
      25     1     1     2     0     0 -1.709093916E+01 -1.205618016E+02 -1.567241829E+03  1.576927138E+03  1.250000000E+02  0.00000E+00  9.000E+00
      25     1     1     2     0     0  3.097252452E+01  1.268289559E+02 -4.458617205E+02  4.811055551E+02  1.250000000E+02  0.00000E+00  9.000E+00
      21     1     1     2   512   502 -1.388158535E+01 -6.267154264E+00  3.551271576E+00  1.563928273E+01  7.115206949E-07  0.00000E+00  9.000E+00
#rwgt            1           1 -0.12074381551524968                6        6137           0
</event>
<event>
      5   9999  3.79277E-02  1.27381E+01 -1.00000E+00  1.84343E-01
      21    -1     0     0   511   501  0.000000000E+00  0.000000000E+00  1.021667356E+03  1.021667356E+03  0.000000000E+00  0.00000E+00  9.000E+00
      21    -1     0     0   501   502  0.000000000E+00  0.000000000E+00 -6.560300218E+01  6.560300218E+01  0.000000000E+00  0.00000E+00  9.000E+00
      25     1     1     2     0     0  1.662750021E+02  4.350739333E+01  3.527124791E+02  4.117904351E+02  1.250000000E+02  0.00000E+00  9.000E+00
      25     1     1     2     0     0 -1.603449788E+02 -3.223380482E+01  2.587604545E+02  3.306531464E+02  1.250000000E+02  0.00000E+00  9.000E+00
      21     1     1     2   511   502 -5.930023242E+00 -1.127358851E+01  3.445914199E+02  3.448267763E+02  3.814697266E-06  0.00000E+00  9.000E+00
#rwgt            1           1   3.8726778960005745E-002           6        6299           0
</event>
<event>
      5   9999  3.79277E-02  2.20779E+01 -1.00000E+00  1.62903E-01
      21    -1     0     0   502   501  0.000000000E+00  0.000000000E+00  2.302743590E+02  2.302743590E+02  0.000000000E+00  0.00000E+00  9.000E+00
      21    -1     0     0   512   502  0.000000000E+00  0.000000000E+00 -2.452869082E+02  2.452869082E+02  0.000000000E+00  0.00000E+00  9.000E+00
      25     1     1     2     0     0 -2.884630918E+01  5.196560219E+01  1.684966117E+02  2.180565099E+02  1.250000000E+02  0.00000E+00  9.000E+00
      25     1     1     2     0     0  1.351169715E+01 -6.784909601E+01 -1.087350148E+02  1.795393250E+02  1.250000000E+02  0.00000E+00  9.000E+00
      21     1     1     2   512   501  1.533461203E+01  1.588349382E+01 -7.477414608E+01  7.796543224E+01  9.536743164E-07  0.00000E+00  9.000E+00
#rwgt            1           1   4.3303880915932687E-002           6        6501           0
</event>
<event>
      5   9999  3.79277E-02  2.87627E+01 -1.00000E+00  1.54321E-01
      21    -1     0     0   511   501  0.000000000E+00  0.000000000E+00  3.028119757E+02  3.028119757E+02  0.000000000E+00  0.00000E+00  9.000E+00
      21    -1     0     0   501   502  0.000000000E+00  0.000000000E+00 -1.720344761E+02  1.720344761E+02  0.000000000E+00  0.00000E+00  9.000E+00
      25     1     1     2     0     0  1.061176992E+02  1.301277517E+02  2.398133507E+00  2.093440921E+02  1.250000000E+02  0.00000E+00  9.000E+00
      25     1     1     2     0     0 -1.103640724E+02 -1.016802317E+02  8.396796156E+01  2.125904903E+02  1.250000000E+02  0.00000E+00  9.000E+00
      21     1     1     2   511   502  4.246373156E+00 -2.844752003E+01  4.441140450E+01  5.291186946E+01  6.743495762E-07  0.00000E+00  9.000E+00
#rwgt            1           1   4.2426995369100044E-002           6        6698           0
</event>
<event>
      5   9999  3.79277E-02  1.32710E+01 -1.00000E+00  1.82545E-01
      21    -1     0     0   512   501  0.000000000E+00  0.000000000E+00  7.215163752E+02  7.215163752E+02  0.000000000E+00  0.00000E+00  9.000E+00
      21    -1     0     0   501   502  0.000000000E+00  0.000000000E+00 -7.496422380E+02  7.496422380E+02  0.000000000E+00  0.00000E+00  9.000E+00
      25     1     1     2     0     0 -1.315861705E+02 -2.390691893E+02 -1.871407989E+02  3.537169436E+02  1.250000000E+02  0.00000E+00  9.000E+00
      25     1     1     2     0     0  1.247362193E+02  2.504356835E+02 -4.301433483E+02  5.281339376E+02  1.250000000E+02  0.00000E+00  9.000E+00
      21     1     1     2   512   502  6.849951188E+00 -1.136649420E+01  5.891582843E+02  5.893077320E+02  7.629394531E-06  0.00000E+00  9.000E+00
#rwgt            1           1   2.5761574033898314E-002           6        6927           0
</event>
<event>
      5   9999  3.79277E-02  1.33470E+02 -1.00000E+00  1.18439E-01
      21    -1     0     0   511   501  0.000000000E+00  0.000000000E+00  8.100940521E+02  8.100940521E+02  0.000000000E+00  0.00000E+00  9.000E+00
      21    -1     0     0   501   502  0.000000000E+00  0.000000000E+00 -2.485881719E+02  2.485881719E+02  0.000000000E+00  0.00000E+00  9.000E+00
      25     1     1     2     0     0 -1.295744337E+01 -2.027890898E+02  5.851143982E+01  2.456418101E+02  1.250000000E+02  0.00000E+00  9.000E+00
      25     1     1     2     0     0  1.147434954E+02  1.164529275E+02 -7.560568736E+01  2.192454652E+02  1.250000000E+02  0.00000E+00  9.000E+00
      21     1     1     2   511   502 -1.017860521E+02  8.633616238E+01  5.786001277E+02  5.937949487E+02  1.078959322E-05  0.00000E+00  9.000E+00
#rwgt            1           1   4.6788720240055051E-002           6        7329           0
</event>
<event>
      5   9999  3.79277E-02  1.35422E+01 -1.00000E+00  1.81671E-01
      21    -1     0     0   502   501  0.000000000E+00  0.000000000E+00  1.711052248E+02  1.711052248E+02  0.000000000E+00  0.00000E+00  9.000E+00
      21    -1     0     0   501   512  0.000000000E+00  0.000000000E+00 -6.509647593E+02  6.509647593E+02  0.000000000E+00  0.00000E+00  9.000E+00
      25     1     1     2     0     0  1.158843453E+02  2.733183373E+01  1.073611271E+02  2.032919631E+02  1.250000000E+02  0.00000E+00  9.000E+00
      25     1     1     2     0     0 -1.226097001E+02 -1.557769039E+01 -5.720150969E+02  5.984163050E+02  1.250000000E+02  0.00000E+00  9.000E+00
      21     1     1     2   502   512  6.725354824E+00 -1.175414333E+01 -1.520556478E+01  2.036171612E+01  2.384185791E-07  0.00000E+00  9.000E+00
#rwgt            1           1   4.7925927652828999E-002           6        7419           0
</event>
<event>
      5   9999  3.79277E-02  6.92830E+01 -1.00000E+00  1.31448E-01
      21    -1     0     0   502   501  0.000000000E+00  0.000000000E+00  2.079400183E+03  2.079400183E+03  0.000000000E+00  0.00000E+00  9.000E+00
      21    -1     0     0   511   502  0.000000000E+00  0.000000000E+00 -4.444906754E+01  4.444906754E+01  0.000000000E+00  0.00000E+00  9.000E+00
      25     1     1     2     0     0  2.044956759E+02 -2.438772552E+01  7.392164050E+02  7.774825631E+02  1.250000000E+02  0.00000E+00  9.000E+00
      25     1     1     2     0     0 -2.543668153E+02  7.248139808E+01  1.117014358E+03  1.154687017E+03  1.250000000E+02  0.00000E+00  9.000E+00
      21     1     1     2   511   501  4.987113943E+01 -4.809367256E+01  1.787203521E+02  1.916796706E+02  2.697398305E-06  0.00000E+00  9.000E+00
#rwgt            1           1   3.6773464335908938E-002           6        7674           0
</event>
<event>
      5   9999  3.79277E-02  2.00533E+02 -1.00000E+00  1.11606E-01
      -3    -1     0     0     0   501  0.000000000E+00  0.000000000E+00  2.242338519E+02  2.242338519E+02  0.000000000E+00  0.00000E+00  9.000E+00
      21    -1     0     0   501   502  0.000000000E+00  0.000000000E+00 -1.190340227E+03  1.190340227E+03  0.000000000E+00  0.00000E+00  9.000E+00
      25     1     1     2     0     0  2.702550960E+02  1.242578075E+02 -5.595415053E+02  6.459020946E+02  1.250000000E+02  0.00000E+00  9.000E+00
      25     1     1     2     0     0 -7.073654828E+01 -1.444004731E+02 -5.055548409E+02  5.450374786E+02  1.250000000E+02  0.00000E+00  9.000E+00
      -3     1     1     2     0   502 -1.995185477E+02  2.014266561E+01  9.898997091E+01  2.236345058E+02  3.015782986E-06  0.00000E+00  9.000E+00
#rwgt            1           1   4.4394453550714599E-002           6        8014           0
</event>
<event>
      5   9999  3.79277E-02  1.59927E+01 -1.00000E+00  1.74801E-01
      21    -1     0     0   511   501  0.000000000E+00  0.000000000E+00  4.438862449E+02  4.438862449E+02  0.000000000E+00  0.00000E+00  9.000E+00
      21    -1     0     0   501   502  0.000000000E+00  0.000000000E+00 -1.739713355E+02  1.739713355E+02  0.000000000E+00  0.00000E+00  9.000E+00
      25     1     1     2     0     0 -1.904879078E+02  3.075261959E+01  5.267964443E+01  2.358633324E+02  1.250000000E+02  0.00000E+00  9.000E+00
      25     1     1     2     0     0  1.746742611E+02 -2.836636124E+01  6.119223244E+01  2.251338208E+02  1.250000000E+02  0.00000E+00  9.000E+00
      21     1     1     2   511   502  1.581364669E+01 -2.386258354E+00  1.560430325E+02  1.568604273E+02  3.303624740E-06  0.00000E+00  9.000E+00
#rwgt            1           1   5.1298210576920869E-002           6        8131           0
</event>
<event>
      5   9999  3.79277E-02  1.23391E+02 -1.00000E+00  1.19857E-01
      21    -1     0     0   502   501  0.000000000E+00  0.000000000E+00  4.365406063E+02  4.365406063E+02  0.000000000E+00  0.00000E+00  9.000E+00
      21    -1     0     0   512   502  0.000000000E+00  0.000000000E+00 -2.422170608E+02  2.422170608E+02  0.000000000E+00  0.00000E+00  9.000E+00
      25     1     1     2     0     0 -1.335163496E+02  1.519407955E+02  2.494730795E+02  3.446366759E+02  1.250000000E+02  0.00000E+00  9.000E+00
      25     1     1     2     0     0  1.012704251E+01 -1.513129910E+02  5.554498866E+00  1.966062834E+02  1.250000000E+02  0.00000E+00  9.000E+00
      21     1     1     2   512   501  1.233893071E+02 -6.278045212E-01 -6.070403294E+01  1.375147078E+02  1.784161275E-06  0.00000E+00  9.000E+00
#rwgt            1           1   4.8288425548934248E-002           6        8426           0
</event>
<event>
      5   9999  3.79277E-02  7.11795E+01 -1.00000E+00  1.30854E-01
      21    -1     0     0   502   501  0.000000000E+00  0.000000000E+00  5.848391111E+02  5.848391111E+02  0.000000000E+00  0.00000E+00  9.000E+00
      21    -1     0     0   501   511  0.000000000E+00  0.000000000E+00 -6.324322701E+02  6.324322701E+02  0.000000000E+00  0.00000E+00  9.000E+00
      25     1     1     2     0     0 -1.572466809E+02 -6.232606750E+01  3.567896961E+02  4.141677734E+02  1.250000000E+02  0.00000E+00  9.000E+00
      25     1     1     2     0     0  1.632021763E+02 -8.603833013E+00  1.433499353E+02  2.507651895E+02  1.250000000E+02  0.00000E+00  9.000E+00
      21     1     1     2   502   511 -5.955495473E+00  7.092990051E+01 -5.477327903E+02  5.523384183E+02  7.629394531E-06  0.00000E+00  9.000E+00
#rwgt            1           1   3.3673195342169976E-002           6        8526           0
</event>
<event>
      5   9999  3.79277E-02  3.04223E+01 -1.00000E+00  1.52619E-01
      21    -1     0     0   502   501  0.000000000E+00  0.000000000E+00  6.104259697E+01  6.104259697E+01  0.000000000E+00  0.00000E+00  9.000E+00
      21    -1     0     0   512   502  0.000000000E+00  0.000000000E+00 -1.885135218E+03  1.885135218E+03  0.000000000E+00  0.00000E+00  9.000E+00
      25     1     1     2     0     0  1.477745142E+02  1.226389621E+02 -5.543247717E+02  5.998154505E+02  1.250000000E+02  0.00000E+00  9.000E+00
      25     1     1     2     0     0 -1.253018024E+02 -1.021330869E+02 -2.361116771E+02  3.122585999E+02  1.250000000E+02  0.00000E+00  9.000E+00
      21     1     1     2   512   501 -2.247271181E+01 -2.050587520E+01 -1.033656172E+03  1.034103765E+03  1.525878906E-05  0.00000E+00  9.000E+00
#rwgt            1           1   4.9221076876566558E-002           6        8610           0
</event>
<event>
      5   9999  3.79277E-02  4.97817E+01 -1.00000E+00  1.39184E-01
      21    -1     0     0   502   501  0.000000000E+00  0.000000000E+00  2.084985549E+02  2.084985549E+02  0.000000000E+00  0.00000E+00  9.000E+00
      21    -1     0     0   501   511  0.000000000E+00  0.000000000E+00 -3.150801613E+02  3.150801613E+02  0.000000000E+00  0.00000E+00  9.000E+00
      25     1     1     2     0     0 -1.038399546E+02 -3.028017023E+01 -1.248420417E+01  1.657723748E+02  1.250000000E+02  0.00000E+00  9.000E+00
      25     1     1     2     0     0  1.459460020E+02  5.683757878E+01  4.900349566E+01  2.062936947E+02  1.250000000E+02  0.00000E+00  9.000E+00
      21     1     1     2   502   511 -4.210604738E+01 -2.655740855E+01 -1.431008978E+02  1.515126468E+02  3.303624740E-06  0.00000E+00  9.000E+00
#rwgt            1           1   2.9540657261808056E-002           6        8999           0
</event>
<event>
      5   9999  3.79277E-02  1.26821E+02 -1.00000E+00  1.19358E-01
      21    -1     0     0   502   512  0.000000000E+00  0.000000000E+00  2.922658594E+02  2.922658594E+02  0.000000000E+00  0.00000E+00  9.000E+00
      21    -1     0     0   501   502  0.000000000E+00  0.000000000E+00 -6.340515219E+02  6.340515219E+02  0.000000000E+00  0.00000E+00  9.000E+00
      25     1     1     2     0     0 -1.741039116E+01  2.212890053E+02 -4.281386715E+02  4.981964147E+02  1.250000000E+02  0.00000E+00  9.000E+00
      25     1     1     2     0     0 -1.076446584E+02 -2.002011766E+02  1.348239418E+02  2.923531749E+02  1.250000000E+02  0.00000E+00  9.000E+00
      21     1     1     2   501   512  1.250550496E+02 -2.108782870E+01 -4.847093279E+01  1.357677917E+02  2.697398305E-06  0.00000E+00  9.000E+00
#rwgt            1           1   1.9678915586359869E-002           6        9158           0
</event>
<event>
      5   9999  3.79277E-02  2.31077E+01 -1.00000E+00  1.61355E-01
      21    -1     0     0   502   501  0.000000000E+00  0.000000000E+00  8.616679502E+02  8.616679502E+02  0.000000000E+00  0.00000E+00  9.000E+00
      21    -1     0     0   501   511  0.000000000E+00  0.000000000E+00 -2.637357585E+02  2.637357585E+02  0.000000000E+00  0.00000E+00  9.000E+00
      25     1     1     2     0     0  4.620652873E+01 -1.216854774E+02  2.398666822E+02  3.001723237E+02  1.250000000E+02  0.00000E+00  9.000E+00
      25     1     1     2     0     0 -3.317232882E+01  1.407662152E+02  5.755803343E+02  6.064925820E+02  1.250000000E+02  0.00000E+00  9.000E+00
      21     1     1     2   502   511 -1.303419990E+01 -1.908073786E+01 -2.175148248E+02  2.187388030E+02  3.814697266E-06  0.00000E+00  9.000E+00
#rwgt            1           1   4.6677558483251939E-002           6        9395           0
</event>
<event>
      5   9999  3.79277E-02  4.70259E+01 -1.00000E+00  1.40612E-01
      21    -1     0     0   502   501  0.000000000E+00  0.000000000E+00  8.152917216E+01  8.152917216E+01  0.000000000E+00  0.00000E+00  9.000E+00
       1    -1     0     0   501     0  0.000000000E+00  0.000000000E+00 -2.728657977E+03  2.728657977E+03  0.000000000E+00  0.00000E+00  9.000E+00
      25     1     1     2     0     0 -4.440981482E+01  8.125848830E+01 -4.987696157E+00  1.556439870E+02  1.250000000E+02  0.00000E+00  9.000E+00
      25     1     1     2     0     0  2.381443861E+01 -3.898245488E+01 -7.433297332E+02  7.551495557E+02  1.250000000E+02  0.00000E+00  9.000E+00
       1     1     1     2   502     0  2.059537621E+01 -4.227603342E+01 -1.898811375E+03  1.899393606E+03  0.000000000E+00  0.00000E+00  9.000E+00
#rwgt            2          12   1.7010535724933527E-004           6        9762           0
</event>
<event>
      5   9999  3.79277E-02  8.90641E+01 -1.00000E+00  1.26133E-01
      21    -1     0     0   502   501  0.000000000E+00  0.000000000E+00  6.863763225E+01  6.863763225E+01  0.000000000E+00  0.00000E+00  9.000E+00
       2    -1     0     0   501     0  0.000000000E+00  0.000000000E+00 -1.833554621E+03  1.833554621E+03  0.000000000E+00  0.00000E+00  9.000E+00
      25     1     1     2     0     0  9.306740560E+00  1.006786817E+02 -4.741924462E+01  1.676197993E+02  1.250000000E+02  0.00000E+00  9.000E+00
      25     1     1     2     0     0 -7.439728276E+01 -3.988692072E+01 -9.457495641E+02  9.577020206E+02  1.250000000E+02  0.00000E+00  9.000E+00
       2     1     1     2   502     0  6.509054220E+01 -6.079176098E+01 -7.717481796E+02  7.768704329E+02  1.525878906E-05  0.00000E+00  9.000E+00
#rwgt            1           1   3.7939015804502214E-002           6        9826           0
</event>
<event>
      5   9999  3.79277E-02  2.85804E+02 -1.00000E+00  1.06281E-01
      21    -1     0     0   502   501  0.000000000E+00  0.000000000E+00  1.059026452E+03  1.059026452E+03  0.000000000E+00  0.00000E+00  9.000E+00
      21    -1     0     0   511   502  0.000000000E+00  0.000000000E+00 -1.798848236E+02  1.798848236E+02  0.000000000E+00  0.00000E+00  9.000E+00
      25     1     1     2     0     0 -2.129555708E+02  4.969739646E+00  3.464411937E+02  4.254659495E+02  1.250000000E+02  0.00000E+00  9.000E+00
      25     1     1     2     0     0  4.047449176E+01 -2.328608140E+02  4.365123192E+02  5.118889996E+02  1.250000000E+02  0.00000E+00  9.000E+00
      21     1     1     2   511   501  1.724810791E+02  2.278910743E+02  9.618811531E+01  3.015563263E+02  2.697398305E-06  0.00000E+00  9.000E+00
#rwgt            2          11   1.5627884231610479E-003           6        9942           0
</event>
<event>
      5   9999  3.79277E-02  8.41283E+01 -1.00000E+00  1.27301E-01
      21    -1     0     0   512   501  0.000000000E+00  0.000000000E+00  3.138885403E+02  3.138885403E+02  0.000000000E+00  0.00000E+00  9.000E+00
      21    -1     0     0   501   502  0.000000000E+00  0.000000000E+00 -1.018856903E+03  1.018856903E+03  0.000000000E+00  0.00000E+00  9.000E+00
      25     1     1     2     0     0 -1.196348441E+02 -1.122100501E+02  4.678081506E+01  2.114640299E+02  1.250000000E+02  0.00000E+00  9.000E+00
      25     1     1     2     0     0  3.675539392E+01  1.266517138E+02 -9.175443372E+02  9.353631521E+02  1.250000000E+02  0.00000E+00  9.000E+00
      21     1     1     2   512   502  8.287945021E+01 -1.444166373E+01  1.657951596E+02  1.859182613E+02  3.814697266E-06  0.00000E+00  9.000E+00
#rwgt            1           1   2.4786465346411869E-002           6        9962           0
</event>
<event>
      5   9999  3.79277E-02  1.16375E+01 -1.00000E+00  1.88440E-01
      21    -1     0     0   502   501  0.000000000E+00  0.000000000E+00  6.992218120E+02  6.992218120E+02  0.000000000E+00  0.00000E+00  9.000E+00
      21    -1     0     0   501   511  0.000000000E+00  0.000000000E+00 -2.313515203E+03  2.313515203E+03  0.000000000E+00  0.00000E+00  9.000E+00
      25     1     1     2     0     0  7.069259344E+01 -2.346295559E+01  5.834952654E+02  6.013648458E+02  1.250000000E+02  0.00000E+00  9.000E+00
      25     1     1     2     0     0 -5.908834024E+01  2.434169986E+01  6.063154217E+01  1.529219873E+02  1.250000000E+02  0.00000E+00  9.000E+00
      21     1     1     2   502   511 -1.160425320E+01 -8.787442691E-01 -2.258420198E+03  2.258450182E+03  3.051757812E-05  0.00000E+00  9.000E+00
#rwgt            1           1   5.3342198016067634E-002           6       10042           0
</event>
<event>
      5   9999 -3.79277E-02  1.47274E+01 -1.00000E+00  1.78137E-01
      21    -1     0     0   502   501  0.000000000E+00  0.000000000E+00  1.280609286E+03  1.280609286E+03  0.000000000E+00  0.00000E+00  9.000E+00
      21    -1     0     0   501   512  0.000000000E+00  0.000000000E+00 -1.184713069E+02  1.184713069E+02  0.000000000E+00  0.00000E+00  9.000E+00
      25     1     1     2     0     0  2.703401619E+02 -4.486405232E+01  7.727157210E+02  8.293438200E+02  1.250000000E+02  0.00000E+00  9.000E+00
      25     1     1     2     0     0 -2.556890587E+02  4.636166229E+01  4.349674197E+02  5.218696721E+02  1.250000000E+02  0.00000E+00  9.000E+00
      21     1     1     2   502   512 -1.465110324E+01 -1.497609971E+00 -4.554516118E+01  4.786710111E+01  1.651812370E-06  0.00000E+00  9.000E+00
#rwgt            1           1  -8.7766697824215381E-002           6       10285           0
</event>
<event>
      5   9999 -3.79277E-02  7.97337E+01 -1.00000E+00  1.28420E-01
       2    -1     0     0   502     0  0.000000000E+00  0.000000000E+00  1.905385503E+03  1.905385503E+03  0.000000000E+00  0.00000E+00  9.000E+00
      21    -1     0     0   501   502  0.000000000E+00  0.000000000E+00 -3.427422320E+02  3.427422320E+02  0.000000000E+00  0.00000E+00  9.000E+00
      25     1     1     2     0     0  8.508855146E+01 -6.382783028E+02  6.818178406E+02  9.461182913E+02  1.250000000E+02  0.00000E+00  9.000E+00
      25     1     1     2     0     0 -5.026271171E+01  5.665522607E+02  1.988145840E+02  6.153535919E+02  1.250000000E+02  0.00000E+00  9.000E+00
       2     1     1     2   501     0 -3.482583974E+01  7.172604212E+01  6.820108467E+02  6.866558522E+02  0.000000000E+00  0.00000E+00  9.000E+00
#rwgt            1           1 -0.18538235234882428                6       10520           0
</event>
<event>
      5   9999  3.79277E-02  9.73795E+00 -1.00000E+00  1.97100E-01
      21    -1     0     0   511   501  0.000000000E+00  0.000000000E+00  6.177289623E+01  6.177289623E+01  0.000000000E+00  0.00000E+00  9.000E+00
      21    -1     0     0   501   502  0.000000000E+00  0.000000000E+00 -7.288039214E+02  7.288039214E+02  0.000000000E+00  0.00000E+00  9.000E+00
      25     1     1     2     0     0 -1.495587269E+00  1.954323796E+01 -6.331249136E+02  6.456441212E+02  1.250000000E+02  0.00000E+00  9.000E+00
      25     1     1     2     0     0  1.115928453E+01 -1.834299700E+01 -2.067547017E+01  1.285047479E+02  1.250000000E+02  0.00000E+00  9.000E+00
      21     1     1     2   511   502 -9.663697258E+00 -1.200240958E+00 -1.323064140E+01  1.642794859E+01  0.000000000E+00  0.00000E+00  9.000E+00
#rwgt            1           1   3.7046674592347728E-002           6       10697           0
</event>
<event>
      5   9999  3.79277E-02  8.52799E+01 -1.00000E+00  1.27020E-01
      21    -1     0     0   502   501  0.000000000E+00  0.000000000E+00  2.651373178E+01  2.651373178E+01  0.000000000E+00  0.00000E+00  9.000E+00
      21    -1     0     0   512   502  0.000000000E+00  0.000000000E+00 -2.809359457E+03  2.809359457E+03  0.000000000E+00  0.00000E+00  9.000E+00
      25     1     1     2     0     0  4.438455695E+01  6.843244107E+01 -1.256093742E+03  1.264930621E+03  1.250000000E+02  0.00000E+00  9.000E+00
      25     1     1     2     0     0 -1.284225489E+02 -5.393158161E+01 -4.072231980E+02  4.481703912E+02  1.250000000E+02  0.00000E+00  9.000E+00
      21     1     1     2   512   501  8.403799192E+01 -1.450085946E+01 -1.119528785E+03  1.122772176E+03  1.525878906E-05  0.00000E+00  9.000E+00
#rwgt            1           1   4.2014735077804087E-002           6       10945           0
</event>
<event>
      5   9999  3.79277E-02  1.50161E+02 -1.00000E+00  1.16375E-01
      21    -1     0     0   502   501  0.000000000E+00  0.000000000E+00  1.416317469E+02  1.416317469E+02  0.000000000E+00  0.00000E+00  9.000E+00
      21    -1     0     0   501   511  0.000000000E+00  0.000000000E+00 -6.753487566E+02  6.753487566E+02  0.000000000E+00  0.00000E+00  9.000E+00
      25     1     1     2     0     0 -4.324650370E+01 -1.100621596E+02 -1.712653203E+02  2.427771591E+02  1.250000000E+02  0.00000E+00  9.000E+00
      25     1     1     2     0     0 -7.299674393E+01  2.051187152E+02 -9.683634483E+01  2.690808236E+02  1.250000000E+02  0.00000E+00  9.000E+00
      21     1     1     2   502   511  1.162432476E+02 -9.505655565E+01 -2.656153446E+02  3.051225207E+02  3.814697266E-06  0.00000E+00  9.000E+00
#rwgt            1           1   7.2921776857624659E-002           6       11052           0
</event>
<event>
      5   9999  3.79277E-02  1.54631E+02 -1.00000E+00  1.15873E-01
      21    -1     0     0   502   501  0.000000000E+00  0.000000000E+00  5.104595127E+01  5.104595127E+01  0.000000000E+00  0.00000E+00  9.000E+00
       2    -1     0     0   501     0  0.000000000E+00  0.000000000E+00 -3.868905085E+03  3.868905085E+03  0.000000000E+00  0.00000E+00  9.000E+00
      25     1     1     2     0     0 -9.820096683E+01 -3.955944588E+01 -7.275840239E+02  7.457961461E+02  1.250000000E+02  0.00000E+00  9.000E+00
      25     1     1     2     0     0 -4.518033926E+01 -1.834172526E+01 -7.266842641E+01  1.525889319E+02  1.250000000E+02  0.00000E+00  9.000E+00
       2     1     1     2   502     0  1.433813061E+02  5.790117115E+01 -3.017606683E+03  3.021565958E+03  7.475249459E-05  0.00000E+00  9.000E+00
#rwgt            1           1   4.7025471470511379E-002           6       11105           0
</event>
<event>
      5   9999  3.79277E-02  2.40831E+01 -1.00000E+00  1.59976E-01
      21    -1     0     0   502   501  0.000000000E+00  0.000000000E+00  1.062294459E+03  1.062294459E+03  0.000000000E+00  0.00000E+00  9.000E+00
      21    -1     0     0   511   502  0.000000000E+00  0.000000000E+00 -4.569595926E+01  4.569595926E+01  0.000000000E+00  0.00000E+00  9.000E+00
      25     1     1     2     0     0  7.049945859E+00 -3.198976943E+01  8.539524519E+02  8.636740341E+02  1.250000000E+02  0.00000E+00  9.000E+00
      25     1     1     2     0     0 -6.805342660E+00  5.607162939E+01  1.706439788E+02  2.189399640E+02  1.250000000E+02  0.00000E+00  9.000E+00
      21     1     1     2   511   501 -2.446031993E-01 -2.408185996E+01 -7.997930863E+00  2.537642031E+01  1.198038533E-06  0.00000E+00  9.000E+00
#rwgt            1           1   4.9953630030093898E-002           6       11148           0
</event>
<event>
      5   9999  3.79277E-02  3.43273E+01 -1.00000E+00  1.49083E-01
      21    -1     0     0   502   512  0.000000000E+00  0.000000000E+00  5.251765333E+01  5.251765333E+01  0.000000000E+00  0.00000E+00  9.000E+00
      21    -1     0     0   501   502  0.000000000E+00  0.000000000E+00 -1.639703844E+03  1.639703844E+03  0.000000000E+00  0.00000E+00  9.000E+00
      25     1     1     2     0     0 -8.824435646E+01 -1.910983809E+02 -1.030583904E+03  1.059260988E+03  1.250000000E+02  0.00000E+00  9.000E+00
      25     1     1     2     0     0  8.157814912E+01  1.574245666E+02 -5.579150295E+02  5.986081095E+02  1.250000000E+02  0.00000E+00  9.000E+00
      21     1     1     2   501   512  6.666207341E+00  3.367381427E+01  1.312742720E+00  3.435239993E+01  9.628272044E-07  0.00000E+00  9.000E+00
#rwgt            1           1   4.7321196754941661E-002           6       11338           0
</event>
<event>
      5   9999  3.79277E-02  1.96951E+01 -1.00000E+00  1.66921E-01
      21    -1     0     0   502   511  0.000000000E+00  0.000000000E+00  7.595215807E+01  7.595215807E+01  0.000000000E+00  0.00000E+00  9.000E+00
      21    -1     0     0   501   502  0.000000000E+00  0.000000000E+00 -6.233687064E+02  6.233687064E+02  0.000000000E+00  0.00000E+00  9.000E+00
      25     1     1     2     0     0  1.059089172E+02  5.660176406E+01 -4.709577926E+02  5.018433031E+02  1.250000000E+02  0.00000E+00  9.000E+00
      25     1     1     2     0     0 -9.191419031E+01 -4.274375320E+01 -7.548364514E+01  1.777583402E+02  1.250000000E+02  0.00000E+00  9.000E+00
      21     1     1     2   501   511 -1.399472688E+01 -1.385801086E+01 -9.751106083E-01  1.971922124E+01  2.159383408E-07  0.00000E+00  9.000E+00
#rwgt            1           1   3.9560738795634855E-002           6       11501           0
</event>
<event>
      5   9999  3.79277E-02  8.12446E+01 -1.00000E+00  1.28026E-01
      21    -1     0     0   502   501  0.000000000E+00  0.000000000E+00  1.541653719E+03  1.541653719E+03  0.000000000E+00  0.00000E+00  9.000E+00
      21    -1     0     0   512   502  0.000000000E+00  0.000000000E+00 -2.629703530E+02  2.629703530E+02  0.000000000E+00  0.00000E+00  9.000E+00
      25     1     1     2     0     0 -9.972350855E+01  1.566752014E+02  6.387906312E+02  6.768828314E+02  1.250000000E+02  0.00000E+00  9.000E+00
      25     1     1     2     0     0  2.408792152E+01 -1.863391715E+02  8.620998013E+02  8.911473404E+02  1.250000000E+02  0.00000E+00  9.000E+00
      21     1     1     2   512   501  7.563558703E+01  2.966397011E+01 -2.222070666E+02  2.365939002E+02  8.092194914E-06  0.00000E+00  9.000E+00
#rwgt            1           1   4.8436042352519186E-002           6       11669           0
</event>
<event>
      5   9999 -3.79277E-02  2.81953E+02 -1.00000E+00  1.06475E-01
      21    -1     0     0   502   501  0.000000000E+00  0.000000000E+00  3.673154826E+02  3.673154826E+02  0.000000000E+00  0.00000E+00  9.000E+00
       2    -1     0     0   501     0  0.000000000E+00  0.000000000E+00 -1.019026785E+03  1.019026785E+03  0.000000000E+00  0.00000E+00  9.000E+00
      25     1     1     2     0     0 -6.654205633E+01  9.334014300E+01  6.809842664E+01  1.827638456E+02  1.250000000E+02  0.00000E+00  9.000E+00
      25     1     1     2     0     0  3.464445650E+02 -5.940170696E+01  5.680569188E+01  3.773649243E+02  1.250000000E+02  0.00000E+00  9.000E+00
       2     1     1     2   502     0 -2.799025087E+02 -3.393843604E+01 -7.766154210E+02  8.262134978E+02  1.078959322E-05  0.00000E+00  9.000E+00
#rwgt            1           1  -5.5796107943343783E-002           6       11740           0
</event>
<event>
      5   9999 -3.79277E-02  3.31632E+01 -1.00000E+00  1.50076E-01
      21    -1     0     0   511   501  0.000000000E+00  0.000000000E+00  3.353297801E+02  3.353297801E+02  0.000000000E+00  0.00000E+00  9.000E+00
      21    -1     0     0   501   502  0.000000000E+00  0.000000000E+00 -4.372975891E+02  4.372975891E+02  0.000000000E+00  0.00000E+00  9.000E+00
      25     1     1     2     0     0 -1.741999468E+02  1.964126661E+02 -7.170969118E+01  2.994842846E+02  1.250000000E+02  0.00000E+00  9.000E+00
      25     1     1     2     0     0  1.471812070E+02 -2.156424189E+02 -1.658127093E+02  3.335907899E+02  1.250000000E+02  0.00000E+00  9.000E+00
      21     1     1     2   511   502  2.701873981E+01  1.922975278E+01  1.355545915E+02  1.395522947E+02  2.697398305E-06  0.00000E+00  9.000E+00
#rwgt            1           1 -0.15737286012477680                6       11829           0
</event>
<event>
      5   9999  3.79277E-02  6.37696E+01 -1.00000E+00  1.33304E-01
      21    -1     0     0   512   501  0.000000000E+00  0.000000000E+00  6.283189766E+02  6.283189766E+02  0.000000000E+00  0.00000E+00  9.000E+00
      21    -1     0     0   501   502  0.000000000E+00  0.000000000E+00 -7.080892404E+01  7.080892404E+01  0.000000000E+00  0.00000E+00  9.000E+00
      25     1     1     2     0     0  3.369386219E+01  1.045926854E+02  1.877297103E+02  2.508831408E+02  1.250000000E+02  0.00000E+00  9.000E+00
      25     1     1     2     0     0  2.401086491E+01 -7.745009452E+01  1.225453787E+02  1.929181397E+02  1.250000000E+02  0.00000E+00  9.000E+00
      21     1     1     2   512   502 -5.770472711E+01 -2.714259091E+01  2.472349636E+02  2.553266202E+02  2.697398305E-06  0.00000E+00  9.000E+00
#rwgt            1           1   3.4246351392101811E-002           6       11962           0
</event>
<event>
      5   9999  3.79277E-02  3.27050E+01 -1.00000E+00  1.50481E-01
      21    -1     0     0   502   501  0.000000000E+00  0.000000000E+00  5.068885385E+02  5.068885385E+02  0.000000000E+00  0.00000E+00  9.000E+00
      21    -1     0     0   511   502  0.000000000E+00  0.000000000E+00 -3.816139673E+02  3.816139673E+02  0.000000000E+00  0.00000E+00  9.000E+00
      25     1     1     2     0     0  1.007337873E+02  3.216355905E+01  1.687899268E+02  2.351527797E+02  1.250000000E+02  0.00000E+00  9.000E+00
      25     1     1     2     0     0 -7.417815789E+01 -1.307385620E+01  2.866003459E+02  3.216179148E+02  1.250000000E+02  0.00000E+00  9.000E+00
      21     1     1     2   511   501 -2.655562941E+01 -1.908970284E+01 -3.301157015E+02  3.317318112E+02  6.607249480E-06  0.00000E+00  9.000E+00
#rwgt            1           1   5.4122370725086050E-002           6       12198           0
</event>
<event>
      5   9999  3.79277E-02  7.99321E+01 -1.00000E+00  1.28367E-01
      21    -1     0     0   502   501  0.000000000E+00  0.000000000E+00  3.037027991E+02  3.037027991E+02  0.000000000E+00  0.00000E+00  9.000E+00
      21    -1     0     0   512   502  0.000000000E+00  0.000000000E+00 -5.694488232E+02  5.694488232E+02  0.000000000E+00  0.00000E+00  9.000E+00
      25     1     1     2     0     0  7.072557354E+01 -1.055365810E+02 -4.290484405E+01  1.833191270E+02  1.250000000E+02  0.00000E+00  9.000E+00
      25     1     1     2     0     0 -1.426182119E+02  1.404736186E+02  1.687746343E+02  2.901424979E+02  1.250000000E+02  0.00000E+00  9.000E+00
      21     1     1     2   512   501  7.189263838E+01 -3.493703763E+01 -3.916158143E+02  3.996899974E+02  7.629394531E-06  0.00000E+00  9.000E+00
#rwgt            1           1   4.1126367499872508E-002           6       12293           0
</event>
<event>
      5   9999  3.79277E-02  3.89813E+02 -1.00000E+00  1.02024E-01
      21    -1     0     0   502   511  0.000000000E+00  0.000000000E+00  5.660339390E+02  5.660339390E+02  0.000000000E+00  0.00000E+00  9.000E+00
      21    -1     0     0   501   502  0.000000000E+00  0.000000000E+00 -1.082239161E+03  1.082239161E+03  0.000000000E+00  0.00000E+00  9.000E+00
      25     1     1     2     0     0 -7.530929511E+01  3.440131790E+02 -6.868964165E+02  7.819643497E+02  1.250000000E+02  0.00000E+00  9.000E+00
      25     1     1     2     0     0 -2.063922792E+02 -7.457195915E+01 -2.047285928E+02  3.251115912E+02  1.250000000E+02  0.00000E+00  9.000E+00
      21     1     1     2   501   511  2.817015743E+02 -2.694412199E+02  3.754197875E+02  5.411971589E+02  0.000000000E+00  0.00000E+00  9.000E+00
#rwgt            2          11   2.2170314774921582E-003           6       12408           0
</event>
<event>
      5   9999  3.79277E-02  1.02521E+02 -1.00000E+00  1.23344E-01
      21    -1     0     0   502   512  0.000000000E+00  0.000000000E+00  2.893671482E+03  2.893671482E+03  0.000000000E+00  0.00000E+00  9.000E+00
      21    -1     0     0   501   502  0.000000000E+00  0.000000000E+00 -7.506084972E+01  7.506084972E+01  0.000000000E+00  0.00000E+00  9.000E+00
      25     1     1     2     0     0  7.922431991E+01  2.159810017E+02  3.225512043E+02  4.154377996E+02  1.250000000E+02  0.00000E+00  9.000E+00
      25     1     1     2     0     0 -1.755131525E+01 -2.978773272E+02  9.448685653E+02  9.987194583E+02  1.250000000E+02  0.00000E+00  9.000E+00
      21     1     1     2   501   512 -6.167300466E+01  8.189632550E+01  1.551190863E+03  1.554575074E+03  3.051757812E-05  0.00000E+00  9.000E+00
#rwgt            1           1   3.9157714373132514E-002           6       12488           0
</event>
<event>
      5   9999 -3.79277E-02  1.77338E+01 -1.00000E+00  1.70797E-01
      21    -1     0     0   502   501  0.000000000E+00  0.000000000E+00  2.603341928E+02  2.603341928E+02  0.000000000E+00  0.00000E+00  9.000E+00
      21    -1     0     0   511   502  0.000000000E+00  0.000000000E+00 -2.308601337E+02  2.308601337E+02  0.000000000E+00  0.00000E+00  9.000E+00
      25     1     1     2     0     0  1.475614908E+02  9.368140752E+01 -6.382832522E+01  2.241643477E+02  1.250000000E+02  0.00000E+00  9.000E+00
      25     1     1     2     0     0 -1.652407519E+02 -9.507176098E+01  9.881315794E+01  2.484596265E+02  1.250000000E+02  0.00000E+00  9.000E+00
      21     1     1     2   511   501  1.767926117E+01  1.390353457E+00 -5.510773662E+00  1.857035230E+01  3.318646170E-07  0.00000E+00  9.000E+00
#rwgt            1           1 -0.18780338729594903                6       12583           0
</event>
<event>
      5   9999  3.79277E-02  2.71558E+01 -1.00000E+00  1.56106E-01
       2    -1     0     0   502     0  0.000000000E+00  0.000000000E+00  1.180171956E+03  1.180171956E+03  0.000000000E+00  0.00000E+00  9.000E+00
      21    -1     0     0   501   502  0.000000000E+00  0.000000000E+00 -5.148740693E+01  5.148740693E+01  0.000000000E+00  0.00000E+00  9.000E+00
      25     1     1     2     0     0  6.104004501E+01  1.056341294E+02  1.391349994E+02  2.233114517E+02  1.250000000E+02  0.00000E+00  9.000E+00
      25     1     1     2     0     0 -3.396383736E+01 -1.035565073E+02  8.793853442E+02  8.948860688E+02  1.250000000E+02  0.00000E+00  9.000E+00
       2     1     1     2   501     0 -2.707620765E+01 -2.077622131E+00  1.101642056E+02  1.134618426E+02  1.907348633E-06  0.00000E+00  9.000E+00
#rwgt            1           1   4.6165158301497027E-002           6       12944           0
</event>
<event>
      5   9999  3.79277E-02  1.04277E+02 -1.00000E+00  1.23015E-01
      21    -1     0     0   511   501  0.000000000E+00  0.000000000E+00  1.942475596E+02  1.942475596E+02  0.000000000E+00  0.00000E+00  9.000E+00
      21    -1     0     0   501   502  0.000000000E+00  0.000000000E+00 -6.360571335E+02  6.360571335E+02  0.000000000E+00  0.00000E+00  9.000E+00
      25     1     1     2     0     0  1.289402699E+02  1.754065858E+02 -5.891108920E+01  2.578537957E+02  1.250000000E+02  0.00000E+00  9.000E+00
      25     1     1     2     0     0 -3.558027672E+01 -2.218556881E+02 -3.908842174E+02  4.678689709E+02  1.250000000E+02  0.00000E+00  9.000E+00
      21     1     1     2   511   502 -9.335999314E+01  4.644910238E+01  7.985732709E+00  1.045819265E+02  1.283923342E-06  0.00000E+00  9.000E+00
#rwgt            2          11   2.9133886136842469E-003           6       13274           0
</event>
<event>
      5   9999  3.79277E-02  8.56257E+01 -1.00000E+00  1.26937E-01
       1    -1     0     0   502     0  0.000000000E+00  0.000000000E+00  1.128464238E+03  1.128464238E+03  0.000000000E+00  0.00000E+00  9.000E+00
      21    -1     0     0   501   502  0.000000000E+00  0.000000000E+00 -2.995745534E+02  2.995745534E+02  0.000000000E+00  0.00000E+00  9.000E+00
      25     1     1     2     0     0 -8.764854325E+01 -6.094148422E+01  8.799212281E+00  1.646163958E+02  1.250000000E+02  0.00000E+00  9.000E+00
      25     1     1     2     0     0  1.248750365E+02  1.380514968E+02 -1.626204881E+02  2.769881111E+02  1.250000000E+02  0.00000E+00  9.000E+00
       1     1     1     2   501     0 -3.722649325E+01 -7.711001260E+01  9.827109608E+02  9.864342849E+02  1.078959322E-05  0.00000E+00  9.000E+00
#rwgt            1           1  0.11166991044983091                6       13414           0
</event>
<event>
      5   9999  3.79277E-02  3.69162E+01 -1.00000E+00  1.47035E-01
      21    -1     0     0   502   501  0.000000000E+00  0.000000000E+00  2.575460921E+01  2.575460921E+01  0.000000000E+00  0.00000E+00  9.000E+00
       2    -1     0     0   501     0  0.000000000E+00  0.000000000E+00 -1.503592385E+03  1.503592385E+03  0.000000000E+00  0.00000E+00  9.000E+00
      25     1     1     2     0     0 -2.590823183E+01 -5.399852821E+01 -5.470642664E+02  5.643504134E+02  1.250000000E+02  0.00000E+00  9.000E+00
      25     1     1     2     0     0  1.470658553E+01  8.917420226E+01 -3.432706820E+02  3.763350677E+02  1.250000000E+02  0.00000E+00  9.000E+00
       2     1     1     2   502     0  1.120164630E+01 -3.517567405E+01 -5.875028277E+02  5.886615135E+02  7.629394531E-06  0.00000E+00  9.000E+00
#rwgt            1           1   8.7198417828693031E-002           6       13495           0
</event>
<event>
      5   9999  3.79277E-02  7.15587E+01 -1.00000E+00  1.30738E-01
      21    -1     0     0   511   501  0.000000000E+00  0.000000000E+00  1.985270268E+02  1.985270268E+02  0.000000000E+00  0.00000E+00  9.000E+00
      21    -1     0     0   501   502  0.000000000E+00  0.000000000E+00 -9.300106132E+02  9.300106132E+02  0.000000000E+00  0.00000E+00  9.000E+00
      25     1     1     2     0     0  2.010098432E+02 -5.700287322E+01 -5.020140537E+02  5.579403147E+02  1.250000000E+02  0.00000E+00  9.000E+00
      25     1     1     2     0     0 -2.489703964E+02  3.895094181E+00 -3.395965864E+02  4.392633282E+02  1.250000000E+02  0.00000E+00  9.000E+00
      21     1     1     2   511   502  4.796055320E+01  5.310777904E+01  1.101270537E+02  1.313339971E+02  0.000000000E+00  0.00000E+00  9.000E+00
#rwgt            1           1  0.13117864185864872                6       13601           0
</event>
<event>
      5   9999  3.79277E-02  2.05746E+01 -1.00000E+00  1.65360E-01
      21    -1     0     0   502   512  0.000000000E+00  0.000000000E+00  5.182922438E+02  5.182922438E+02  0.000000000E+00  0.00000E+00  9.000E+00
      21    -1     0     0   501   502  0.000000000E+00  0.000000000E+00 -3.262261744E+02  3.262261744E+02  0.000000000E+00  0.00000E+00  9.000E+00
      25     1     1     2     0     0  1.095336786E+02 -1.115401815E+02  8.105947080E-01  2.001611748E+02  1.250000000E+02  0.00000E+00  9.000E+00
      25     1     1     2     0     0 -1.192306289E+02  1.296863817E+02 -1.747071931E+02  2.778166730E+02  1.250000000E+02  0.00000E+00  9.000E+00
      21     1     1     2   501   512  9.696950271E+00 -1.814620015E+01  3.659626679E+02  3.665405703E+02  0.000000000E+00  0.00000E+00  9.000E+00
#rwgt            1           1   3.6923956821759980E-002           6       13742           0
</event>
<event>
      5   9999  3.79277E-02  2.39872E+02 -1.00000E+00  1.08847E-01
       2    -1     0     0   502     0  0.000000000E+00  0.000000000E+00  1.677766804E+03  1.677766804E+03  0.000000000E+00  0.00000E+00  9.000E+00
      21    -1     0     0   501   502  0.000000000E+00  0.000000000E+00 -1.422474028E+02  1.422474028E+02  0.000000000E+00  0.00000E+00  9.000E+00
      25     1     1     2     0     0  3.103710994E+02 -1.780959711E+01  2.278764145E+02  4.052160676E+02  1.250000000E+02  0.00000E+00  9.000E+00
      25     1     1     2     0     0 -1.836882250E+02 -1.858812762E+02  8.515249496E+02  8.994514732E+02  1.250000000E+02  0.00000E+00  9.000E+00
       2     1     1     2   501     0 -1.266828744E+02  2.036908733E+02  4.561180369E+02  5.153466659E+02  5.394796609E-06  0.00000E+00  9.000E+00
#rwgt            1           1   3.3489324231033360E-002           6       13895           0
</event>
<event>
      5   9999  3.79277E-02  3.76814E+01 -1.00000E+00  1.46467E-01
      21    -1     0     0   502   511  0.000000000E+00  0.000000000E+00  3.856337508E+01  3.856337508E+01  0.000000000E+00  0.00000E+00  9.000E+00
      21    -1     0     0   501   502  0.000000000E+00  0.000000000E+00 -1.157434946E+03  1.157434946E+03  0.000000000E+00  0.00000E+00  9.000E+00
      25     1     1     2     0     0 -8.498255978E+01  4.308608385E+01 -2.098666736E+02  2.621973813E+02  1.250000000E+02  0.00000E+00  9.000E+00
      25     1     1     2     0     0  4.782920245E+01 -4.937221200E+01 -8.611777383E+02  8.729131371E+02  1.250000000E+02  0.00000E+00  9.000E+00
      21     1     1     2   501   511  3.715335732E+01  6.286128147E+00 -4.782715869E+01  6.088780235E+01  9.536743164E-07  0.00000E+00  9.000E+00
#rwgt            1           1   3.9879257849051740E-002           6       13981           0
</event>
<event>
      5   9999  3.79277E-02  1.07002E+02 -1.00000E+00  1.22520E-01
      21    -1     0     0   502   501  0.000000000E+00  0.000000000E+00  7.635853939E+02  7.635853939E+02  0.000000000E+00  0.00000E+00  9.000E+00
      21    -1     0     0   501   512  0.000000000E+00  0.000000000E+00 -1.476959036E+02  1.476959036E+02  0.000000000E+00  0.00000E+00  9.000E+00
      25     1     1     2     0     0  1.454040058E+02  5.493539129E+01  5.259319074E+01  2.062795817E+02  1.250000000E+02  0.00000E+00  9.000E+00
      25     1     1     2     0     0 -1.571153060E+02  5.142344318E+01  5.609078300E+02  5.979733971E+02  1.250000000E+02  0.00000E+00  9.000E+00
      21     1     1     2   502   512  1.171130025E+01 -1.063588345E+02  2.388469581E+00  1.070283187E+02  1.723903997E-06  0.00000E+00  9.000E+00
#rwgt            1           1   3.7925426999042389E-002           6       14173           0
</event>
<event>
      5   9999  3.79277E-02  4.72551E+01 -1.00000E+00  1.40489E-01
      21    -1     0     0   502   501  0.000000000E+00  0.000000000E+00  1.819842677E+02  1.819842677E+02  0.000000000E+00  0.00000E+00  9.000E+00
      21    -1     0     0   501   511  0.000000000E+00  0.000000000E+00 -5.740324549E+02  5.740324549E+02  0.000000000E+00  0.00000E+00  9.000E+00
      25     1     1     2     0     0  2.044327352E+02 -1.413693739E+02 -2.872789618E+02  3.999152973E+02  1.250000000E+02  0.00000E+00  9.000E+00
      25     1     1     2     0     0 -1.966365357E+02  9.476180456E+01 -1.180182734E+01  2.518134426E+02  1.250000000E+02  0.00000E+00  9.000E+00
      21     1     1     2   502   511 -7.796199484E+00  4.660756936E+01 -9.296739802E+01  1.042879827E+02  1.348699152E-06  0.00000E+00  9.000E+00
#rwgt            1           1   3.9902032815396518E-002           6       14240           0
</event>
<event>
      5   9999  3.79277E-02  4.94214E+01 -1.00000E+00  1.39365E-01
       1    -1     0     0   502     0  0.000000000E+00  0.000000000E+00  8.797010887E+02  8.797010887E+02  0.000000000E+00  0.00000E+00  9.000E+00
      21    -1     0     0   501   502  0.000000000E+00  0.000000000E+00 -2.439389000E+02  2.439389000E+02  0.000000000E+00  0.00000E+00  9.000E+00
      25     1     1     2     0     0 -1.555174351E+02  1.603761235E+02  1.005821294E+02  2.750417029E+02  1.250000000E+02  0.00000E+00  9.000E+00
      25     1     1     2     0     0  1.776066921E+02 -2.045862468E+02 -1.255893457E+01  2.986342182E+02  1.250000000E+02  0.00000E+00  9.000E+00
       1     1     1     2   501     0 -2.208925697E+01  4.421012330E+01  5.477389938E+02  5.499640676E+02  7.629394531E-06  0.00000E+00  9.000E+00
#rwgt            1           1   1.8223974966446305E-002           6       14330           0
</event>
<event>
      5   9999  3.79277E-02  6.46981E+01 -1.00000E+00  1.32977E-01
       1    -1     0     0   502     0  0.000000000E+00  0.000000000E+00  1.297285822E+03  1.297285822E+03  0.000000000E+00  0.00000E+00  9.000E+00
      21    -1     0     0   501   502  0.000000000E+00  0.000000000E+00 -3.378179771E+01  3.378179771E+01  0.000000000E+00  0.00000E+00  9.000E+00
      25     1     1     2     0     0 -3.355868493E+01  3.798070335E+01  1.972086184E+02  2.389245872E+02  1.250000000E+02  0.00000E+00  9.000E+00
      25     1     1     2     0     0  9.700616801E+01 -2.532131730E+01  8.908959318E+02  9.051916521E+02  1.250000000E+02  0.00000E+00  9.000E+00
       1     1     1     2   501     0 -6.344748308E+01 -1.265938606E+01  1.753994745E+02  1.869513809E+02  3.303624740E-06  0.00000E+00  9.000E+00
#rwgt            1           1   5.2153742320879645E-002           6       14596           0
</event>
<event>
      5   9999  3.79277E-02  5.38610E+01 -1.00000E+00  1.37257E-01
      21    -1     0     0   502   501  0.000000000E+00  0.000000000E+00  1.070747107E+03  1.070747107E+03  0.000000000E+00  0.00000E+00  9.000E+00
      21    -1     0     0   511   502  0.000000000E+00  0.000000000E+00 -7.273701765E+01  7.273701765E+01  0.000000000E+00  0.00000E+00  9.000E+00
      25     1     1     2     0     0 -1.827971532E+02  6.352959948E+01  6.906288532E+02  7.280412228E+02  1.250000000E+02  0.00000E+00  9.000E+00
      25     1     1     2     0     0  1.406069028E+02 -3.004837562E+01  3.073161602E+02  3.615818418E+02  1.250000000E+02  0.00000E+00  9.000E+00
      21     1     1     2   511   501  4.219025043E+01 -3.348122386E+01  6.507620648E-02  5.386106031E+01  6.415900075E-07  0.00000E+00  9.000E+00
#rwgt            1           1   4.3087093766311632E-002           6       14665           0
</event>
<event>
      5   9999  3.79277E-02  3.13245E+01 -1.00000E+00  1.51748E-01
      21    -1     0     0   502   501  0.000000000E+00  0.000000000E+00  1.974342510E+02  1.974342510E+02  0.000000000E+00  0.00000E+00  9.000E+00
      21    -1     0     0   512   502  0.000000000E+00  0.000000000E+00 -6.495738006E+02  6.495738006E+02  0.000000000E+00  0.00000E+00  9.000E+00
      25     1     1     2     0     0  1.418270692E+02  1.641202510E+02 -2.053109930E+01  2.511909640E+02  1.250000000E+02  0.00000E+00  9.000E+00
      25     1     1     2     0     0 -1.159263659E+02 -1.817377408E+02 -1.094872192E+02  2.721763765E+02  1.250000000E+02  0.00000E+00  9.000E+00
      21     1     1     2   512   501 -2.590070327E+01  1.761748981E+01 -3.221212311E+02  3.236407112E+02  3.814697266E-06  0.00000E+00  9.000E+00
#rwgt            1           1   3.0552925907847490E-002           6       14766           0
</event>
<event>
      5   9999  3.79277E-02  4.66994E+01 -1.00000E+00  1.40789E-01
       2    -1     0     0   502     0  0.000000000E+00  0.000000000E+00  9.105642679E+02  9.105642679E+02  0.000000000E+00  0.00000E+00  9.000E+00
      21    -1     0     0   501   502  0.000000000E+00  0.000000000E+00 -1.151444969E+03  1.151444969E+03  0.000000000E+00  0.00000E+00  9.000E+00
      25     1     1     2     0     0 -8.033703391E+01  8.635697197E+01 -1.094680498E+03  1.108089328E+03  1.250000000E+02  0.00000E+00  9.000E+00
      25     1     1     2     0     0  3.436475631E+01 -7.814834336E+01  6.666409276E+01  1.654001249E+02  1.250000000E+02  0.00000E+00  9.000E+00
       2     1     1     2   501     0  4.597227760E+01 -8.208628612E+00  7.871357046E+02  7.885197838E+02  1.078959322E-05  0.00000E+00  9.000E+00
#rwgt            1           1   4.2904661147709203E-002           6       15042           0
</event>
<event>
      5   9999  3.79277E-02  1.22469E+02 -1.00000E+00  1.19994E-01
      21    -1     0     0   502   511  0.000000000E+00  0.000000000E+00  3.534797431E+02  3.534797431E+02  0.000000000E+00  0.00000E+00  9.000E+00
      21    -1     0     0   501   502  0.000000000E+00  0.000000000E+00 -6.845693555E+02  6.845693555E+02  0.000000000E+00  0.00000E+00  9.000E+00
      25     1     1     2     0     0 -3.077426203E+02  1.471799402E+01 -4.315851213E+02  5.448053383E+02  1.250000000E+02  0.00000E+00  9.000E+00
      25     1     1     2     0     0  2.394952013E+02  8.697270241E+01 -6.127103360E+01  2.903469338E+02  1.250000000E+02  0.00000E+00  9.000E+00
      21     1     1     2   501   511  6.824741908E+01 -1.016906964E+02  1.617665425E+02  2.028968265E+02  3.814697266E-06  0.00000E+00  9.000E+00
#rwgt            1           1   3.9000533438570253E-002           6       15190           0
</event>
<event>
      5   9999  3.79277E-02  1.17434E+02 -1.00000E+00  1.20768E-01
      21    -1     0     0   502   501  0.000000000E+00  0.000000000E+00  2.279844159E+03  2.279844159E+03  0.000000000E+00  0.00000E+00  9.000E+00
      21    -1     0     0   512   502  0.000000000E+00  0.000000000E+00 -5.709719361E+01  5.709719361E+01  0.000000000E+00  0.00000E+00  9.000E+00
      25     1     1     2     0     0 -1.029728879E+02  5.070426067E+01  1.494792205E+03  1.504394587E+03  1.250000000E+02  0.00000E+00  9.000E+00
      25     1     1     2     0     0  1.587221785E+01 -1.294705171E+02  6.835111945E+02  7.069845084E+02  1.250000000E+02  0.00000E+00  9.000E+00
      21     1     1     2   512   501  8.710067001E+01  7.876625643E+01  4.444356598E+01  1.255622572E+02  6.743495762E-07  0.00000E+00  9.000E+00
#rwgt            1           1  0.17821613513436135                6       15271           0
</event>
<event>
      5   9999  3.79277E-02  2.22371E+01 -1.00000E+00  1.62657E-01
      21    -1     0     0   502   501  0.000000000E+00  0.000000000E+00  1.119355567E+03  1.119355567E+03  0.000000000E+00  0.00000E+00  9.000E+00
      -3    -1     0     0     0   502  0.000000000E+00  0.000000000E+00 -8.859272349E+01  8.859272349E+01  0.000000000E+00  0.00000E+00  9.000E+00
      25     1     1     2     0     0 -4.447612351E+01 -4.155988885E+01  1.036495591E+03  1.045778877E+03  1.250000000E+02  0.00000E+00  9.000E+00
      25     1     1     2     0     0  2.249982618E+01  4.495571778E+01  9.735317514E+00  1.350815870E+02  1.250000000E+02  0.00000E+00  9.000E+00
      -3     1     1     2     0   501  2.197629733E+01 -3.395828934E+00 -1.546806497E+01  2.708782627E+01  8.259061849E-07  0.00000E+00  9.000E+00
#rwgt            1           1   4.3403173391902125E-002           6       15341           0
</event>
<event>
      5   9999  3.79277E-02  1.57491E+01 -1.00000E+00  1.75413E-01
      21    -1     0     0   502   501  0.000000000E+00  0.000000000E+00  3.606789836E+02  3.606789836E+02  0.000000000E+00  0.00000E+00  9.000E+00
      21    -1     0     0   511   502  0.000000000E+00  0.000000000E+00 -2.643387806E+02  2.643387806E+02  0.000000000E+00  0.00000E+00  9.000E+00
      25     1     1     2     0     0 -1.697033319E+02 -4.036002432E+00 -6.095825663E+01  2.194457091E+02  1.250000000E+02  0.00000E+00  9.000E+00
      25     1     1     2     0     0  1.853125193E+02  6.130282376E+00  2.361147905E+02  3.251976391E+02  1.250000000E+02  0.00000E+00  9.000E+00
      21     1     1     2   511   501 -1.560918740E+01 -2.094279944E+00 -7.881633087E+01  8.037441603E+01  0.000000000E+00  0.00000E+00  9.000E+00
#rwgt            1           1   2.7903030239964773E-002           6       15507           0
</event>
<event>
      5   9999  3.79277E-02  1.31055E+02 -1.00000E+00  1.18766E-01
      21    -1     0     0   502   501  0.000000000E+00  0.000000000E+00  2.513294566E+03  2.513294566E+03  0.000000000E+00  0.00000E+00  9.000E+00
      21    -1     0     0   512   502  0.000000000E+00  0.000000000E+00 -6.530016221E+01  6.530016221E+01  0.000000000E+00  0.00000E+00  9.000E+00
      25     1     1     2     0     0  1.921933202E+02 -7.365872782E+01  1.492967847E+03  1.512263823E+03  1.250000000E+02  0.00000E+00  9.000E+00
      25     1     1     2     0     0 -1.391104817E+02 -4.616448768E+01  9.062439708E+02  9.264912415E+02  1.250000000E+02  0.00000E+00  9.000E+00
      21     1     1     2   512   501 -5.308283848E+01  1.198232155E+02  4.878258650E+01  1.398396634E+02  3.754619538E-06  0.00000E+00  9.000E+00
#rwgt            1           1   6.4702514275133891E-002           6       15849           0
</event>
<event>
      5   9999  3.79277E-02  1.17458E+01 -1.00000E+00  1.88011E-01
      21    -1     0     0   502   501  0.000000000E+00  0.000000000E+00  1.479599423E+03  1.479599423E+03  0.000000000E+00  0.00000E+00  9.000E+00
      21    -1     0     0   501   511  0.000000000E+00  0.000000000E+00 -6.549582183E+01  6.549582183E+01  0.000000000E+00  0.00000E+00  9.000E+00
      25     1     1     2     0     0  1.015843136E+01  8.610618128E+01  1.472934585E+02  2.117494536E+02  1.250000000E+02  0.00000E+00  9.000E+00
      25     1     1     2     0     0 -2.172474058E+01 -8.815201444E+01  1.294281162E+03  1.303469013E+03  1.250000000E+02  0.00000E+00  9.000E+00
      21     1     1     2   502   511  1.156630922E+01  2.045833161E+00 -2.747101952E+01  2.987677786E+01  3.371747881E-07  0.00000E+00  9.000E+00
#rwgt            1           1   5.6446141931082425E-002           6       15881           0
</event>
<event>
      5   9999  3.79277E-02  9.01562E+01 -1.00000E+00  1.25887E-01
      21    -1     0     0   502   501  0.000000000E+00  0.000000000E+00  9.123600891E+01  9.123600891E+01  0.000000000E+00  0.00000E+00  9.000E+00
      -2    -1     0     0     0   502  0.000000000E+00  0.000000000E+00 -2.083444940E+03  2.083444940E+03  0.000000000E+00  0.00000E+00  9.000E+00
      25     1     1     2     0     0 -1.323549213E+02 -2.387054489E+01 -3.090299543E+01  1.861924360E+02  1.250000000E+02  0.00000E+00  9.000E+00
      25     1     1     2     0     0  4.282861794E+01  1.323224110E+01 -3.450703405E+02  3.697403449E+02  1.250000000E+02  0.00000E+00  9.000E+00
      -2     1     1     2     0   501  8.952630335E+01  1.063830379E+01 -1.616235595E+03  1.618748168E+03  0.000000000E+00  0.00000E+00  9.000E+00
#rwgt            1           1   4.9877801212425882E-002           6       16178           0
</event>
<event>
      5   9999 -3.79277E-02  2.84100E+01 -1.00000E+00  1.54701E-01
      21    -1     0     0   502   501  0.000000000E+00  0.000000000E+00  3.219288924E+01  3.219288924E+01  0.000000000E+00  0.00000E+00  9.000E+00
       1    -1     0     0   501     0  0.000000000E+00  0.000000000E+00 -1.727092037E+03  1.727092037E+03  0.000000000E+00  0.00000E+00  9.000E+00
      25     1     1     2     0     0 -1.159586426E+02  9.960555564E+01 -4.005212738E+02  4.465534282E+02  1.250000000E+02  0.00000E+00  9.000E+00
      25     1     1     2     0     0  8.884104302E+01 -9.113419598E+01 -9.109595307E+02  9.282620531E+02  1.250000000E+02  0.00000E+00  9.000E+00
       1     1     1     2   502     0  2.711759957E+01 -8.471359655E+00 -3.834183434E+02  3.844694451E+02  5.394796609E-06  0.00000E+00  9.000E+00
#rwgt            1           1  -5.1316075463812609E-002           6       16323           0
</event>
<event>
      5   9999  3.79277E-02  6.79243E+01 -1.00000E+00  1.31886E-01
      21    -1     0     0   502   501  0.000000000E+00  0.000000000E+00  5.470689470E+02  5.470689470E+02  0.000000000E+00  0.00000E+00  9.000E+00
      21    -1     0     0   511   502  0.000000000E+00  0.000000000E+00 -1.510286078E+02  1.510286078E+02  0.000000000E+00  0.00000E+00  9.000E+00
      25     1     1     2     0     0  1.495397693E+02  1.677222389E+02  2.128268748E+02  3.337861152E+02  1.250000000E+02  0.00000E+00  9.000E+00
      25     1     1     2     0     0 -1.805411949E+02 -1.072852605E+02  1.617541024E+02  2.930778733E+02  1.250000000E+02  0.00000E+00  9.000E+00
      21     1     1     2   511   501  3.100142565E+01 -6.043697840E+01  2.145936197E+01  7.123356629E+01  1.599360450E-06  0.00000E+00  9.000E+00
#rwgt            1           1   3.8534942573547747E-002           6       16469           0
</event>
<event>
      5   9999  3.79277E-02  2.02032E+01 -1.00000E+00  1.66008E-01
      21    -1     0     0   502   501  0.000000000E+00  0.000000000E+00  5.772034170E+02  5.772034170E+02  0.000000000E+00  0.00000E+00  9.000E+00
      21    -1     0     0   501   512  0.000000000E+00  0.000000000E+00 -5.594822054E+01  5.594822054E+01  0.000000000E+00  0.00000E+00  9.000E+00
      25     1     1     2     0     0 -1.058656079E+01  9.141110903E+01  3.280776908E+02  3.629435732E+02  1.250000000E+02  0.00000E+00  9.000E+00
      25     1     1     2     0     0  2.012203393E+01 -1.092224544E+02  1.818733761E+02  2.470574138E+02  1.250000000E+02  0.00000E+00  9.000E+00
      21     1     1     2   502   512 -9.535473136E+00  1.781134542E+01  1.130412961E+01  2.315065053E+01  4.298152060E-07  0.00000E+00  9.000E+00
#rwgt            1           1   4.2228934190283604E-002           6       16558           0
</event>
<event>
      5   9999  3.79277E-02  1.05517E+01 -1.00000E+00  1.93099E-01
      21    -1     0     0   502   501  0.000000000E+00  0.000000000E+00  1.303945052E+03  1.303945052E+03  0.000000000E+00  0.00000E+00  9.000E+00
      21    -1     0     0   511   502  0.000000000E+00  0.000000000E+00 -1.496619812E+02  1.496619812E+02  0.000000000E+00  0.00000E+00  9.000E+00
      25     1     1     2     0     0 -1.261874590E+02 -9.716027896E+01  1.100327188E+03  1.118797709E+03  1.250000000E+02  0.00000E+00  9.000E+00
      25     1     1     2     0     0  1.159164776E+02  9.474264155E+01  1.450801246E+02  2.430762030E+02  1.250000000E+02  0.00000E+00  9.000E+00
      21     1     1     2   511   501  1.027098134E+01  2.417637407E+00 -9.112424164E+01  9.173312075E+01  4.046097457E-06  0.00000E+00  9.000E+00
#rwgt            1           1   3.0766649986820480E-002           6       16701           0
</event>
<event>
      5   9999  3.79277E-02  1.38363E+02 -1.00000E+00  1.17801E-01
      21    -1     0     0   512   501  0.000000000E+00  0.000000000E+00  4.461829796E+02  4.461829796E+02  0.000000000E+00  0.00000E+00  9.000E+00
      21    -1     0     0   501   502  0.000000000E+00  0.000000000E+00 -2.255343952E+02  2.255343952E+02  0.000000000E+00  0.00000E+00  9.000E+00
      25     1     1     2     0     0 -1.720176195E+02 -1.243401845E+01 -1.052858307E+02  2.376021304E+02  1.250000000E+02  0.00000E+00  9.000E+00
      25     1     1     2     0     0  4.299636751E+01  6.241278808E+01  1.942056589E+02  2.430738194E+02  1.250000000E+02  0.00000E+00  9.000E+00
      21     1     1     2   512   502  1.290212520E+02 -4.997876963E+01  1.317287562E+02  1.910414250E+02  2.697398305E-06  0.00000E+00  9.000E+00
#rwgt            1           1   2.8130061389354952E-002           6       16905           0
</event>
<event>
      5   9999  3.79277E-02  2.79877E+01 -1.00000E+00  1.55164E-01
      21    -1     0     0   502   501  0.000000000E+00  0.000000000E+00  6.200842249E+01  6.200842249E+01  0.000000000E+00  0.00000E+00  9.000E+00
      21    -1     0     0   511   502  0.000000000E+00  0.000000000E+00 -4.152315894E+02  4.152315894E+02  0.000000000E+00  0.00000E+00  9.000E+00
      25     1     1     2     0     0 -8.470570176E+00 -3.355457485E+00 -2.384355877E+02  2.693687790E+02  1.250000000E+02  0.00000E+00  9.000E+00
      25     1     1     2     0     0 -1.038492572E+01  2.403827754E+01 -4.973884201E+01  1.370570606E+02  1.250000000E+02  0.00000E+00  9.000E+00
      21     1     1     2   511   501  1.885549589E+01 -2.068282005E+01 -6.504873729E+01  7.081417226E+01  9.536743164E-07  0.00000E+00  9.000E+00
#rwgt            1           1   7.1633456190049474E-002           6       17058           0
</event>
<event>
      5   9999  3.79277E-02  3.43113E+01 -1.00000E+00  1.49097E-01
      21    -1     0     0   502   501  0.000000000E+00  0.000000000E+00  3.685483015E+03  3.685483015E+03  0.000000000E+00  0.00000E+00  9.000E+00
      21    -1     0     0   512   502  0.000000000E+00  0.000000000E+00 -1.369322937E+01  1.369322937E+01  0.000000000E+00  0.00000E+00  9.000E+00
      25     1     1     2     0     0 -2.919135236E+01  7.198267308E+01  2.881114772E+03  2.884871049E+03  1.250000000E+02  0.00000E+00  9.000E+00
      25     1     1     2     0     0  6.288045406E+01 -7.848751857E+01  6.515481095E+02  6.710098219E+02  1.250000000E+02  0.00000E+00  9.000E+00
      21     1     1     2   512   501 -3.368910170E+01  6.504845495E+00  1.391269040E+02  1.432953733E+02  3.814697266E-06  0.00000E+00  9.000E+00
#rwgt            1           1   9.8575693165572006E-003           6       17202           0
</event>
<event>
      5   9999  3.79277E-02  5.45772E+01 -1.00000E+00  1.36939E-01
      21    -1     0     0   511   501  0.000000000E+00  0.000000000E+00  8.255089000E+02  8.255089000E+02  0.000000000E+00  0.00000E+00  9.000E+00
      21    -1     0     0   501   502  0.000000000E+00  0.000000000E+00 -1.801001936E+02  1.801001936E+02  0.000000000E+00  0.00000E+00  9.000E+00
      25     1     1     2     0     0 -3.165884648E+01  1.179748506E+02 -1.019265961E+02  2.023224627E+02  1.250000000E+02  0.00000E+00  9.000E+00
      25     1     1     2     0     0  5.783509353E+00 -1.660283162E+02  3.913917951E+02  4.431832443E+02  1.250000000E+02  0.00000E+00  9.000E+00
      21     1     1     2   511   502  2.587533713E+01  4.805346558E+01  3.559435073E+02  3.601033866E+02  0.000000000E+00  0.00000E+00  9.000E+00
#rwgt            1           1   4.9264971817983359E-002           6       17397           0
</event>
<event>
      5   9999  3.79277E-02  6.39092E+01 -1.00000E+00  1.33255E-01
      21    -1     0     0   502   501  0.000000000E+00  0.000000000E+00  8.402006677E+02  8.402006677E+02  0.000000000E+00  0.00000E+00  9.000E+00
      21    -1     0     0   501   512  0.000000000E+00  0.000000000E+00 -2.347570731E+02  2.347570731E+02  0.000000000E+00  0.00000E+00  9.000E+00
      25     1     1     2     0     0 -2.145522670E+02  3.141278150E+01  7.207238551E+02  7.629464683E+02  1.250000000E+02  0.00000E+00  9.000E+00
      25     1     1     2     0     0  1.568068207E+02 -5.879621100E+01 -1.304208768E+02  2.463330643E+02  1.250000000E+02  0.00000E+00  9.000E+00
      21     1     1     2   502   512  5.774544623E+01  2.738342950E+01  1.514061626E+01  6.567820820E+01  5.331201500E-07  0.00000E+00  9.000E+00
#rwgt            1           1   5.3854145387839628E-002           6       17624           0
</event>
<event>
      5   9999  3.79277E-02  2.05574E+02 -1.00000E+00  1.11215E-01
      21    -1     0     0   502   511  0.000000000E+00  0.000000000E+00  5.677245299E+02  5.677245299E+02  0.000000000E+00  0.00000E+00  9.000E+00
      21    -1     0     0   501   502  0.000000000E+00  0.000000000E+00 -3.577677279E+02  3.577677279E+02  0.000000000E+00  0.00000E+00  9.000E+00
      25     1     1     2     0     0  1.084756473E+02  1.707974570E+02 -5.970300731E-01  2.378320706E+02  1.250000000E+02  0.00000E+00  9.000E+00
      25     1     1     2     0     0  9.589596746E+01 -1.929958396E+02 -1.366581600E+02  2.841546821E+02  1.250000000E+02  0.00000E+00  9.000E+00
      21     1     1     2   501   511 -2.043716148E+02  2.219838255E+01  3.472119921E+02  4.035055050E+02  5.394796609E-06  0.00000E+00  9.000E+00
#rwgt            1           1  0.14653155847753455                6       17707           0
</event>
<event>
      5   9999  3.79277E-02  1.59920E+01 -1.00000E+00  1.74803E-01
      21    -1     0     0   502   501  0.000000000E+00  0.000000000E+00  1.295793056E+02  1.295793056E+02  0.000000000E+00  0.00000E+00  9.000E+00
      21    -1     0     0   512   502  0.000000000E+00  0.000000000E+00 -5.133117573E+02  5.133117573E+02  0.000000000E+00  0.00000E+00  9.000E+00
      25     1     1     2     0     0 -1.300008862E+02  4.397243776E+01 -3.340157760E+02  3.821326266E+02  1.250000000E+02  0.00000E+00  9.000E+00
      25     1     1     2     0     0  1.141096416E+02 -4.576432198E+01  3.136673133E+01  1.781130408E+02  1.250000000E+02  0.00000E+00  9.000E+00
      21     1     1     2   512   501  1.589124454E+01  1.791884218E+00 -8.108340703E+01  8.264539550E+01  1.348699152E-06  0.00000E+00  9.000E+00
#rwgt            1           1   3.5083849138356292E-002           6       17813           0
</event>
<event>
      5   9999  3.79277E-02  3.87304E+01 -1.00000E+00  1.45714E-01
      21    -1     0     0   502   501  0.000000000E+00  0.000000000E+00  1.518618792E+02  1.518618792E+02  0.000000000E+00  0.00000E+00  9.000E+00
      -1    -1     0     0     0   502  0.000000000E+00  0.000000000E+00 -4.644763903E+02  4.644763903E+02  0.000000000E+00  0.00000E+00  9.000E+00
      25     1     1     2     0     0  2.951659189E+01  1.862666722E+02 -3.831607341E+00  2.262878335E+02  1.250000000E+02  0.00000E+00  9.000E+00
      25     1     1     2     0     0 -2.424401550E+01 -1.478968097E+02 -2.256327304E+02  2.983225898E+02  1.250000000E+02  0.00000E+00  9.000E+00
      -1     1     1     2     0   501 -5.272576386E+00 -3.836986256E+01 -8.315017341E+01  9.172784611E+01  1.348699152E-06  0.00000E+00  9.000E+00
#rwgt            1           1   4.0739838004882171E-002           6       18116           0
</event>
<event>
      5   9999  3.79277E-02  6.16264E+01 -1.00000E+00  1.34086E-01
      21    -1     0     0   502   501  0.000000000E+00  0.000000000E+00  6.781583070E+02  6.781583070E+02  0.000000000E+00  0.00000E+00  9.000E+00
      21    -1     0     0   501   511  0.000000000E+00  0.000000000E+00 -7.372676822E+01  7.372676822E+01  0.000000000E+00  0.00000E+00  9.000E+00
      25     1     1     2     0     0 -7.285971741E+01  5.571082562E+01  2.312887178E+02  2.784451570E+02  1.250000000E+02  0.00000E+00  9.000E+00
      25     1     1     2     0     0  5.054628101E+01  1.734148448E+00  3.873903177E+02  4.101879960E+02  1.250000000E+02  0.00000E+00  9.000E+00
      21     1     1     2   502   511  2.231343640E+01 -5.744497407E+01 -1.424749676E+01  6.325192213E+01  1.261592536E-06  0.00000E+00  9.000E+00
#rwgt            1           1   9.0556689959193026E-002           6       18263           0
</event>
<event>
      5   9999 -3.79277E-02  2.13770E+01 -1.00000E+00  1.64018E-01
      21    -1     0     0   502   512  0.000000000E+00  0.000000000E+00  6.248101224E+02  6.248101224E+02  0.000000000E+00  0.00000E+00  9.000E+00
      21    -1     0     0   501   502  0.000000000E+00  0.000000000E+00 -9.515573518E+01  9.515573518E+01  0.000000000E+00  0.00000E+00  9.000E+00
      25     1     1     2     0     0  6.307106098E+00 -1.876003275E+02  1.976693451E+02  2.998863659E+02  1.250000000E+02  0.00000E+00  9.000E+00
      25     1     1     2     0     0  1.347216417E+01  1.957093253E+02  2.809525790E+02  3.647505872E+02  1.250000000E+02  0.00000E+00  9.000E+00
      21     1     1     2   501   512 -1.977927026E+01 -8.108997810E+00  5.103246303E+01  5.532890439E+01  6.743495762E-07  0.00000E+00  9.000E+00
#rwgt            1           1 -0.15561209945735133                6       18327           0
</event>
<event>
      5   9999  3.79277E-02  5.16103E+01 -1.00000E+00  1.38295E-01
      21    -1     0     0   502   501  0.000000000E+00  0.000000000E+00  1.416261186E+03  1.416261186E+03  0.000000000E+00  0.00000E+00  9.000E+00
      21    -1     0     0   511   502  0.000000000E+00  0.000000000E+00 -7.235135114E+01  7.235135114E+01  0.000000000E+00  0.00000E+00  9.000E+00
      25     1     1     2     0     0 -9.525244956E+01  9.044488558E+01  1.051453504E+03  1.066973654E+03  1.250000000E+02  0.00000E+00  9.000E+00
      25     1     1     2     0     0  5.257819549E+01 -1.194712953E+02  3.166836193E+02  3.646249741E+02  1.250000000E+02  0.00000E+00  9.000E+00
      21     1     1     2   511   501  4.267425408E+01  2.902640970E+01 -2.422728803E+01  5.701390976E+01  2.185142372E-06  0.00000E+00  9.000E+00
#rwgt            1           1   4.5079818991200359E-002           6       18701           0
</event>
<event>
      5   9999  3.79277E-02  1.99514E+01 -1.00000E+00  1.66456E-01
      21    -1     0     0   502   501  0.000000000E+00  0.000000000E+00  8.256382333E+02  8.256382333E+02  0.000000000E+00  0.00000E+00  9.000E+00
      21    -1     0     0   512   502  0.000000000E+00  0.000000000E+00 -1.780759545E+02  1.780759545E+02  0.000000000E+00  0.00000E+00  9.000E+00
      25     1     1     2     0     0 -6.139349671E+01 -2.217462898E+02  6.854628768E+02  7.337744435E+02  1.250000000E+02  0.00000E+00  9.000E+00
      25     1     1     2     0     0  5.998669722E+01  2.018445101E+02 -4.457669104E+01  2.489009672E+02  1.250000000E+02  0.00000E+00  9.000E+00
      21     1     1     2   512   501  1.406799493E+00  1.990177969E+01  6.676093026E+00  2.103877700E+01  2.384185791E-07  0.00000E+00  9.000E+00
#rwgt            1           1   3.6273081106197154E-002           6       18806           0
</event>
<event>
      5   9999  3.79277E-02  1.01894E+01 -1.00000E+00  1.94820E-01
      21    -1     0     0   502   501  0.000000000E+00  0.000000000E+00  1.596244772E+02  1.596244772E+02  0.000000000E+00  0.00000E+00  9.000E+00
      21    -1     0     0   501   511  0.000000000E+00  0.000000000E+00 -2.177768452E+02  2.177768452E+02  0.000000000E+00  0.00000E+00  9.000E+00
      25     1     1     2     0     0 -3.775104524E+01  2.333964295E+00 -1.295365709E+02  1.839437740E+02  1.250000000E+02  0.00000E+00  9.000E+00
      25     1     1     2     0     0  4.752993338E+01  5.291996716E-01  9.744951406E+01  1.654713945E+02  1.250000000E+02  0.00000E+00  9.000E+00
      21     1     1     2   502   511 -9.778888134E+00 -2.863163967E+00 -2.606531111E+01  2.798615379E+01  0.000000000E+00  0.00000E+00  9.000E+00
#rwgt            1           1   4.8384265226116142E-002           6       19113           0
</event>
<event>
      5   9999  3.79277E-02  7.08614E+01 -1.00000E+00  1.30952E-01
      21    -1     0     0   512   501  0.000000000E+00  0.000000000E+00  1.000709872E+02  1.000709872E+02  0.000000000E+00  0.00000E+00  9.000E+00
      21    -1     0     0   501   502  0.000000000E+00  0.000000000E+00 -5.126848142E+02  5.126848142E+02  0.000000000E+00  0.00000E+00  9.000E+00
      25     1     1     2     0     0 -7.826897048E+01  8.788216946E+01 -2.232979012E+02  2.816669312E+02  1.250000000E+02  0.00000E+00  9.000E+00
      25     1     1     2     0     0  4.448529782E+01 -1.501718122E+02 -1.473648123E+02  2.487406337E+02  1.250000000E+02  0.00000E+00  9.000E+00
      21     1     1     2   512   502  3.378367266E+01  6.228964279E+01 -4.195111353E+01  8.234823656E+01  1.168007728E-06  0.00000E+00  9.000E+00
#rwgt            1           1   2.8543156465350307E-002           6       19430           0
</event>
<event>
      5   9999  3.79277E-02  1.78401E+01 -1.00000E+00  1.70571E-01
      21    -1     0     0   502   501  0.000000000E+00  0.000000000E+00  1.044707225E+03  1.044707225E+03  0.000000000E+00  0.00000E+00  9.000E+00
      21    -1     0     0   501   511  0.000000000E+00  0.000000000E+00 -1.238725170E+02  1.238725170E+02  0.000000000E+00  0.00000E+00  9.000E+00
      25     1     1     2     0     0  1.474761260E+01 -1.984208142E+02  9.402442055E+01  2.530887261E+02  1.250000000E+02  0.00000E+00  9.000E+00
      25     1     1     2     0     0 -1.441598488E+01  1.805837587E+02  8.545889760E+02  8.824769870E+02  1.250000000E+02  0.00000E+00  9.000E+00
      21     1     1     2   502   511 -3.316277252E-01  1.783705551E+01 -2.777868895E+01  3.301402862E+01  1.168007728E-06  0.00000E+00  9.000E+00
#rwgt            1           1   2.7306721514472203E-002           6       19521           0
</event>
<event>
      5   9999  3.79277E-02  1.46896E+02 -1.00000E+00  1.16755E-01
      21    -1     0     0   502   501  0.000000000E+00  0.000000000E+00  2.124983772E+02  2.124983772E+02  0.000000000E+00  0.00000E+00  9.000E+00
      21    -1     0     0   512   502  0.000000000E+00  0.000000000E+00 -1.019382965E+03  1.019382965E+03  0.000000000E+00  0.00000E+00  9.000E+00
      25     1     1     2     0     0 -2.297054322E+01 -1.439371855E+02  8.056256885E+01  2.082327706E+02  1.250000000E+02  0.00000E+00  9.000E+00
      25     1     1     2     0     0  1.640673152E+02  1.030699894E+02 -1.579057914E+02  2.794651062E+02  1.250000000E+02  0.00000E+00  9.000E+00
      21     1     1     2   512   501 -1.410967720E+02  4.086719615E+01 -7.295413656E+02  7.441834659E+02  1.078959322E-05  0.00000E+00  9.000E+00
#rwgt            1           1   3.7841562000405761E-002           6       19781           0
</event>
<event>
      5   9999 -3.79277E-02  1.98755E+01 -1.00000E+00  1.66593E-01
      21    -1     0     0   511   501  0.000000000E+00  0.000000000E+00  4.113241782E+02  4.113241782E+02  0.000000000E+00  0.00000E+00  9.000E+00
      21    -1     0     0   501   502  0.000000000E+00  0.000000000E+00 -1.407522829E+02  1.407522829E+02  0.000000000E+00  0.00000E+00  9.000E+00
      25     1     1     2     0     0 -1.719723135E+02 -1.344373784E+01  1.838546736E+02  2.813942993E+02  1.250000000E+02  0.00000E+00  9.000E+00
      25     1     1     2     0     0  1.826470604E+02 -3.321865014E+00  4.702298879E+01  2.262899577E+02  1.250000000E+02  0.00000E+00  9.000E+00
      21     1     1     2   511   502 -1.067474694E+01  1.676560286E+01  3.969423289E+01  4.439220411E+01  8.259061849E-07  0.00000E+00  9.000E+00
#rwgt            1           1 -0.18224189979785299                6       19867           0
</event>
<event>
      5   9999  3.79277E-02  9.73456E+01 -1.00000E+00  1.24356E-01
      21    -1     0     0   502   501  0.000000000E+00  0.000000000E+00  4.035000783E+01  4.035000783E+01  0.000000000E+00  0.00000E+00  9.000E+00
       2    -1     0     0   501     0  0.000000000E+00  0.000000000E+00 -2.660389133E+03  2.660389133E+03  0.000000000E+00  0.00000E+00  9.000E+00
      25     1     1     2     0     0  1.454544259E+02 -1.240617462E+01 -3.256464559E+02  3.781289693E+02  1.250000000E+02  0.00000E+00  9.000E+00
      25     1     1     2     0     0 -4.925936938E+01  2.732836956E+01 -3.516996853E+02  3.774797927E+02  1.250000000E+02  0.00000E+00  9.000E+00
       2     1     1     2   502     0 -9.619505649E+01 -1.492219494E+01 -1.942692984E+03  1.945130379E+03  0.000000000E+00  0.00000E+00  9.000E+00
#rwgt            1           1   5.9437628179924401E-002           6       20020           0
</event>
<event>
      5   9999  3.79277E-02  2.44924E+01 -1.00000E+00  1.59421E-01
      21    -1     0     0   502   511  0.000000000E+00  0.000000000E+00  1.492641634E+03  1.492641634E+03  0.000000000E+00  0.00000E+00  9.000E+00
      21    -1     0     0   501   502  0.000000000E+00  0.000000000E+00 -2.002780693E+02  2.002780693E+02  0.000000000E+00  0.00000E+00  9.000E+00
      25     1     1     2     0     0 -1.865635682E+02  2.700127672E+02  1.395824825E+02  3.779168279E+02  1.250000000E+02  0.00000E+00  9.000E+00
      25     1     1     2     0     0  2.018950063E+02 -2.509123538E+02  2.876909779E+02  4.495661260E+02  1.250000000E+02  0.00000E+00  9.000E+00
      21     1     1     2   501   511 -1.533143811E+01 -1.910041347E+01  8.650901043E+02  8.654367495E+02  1.525878906E-05  0.00000E+00  9.000E+00
#rwgt            1           1   7.7234648862296557E-002           6       20075           0
</event>
<event>
      5   9999  3.79277E-02  6.53690E+01 -1.00000E+00  1.32744E-01
      21    -1     0     0   512   501  0.000000000E+00  0.000000000E+00  1.063315321E+02  1.063315321E+02  0.000000000E+00  0.00000E+00  9.000E+00
      21    -1     0     0   501   502  0.000000000E+00  0.000000000E+00 -6.969888757E+02  6.969888757E+02  0.000000000E+00  0.00000E+00  9.000E+00
      25     1     1     2     0     0 -1.842481269E+01 -1.323064956E+02 -2.373959422E+02  2.997103867E+02  1.250000000E+02  0.00000E+00  9.000E+00
      25     1     1     2     0     0  6.182930434E+01  1.811855207E+02 -3.710738276E+02  4.358575929E+02  1.250000000E+02  0.00000E+00  9.000E+00
      21     1     1     2   512   502 -4.340449165E+01 -4.887902512E+01  1.781242620E+01  6.775242815E+01  1.390207266E-06  0.00000E+00  9.000E+00
#rwgt            1           1   4.1639423881879745E-002           6       20220           0
</event>
<event>
      5   9999  3.79277E-02  4.77556E+01 -1.00000E+00  1.40223E-01
      21    -1     0     0   502   501  0.000000000E+00  0.000000000E+00  2.698074823E+02  2.698074823E+02  0.000000000E+00  0.00000E+00  9.000E+00
      21    -1     0     0   501   511  0.000000000E+00  0.000000000E+00 -2.979393023E+02  2.979393023E+02  0.000000000E+00  0.00000E+00  9.000E+00
      25     1     1     2     0     0  1.350521703E+02 -7.726925440E+01 -4.606099634E+01  2.048322283E+02  1.250000000E+02  0.00000E+00  9.000E+00
      25     1     1     2     0     0 -9.174333351E+01  5.714603504E+01  1.495650385E+02  2.228838471E+02  1.250000000E+02  0.00000E+00  9.000E+00
      21     1     1     2   502   511 -4.330883677E+01  2.012321936E+01 -1.316358622E+02  1.400307092E+02  1.907348633E-06  0.00000E+00  9.000E+00
#rwgt            1           1   3.5892586481589148E-002           6       20537           0
</event>
<event>
      5   9999  3.79277E-02  4.79542E+01 -1.00000E+00  1.40119E-01
      21    -1     0     0   512   501  0.000000000E+00  0.000000000E+00  8.632238061E+02  8.632238061E+02  0.000000000E+00  0.00000E+00  9.000E+00
      21    -1     0     0   501   502  0.000000000E+00  0.000000000E+00 -5.563556032E+01  5.563556032E+01  0.000000000E+00  0.00000E+00  9.000E+00
      25     1     1     2     0     0 -9.591288506E+01  9.799641943E+01  2.415282002E+02  3.045709297E+02  1.250000000E+02  0.00000E+00  9.000E+00
      25     1     1     2     0     0  6.066965144E+01 -1.305159583E+02  4.503862159E+02  4.890684671E+02  1.250000000E+02  0.00000E+00  9.000E+00
      21     1     1     2   512   502  3.524323363E+01  3.251953890E+01  1.156738296E+02  1.252199696E+02  1.348699152E-06  0.00000E+00  9.000E+00
#rwgt            1           1   3.3980737905204686E-002           6       20744           0
</event>
<event>
      5   9999  3.79277E-02  5.90728E+01 -1.00000E+00  1.35066E-01
      21    -1     0     0   502   501  0.000000000E+00  0.000000000E+00  1.366194242E+02  1.366194242E+02  0.000000000E+00  0.00000E+00  9.000E+00
      21    -1     0     0   501   511  0.000000000E+00  0.000000000E+00 -4.715118117E+02  4.715118117E+02  0.000000000E+00  0.00000E+00  9.000E+00
      25     1     1     2     0     0  7.065616946E+01 -1.657675760E+02 -3.025885115E+01  2.213860466E+02  1.250000000E+02  0.00000E+00  9.000E+00
      25     1     1     2     0     0 -6.897668377E+01  1.067187022E+02 -2.431071183E+02  3.014510495E+02  1.250000000E+02  0.00000E+00  9.000E+00
      21     1     1     2   502   511 -1.679485688E+00  5.904887386E+01 -6.152641801E+01  8.529413983E+01  1.507891493E-06  0.00000E+00  9.000E+00
#rwgt            1           1   4.3774011068585916E-002           6       20889           0
</event>
<event>
      5   9999 -3.79277E-02  3.09167E+01 -1.00000E+00  1.52137E-01
      21    -1     0     0   512   501  0.000000000E+00  0.000000000E+00  4.695091619E+02  4.695091619E+02  0.000000000E+00  0.00000E+00  9.000E+00
      21    -1     0     0   501   502  0.000000000E+00  0.000000000E+00 -1.097015007E+02  1.097015007E+02  0.000000000E+00  0.00000E+00  9.000E+00
      25     1     1     2     0     0 -5.589124637E+01 -1.465776137E+02  9.334740530E+01  2.212409689E+02  1.250000000E+02  0.00000E+00  9.000E+00
      25     1     1     2     0     0  3.004000165E+01  1.635351316E+02  2.282717929E+02  3.088351541E+02  1.250000000E+02  0.00000E+00  9.000E+00
      21     1     1     2   512   502  2.585124471E+01 -1.695751791E+01  3.818846298E+01  4.913453950E+01  4.768371582E-07  0.00000E+00  9.000E+00
#rwgt            1           1  -9.5242498096045125E-002           6       21252           0
</event>
<event>
      5   9999  3.79277E-02  4.08591E+01 -1.00000E+00  1.44270E-01
      21    -1     0     0   502   511  0.000000000E+00  0.000000000E+00  2.193836882E+02  2.193836882E+02  0.000000000E+00  0.00000E+00  9.000E+00
      21    -1     0     0   501   502  0.000000000E+00  0.000000000E+00 -8.216119623E+02  8.216119623E+02  0.000000000E+00  0.00000E+00  9.000E+00
      25     1     1     2     0     0  3.683792344E+02 -7.485374917E+01 -3.292286329E+02  5.150949785E+02  1.250000000E+02  0.00000E+00  9.000E+00
      25     1     1     2     0     0 -3.523928560E+02  3.725187600E+01 -2.966032890E+02  4.787138376E+02  1.250000000E+02  0.00000E+00  9.000E+00
      21     1     1     2   501   511 -1.598637840E+01  3.760187317E+01  2.360364773E+01  4.718683446E+01  1.066240300E-06  0.00000E+00  9.000E+00
#rwgt            1           1   6.5520194211654628E-002           6       21430           0
</event>
<event>
      5   9999  3.79277E-02  3.70788E+01 -1.00000E+00  1.46913E-01
      21    -1     0     0   502   501  0.000000000E+00  0.000000000E+00  1.561393248E+02  1.561393248E+02  0.000000000E+00  0.00000E+00  9.000E+00
      21    -1     0     0   501   512  0.000000000E+00  0.000000000E+00 -6.777416367E+02  6.777416367E+02  0.000000000E+00  0.00000E+00  9.000E+00
      25     1     1     2     0     0  1.498021284E+02  1.982508939E+02 -7.280449420E+01  2.875231973E+02  1.250000000E+02  0.00000E+00  9.000E+00
      25     1     1     2     0     0 -1.222680352E+02 -1.734171765E+02 -2.771732965E+02  3.707735506E+02  1.250000000E+02  0.00000E+00  9.000E+00
      21     1     1     2   502   512 -2.753409320E+01 -2.483371736E+01 -1.716245212E+02  1.755842136E+02  1.907348633E-06  0.00000E+00  9.000E+00
#rwgt            1           1   2.4110981976309172E-002           6       21671           0
</event>
<event>
      5   9999  3.79277E-02  1.71674E+01 -1.00000E+00  1.72034E-01
      21    -1     0     0   502   501  0.000000000E+00  0.000000000E+00  1.262911439E+02  1.262911439E+02  0.000000000E+00  0.00000E+00  9.000E+00
      21    -1     0     0   511   502  0.000000000E+00  0.000000000E+00 -3.019985311E+02  3.019985311E+02  0.000000000E+00  0.00000E+00  9.000E+00
      25     1     1     2     0     0  3.339471354E+01 -6.174964185E+01 -1.965594416E+02  2.432875650E+02  1.250000000E+02  0.00000E+00  9.000E+00
      25     1     1     2     0     0 -3.162404502E+01  7.882546147E+01  4.286555532E+01  1.570859301E+02  1.250000000E+02  0.00000E+00  9.000E+00
      21     1     1     2   511   501 -1.770668519E+00 -1.707581962E+01 -2.201350084E+01  2.791617993E+01  5.331201500E-07  0.00000E+00  9.000E+00
#rwgt            1           1   3.3368799912206946E-002           6       21822           0
</event>
<event>
      5   9999  3.79277E-02  1.15090E+01 -1.00000E+00  1.88956E-01
      21    -1     0     0   502   512  0.000000000E+00  0.000000000E+00  1.451910636E+02  1.451910636E+02  0.000000000E+00  0.00000E+00  9.000E+00
      21    -1     0     0   501   502  0.000000000E+00  0.000000000E+00 -5.798921396E+02  5.798921396E+02  0.000000000E+00  0.00000E+00  9.000E+00
      25     1     1     2     0     0  2.399301900E+02  3.811731273E+01 -1.543219106E+02  3.137828512E+02  1.250000000E+02  0.00000E+00  9.000E+00
      25     1     1     2     0     0 -2.514223499E+02 -3.749469217E+01 -2.819618287E+02  3.996830279E+02  1.250000000E+02  0.00000E+00  9.000E+00
      21     1     1     2   501   512  1.149215993E+01 -6.226205604E-01  1.582663270E+00  1.161732410E+01  3.588674837E-07  0.00000E+00  9.000E+00
#rwgt            1           1   3.4228644999473895E-002           6       21971           0
</event>
<event>
      5   9999  3.79277E-02  8.40836E+01 -1.00000E+00  1.27312E-01
      21    -1     0     0   502   501  0.000000000E+00  0.000000000E+00  4.962609695E+02  4.962609695E+02  0.000000000E+00  0.00000E+00  9.000E+00
      -1    -1     0     0     0   502  0.000000000E+00  0.000000000E+00 -1.707660987E+02  1.707660987E+02  0.000000000E+00  0.00000E+00  9.000E+00
      25     1     1     2     0     0 -6.668714852E+01 -5.542138983E+01 -1.801099680E+00  1.521412179E+02  1.250000000E+02  0.00000E+00  9.000E+00
      25     1     1     2     0     0  1.294604909E+02  1.113638309E+02  3.656428531E+02  4.224708482E+02  1.250000000E+02  0.00000E+00  9.000E+00
      -1     1     1     2     0   501 -6.277334234E+01 -5.594244103E+01 -3.834688261E+01  9.241500215E+01  2.286830675E-06  0.00000E+00  9.000E+00
#rwgt            2          10   2.2370109049610383E-005           6       22253           0
</event>
<event>
      5   9999  3.79277E-02  7.25545E+01 -1.00000E+00  1.30437E-01
      21    -1     0     0   502   501  0.000000000E+00  0.000000000E+00  1.237963725E+02  1.237963725E+02  0.000000000E+00  0.00000E+00  9.000E+00
      -1    -1     0     0     0   502  0.000000000E+00  0.000000000E+00 -9.165748654E+02  9.165748654E+02  0.000000000E+00  0.00000E+00  9.000E+00
      25     1     1     2     0     0 -2.682026672E+01 -1.590790939E+02 -6.586601144E+02  6.895532112E+02  1.250000000E+02  0.00000E+00  9.000E+00
      25     1     1     2     0     0  9.485459552E+01  1.338703789E+02 -9.332272573E+00  2.064721869E+02  1.250000000E+02  0.00000E+00  9.000E+00
      -1     1     1     2     0   501 -6.803432880E+01  2.520871498E+01 -1.247861059E+02  1.443458397E+02  1.907348633E-06  0.00000E+00  9.000E+00
#rwgt            1           1   4.4391212186319293E-002           6       22272           0
</event>
<event>
      5   9999  3.79277E-02  3.40608E+01 -1.00000E+00  1.49307E-01
      21    -1     0     0   502   501  0.000000000E+00  0.000000000E+00  9.004510302E+02  9.004510302E+02  0.000000000E+00  0.00000E+00  9.000E+00
      21    -1     0     0   501   511  0.000000000E+00  0.000000000E+00 -5.723963232E+02  5.723963232E+02  0.000000000E+00  0.00000E+00  9.000E+00
      25     1     1     2     0     0 -1.900326488E+02 -7.665404744E+01  6.051954183E+02  6.510566373E+02  1.250000000E+02  0.00000E+00  9.000E+00
      25     1     1     2     0     0  2.086776073E+02  4.814965399E+01  2.151654861E+02  3.283076596E+02  1.250000000E+02  0.00000E+00  9.000E+00
      21     1     1     2   502   511 -1.864495850E+01  2.850439345E+01 -4.923061975E+02  4.934830564E+02  5.394796609E-06  0.00000E+00  9.000E+00
#rwgt            1           1   2.7942303693221694E-002           6       22348           0
</event>
<event>
      5   9999  3.79277E-02  5.22751E+01 -1.00000E+00  1.37982E-01
      21    -1     0     0   502   501  0.000000000E+00  0.000000000E+00  1.808293845E+03  1.808293845E+03  0.000000000E+00  0.00000E+00  9.000E+00
      21    -1     0     0   512   502  0.000000000E+00  0.000000000E+00 -3.711266889E+01  3.711266889E+01  0.000000000E+00  0.00000E+00  9.000E+00
      25     1     1     2     0     0  1.097423500E+02 -1.049053080E+02  7.915210870E+02  8.155851508E+02  1.250000000E+02  0.00000E+00  9.000E+00
      25     1     1     2     0     0 -1.397140996E+02  6.207568082E+01  9.487646532E+02  9.690989563E+02  1.250000000E+02  0.00000E+00  9.000E+00
      21     1     1     2   512   501  2.997174958E+01  4.282962717E+01  3.089543590E+01  6.072240687E+01  2.236564522E-06  0.00000E+00  9.000E+00
#rwgt            1           1   3.2590374330640312E-002           6       22547           0
</event>
<event>
      5   9999  3.79277E-02  5.62556E+01 -1.00000E+00  1.36216E-01
       2    -1     0     0   502     0  0.000000000E+00  0.000000000E+00  1.428111602E+03  1.428111602E+03  0.000000000E+00  0.00000E+00  9.000E+00
      21    -1     0     0   501   502  0.000000000E+00  0.000000000E+00 -4.092165862E+02  4.092165862E+02  0.000000000E+00  0.00000E+00  9.000E+00
      25     1     1     2     0     0 -2.123701864E+01 -3.979072174E+01 -3.823037409E+01  1.382782485E+02  1.250000000E+02  0.00000E+00  9.000E+00
      25     1     1     2     0     0  3.474530664E+01 -1.481902174E+01 -3.070767249E+02  3.336884096E+02  1.250000000E+02  0.00000E+00  9.000E+00
       2     1     1     2   501     0 -1.350828799E+01  5.460974348E+01  1.364202114E+03  1.365361530E+03  2.157918644E-05  0.00000E+00  9.000E+00
#rwgt            1           1   5.3358618799696979E-002           6       22714           0
</event>
<event>
      5   9999  3.79277E-02  1.80640E+01 -1.00000E+00  1.70102E-01
      21    -1     0     0   502   501  0.000000000E+00  0.000000000E+00  2.079911294E+03  2.079911294E+03  0.000000000E+00  0.00000E+00  9.000E+00
      21    -1     0     0   501   511  0.000000000E+00  0.000000000E+00 -1.640557814E+02  1.640557814E+02  0.000000000E+00  0.00000E+00  9.000E+00
      25     1     1     2     0     0  3.824097912E+02 -1.955310959E+02  1.159252628E+03  1.242562398E+03  1.250000000E+02  0.00000E+00  9.000E+00
      25     1     1     2     0     0 -3.845347466E+02  2.134697141E+02  8.181582289E+02  9.372535291E+02  1.250000000E+02  0.00000E+00  9.000E+00
      21     1     1     2   502   511  2.124955411E+00 -1.793861816E+01 -6.155534403E+01  6.415114836E+01  2.132480600E-06  0.00000E+00  9.000E+00
#rwgt            1           1  0.15219242092607552                6       22902           0
</event>
<event>
      5   9999  3.79277E-02  4.25103E+01 -1.00000E+00  1.43220E-01
      21    -1     0     0   502   501  0.000000000E+00  0.000000000E+00  8.753689196E+02  8.753689196E+02  0.000000000E+00  0.00000E+00  9.000E+00
      21    -1     0     0   501   512  0.000000000E+00  0.000000000E+00 -1.024102060E+02  1.024102060E+02  0.000000000E+00  0.00000E+00  9.000E+00
      25     1     1     2     0     0  8.739654782E+01 -2.084959163E+02  4.937088016E+02  5.572091927E+02  1.250000000E+02  0.00000E+00  9.000E+00
      25     1     1     2     0     0 -5.156151009E+01  2.313645817E+02  2.617408248E+02  3.745950058E+02  1.250000000E+02  0.00000E+00  9.000E+00
      21     1     1     2   502   512 -3.583503773E+01 -2.286866535E+01  1.750908727E+01  4.597492709E+01  4.129530925E-07  0.00000E+00  9.000E+00
#rwgt            1           1   4.7759248260671697E-002           6       23101           0
</event>
<event>
      5   9999  3.79277E-02  1.76408E+01 -1.00000E+00  1.70996E-01
      21    -1     0     0   511   501  0.000000000E+00  0.000000000E+00  2.426094865E+02  2.426094865E+02  0.000000000E+00  0.00000E+00  9.000E+00
      21    -1     0     0   501   502  0.000000000E+00  0.000000000E+00 -1.938171496E+02  1.938171496E+02  0.000000000E+00  0.00000E+00  9.000E+00
      25     1     1     2     0     0  5.714860723E+01 -7.746425866E+01 -1.069886104E+02  1.906259097E+02  1.250000000E+02  0.00000E+00  9.000E+00
      25     1     1     2     0     0 -6.480347802E+01  9.335772741E+01  1.243910850E+02  2.097934652E+02  1.250000000E+02  0.00000E+00  9.000E+00
      21     1     1     2   511   502  7.654870797E+00 -1.589346875E+01  3.138986235E+01  3.600726113E+01  3.371747881E-07  0.00000E+00  9.000E+00
#rwgt            1           1  0.12558369789037671                6       23258           0
</event>
<event>
      5   9999  3.79277E-02  3.87418E+01 -1.00000E+00  1.45706E-01
      21    -1     0     0   502   501  0.000000000E+00  0.000000000E+00  8.936378163E+02  8.936378163E+02  0.000000000E+00  0.00000E+00  9.000E+00
      21    -1     0     0   501   512  0.000000000E+00  0.000000000E+00 -6.514339649E+01  6.514339649E+01  0.000000000E+00  0.00000E+00  9.000E+00
      25     1     1     2     0     0  1.847145179E+01 -5.500356625E+01  7.313410393E+02  7.442118667E+02  1.250000000E+02  0.00000E+00  9.000E+00
      25     1     1     2     0     0  1.492122176E+01  7.464685389E+01  5.258251934E+01  1.555143627E+02  1.250000000E+02  0.00000E+00  9.000E+00
      21     1     1     2   502   512 -3.339267356E+01 -1.964328764E+01  4.457086117E+01  5.905498338E+01  1.066240300E-06  0.00000E+00  9.000E+00
#rwgt            1           1   3.1146699848517430E-002           6       23454           0
</event>
<event>
      5   9999  3.79277E-02  1.26749E+01 -1.00000E+00  1.84564E-01
      21    -1     0     0   502   511  0.000000000E+00  0.000000000E+00  1.856552618E+02  1.856552618E+02  0.000000000E+00  0.00000E+00  9.000E+00
      21    -1     0     0   501   502  0.000000000E+00  0.000000000E+00 -4.022932550E+02  4.022932550E+02  0.000000000E+00  0.00000E+00  9.000E+00
      25     1     1     2     0     0 -1.730043444E+02  7.826143511E+01 -6.200182015E+01  2.356365445E+02  1.250000000E+02  0.00000E+00  9.000E+00
      25     1     1     2     0     0  1.679864920E+02 -8.990073756E+01 -2.012411714E+02  3.040141661E+02  1.250000000E+02  0.00000E+00  9.000E+00
      21     1     1     2   501   511  5.017852454E+00  1.163930245E+01  4.660499840E+01  4.829780617E+01  9.536743164E-07  0.00000E+00  9.000E+00
#rwgt            1           1   4.2027869768969370E-002           6       23617           0
</event>
<event>
      5   9999  3.79277E-02  7.87570E+01 -1.00000E+00  1.28680E-01
      21    -1     0     0   512   501  0.000000000E+00  0.000000000E+00  4.424423797E+02  4.424423797E+02  0.000000000E+00  0.00000E+00  9.000E+00
      21    -1     0     0   501   502  0.000000000E+00  0.000000000E+00 -3.014472712E+02  3.014472712E+02  0.000000000E+00  0.00000E+00  9.000E+00
      25     1     1     2     0     0 -1.902043214E+01 -1.434836387E+02 -1.690163219E+02  2.552270528E+02  1.250000000E+02  0.00000E+00  9.000E+00
      25     1     1     2     0     0  9.504626845E+01  1.640442493E+02  7.241802821E+01  2.383562034E+02  1.250000000E+02  0.00000E+00  9.000E+00
      21     1     1     2   512   502 -7.602583631E+01 -2.056061055E+01  2.375934021E+02  2.503063947E+02  3.814697266E-06  0.00000E+00  9.000E+00
#rwgt            1           1   3.9342839426747891E-002           6       23816           0
</event>
<event>
      5   9999  3.79277E-02  1.47092E+01 -1.00000E+00  1.78188E-01
      21    -1     0     0   502   501  0.000000000E+00  0.000000000E+00  7.589078534E+02  7.589078534E+02  0.000000000E+00  0.00000E+00  9.000E+00
      21    -1     0     0   501   511  0.000000000E+00  0.000000000E+00 -6.379474452E+01  6.379474452E+01  0.000000000E+00  0.00000E+00  9.000E+00
      25     1     1     2     0     0 -1.589276189E+02 -7.281509316E+01  3.726369324E+02  4.301666064E+02  1.250000000E+02  0.00000E+00  9.000E+00
      25     1     1     2     0     0  1.454746601E+02  7.876297016E+01  3.114376452E+02  3.741455453E+02  1.250000000E+02  0.00000E+00  9.000E+00
      21     1     1     2   502   511  1.345295879E+01 -5.947877004E+00  1.103853126E+01  1.839044625E+01  1.192092896E-07  0.00000E+00  9.000E+00
#rwgt            1           1   3.4200350416022526E-002           6       23888           0
</event>
<event>
      5   9999  3.79277E-02  2.09421E+01 -1.00000E+00  1.64736E-01
      21    -1     0     0   502   512  0.000000000E+00  0.000000000E+00  1.942049881E+02  1.942049881E+02  0.000000000E+00  0.00000E+00  9.000E+00
      21    -1     0     0   501   502  0.000000000E+00  0.000000000E+00 -2.661810703E+02  2.661810703E+02  0.000000000E+00  0.00000E+00  9.000E+00
      25     1     1     2     0     0 -6.215287859E+01 -1.053558021E+02 -1.418486243E+02  2.251862730E+02  1.250000000E+02  0.00000E+00  9.000E+00
      25     1     1     2     0     0  5.357950174E+01  8.624903080E+01 -1.261220194E+00  1.610473502E+02  1.250000000E+02  0.00000E+00  9.000E+00
      21     1     1     2   501   512  8.573376847E+00  1.910677131E+01  7.113376235E+01  7.415243520E+01  1.348699152E-06  0.00000E+00  9.000E+00
#rwgt            1           1   4.5073951146903983E-002           6       24206           0
</event>
<event>
      5   9999  3.79277E-02  3.12936E+01 -1.00000E+00  1.51777E-01
      21    -1     0     0   502   501  0.000000000E+00  0.000000000E+00  4.848604066E+02  4.848604066E+02  0.000000000E+00  0.00000E+00  9.000E+00
      21    -1     0     0   501   511  0.000000000E+00  0.000000000E+00 -2.239536307E+02  2.239536307E+02  0.000000000E+00  0.00000E+00  9.000E+00
      25     1     1     2     0     0  1.210487571E+02  9.867794212E+01  1.234369184E+02  2.350570371E+02  1.250000000E+02  0.00000E+00  9.000E+00
      25     1     1     2     0     0 -1.393212290E+02 -7.327313789E+01  2.705492073E+02  3.370478173E+02  1.250000000E+02  0.00000E+00  9.000E+00
      21     1     1     2   502   511  1.827247187E+01 -2.540480423E+01 -1.330793499E+02  1.367091828E+02  0.000000000E+00  0.00000E+00  9.000E+00
#rwgt            1           1   3.3975639297610140E-002           6       24365           0
</event>
<event>
      5   9999  3.79277E-02  5.99111E+01 -1.00000E+00  1.34738E-01
      21    -1     0     0   502   501  0.000000000E+00  0.000000000E+00  3.875056490E+02  3.875056490E+02  0.000000000E+00  0.00000E+00  9.000E+00
      -1    -1     0     0     0   502  0.000000000E+00  0.000000000E+00 -4.046616227E+02  4.046616227E+02  0.000000000E+00  0.00000E+00  9.000E+00
      25     1     1     2     0     0 -1.783586448E+02 -6.162700110E+01  2.831189327E+02  3.624789973E+02  1.250000000E+02  0.00000E+00  9.000E+00
      25     1     1     2     0     0  2.014845239E+02  6.359168987E+00 -1.889067764E+02  3.032280042E+02  1.250000000E+02  0.00000E+00  9.000E+00
      -1     1     1     2     0   501 -2.312587908E+01  5.526783212E+01 -1.113681301E+02  1.264602702E+02  1.907348633E-06  0.00000E+00  9.000E+00
#rwgt            1           1   3.5630791235330916E-002           6       24495           0
</event>
<event>
      5   9999  3.79277E-02  1.56409E+02 -1.00000E+00  1.15678E-01
      21    -1     0     0   502   501  0.000000000E+00  0.000000000E+00  1.695518819E+02  1.695518819E+02  0.000000000E+00  0.00000E+00  9.000E+00
       2    -1     0     0   501     0  0.000000000E+00  0.000000000E+00 -3.428311897E+03  3.428311897E+03  0.000000000E+00  0.00000E+00  9.000E+00
      25     1     1     2     0     0  2.804865477E+02  3.145560245E+01 -2.045340954E+02  3.702990070E+02  1.250000000E+02  0.00000E+00  9.000E+00
      25     1     1     2     0     0 -2.031052687E+02 -1.673812530E+02 -1.664525298E+02  3.355587560E+02  1.250000000E+02  0.00000E+00  9.000E+00
       2     1     1     2   502     0 -7.738127903E+01  1.359256506E+02 -2.887773390E+03  2.892006016E+03  4.315837288E-05  0.00000E+00  9.000E+00
#rwgt            1           1   4.3090117821354038E-002           6       24593           0
</event>
<event>
      5   9999  3.79277E-02  7.48276E+01 -1.00000E+00  1.29770E-01
      21    -1     0     0   502   501  0.000000000E+00  0.000000000E+00  5.975844833E+02  5.975844833E+02  0.000000000E+00  0.00000E+00  9.000E+00
      21    -1     0     0   511   502  0.000000000E+00  0.000000000E+00 -1.413633990E+02  1.413633990E+02  0.000000000E+00  0.00000E+00  9.000E+00
      25     1     1     2     0     0 -4.010467931E+01 -5.081090172E+01  1.782832336E+02  2.271564316E+02  1.250000000E+02  0.00000E+00  9.000E+00
      25     1     1     2     0     0  1.570670324E+01 -1.992739518E+01  3.710370629E+02  3.923484468E+02  1.250000000E+02  0.00000E+00  9.000E+00
      21     1     1     2   511   501  2.439797607E+01  7.073829690E+01 -9.309921217E+01  1.194430039E+02  2.336015456E-06  0.00000E+00  9.000E+00
#rwgt            1           1   3.6758333209352657E-002           6       24849           0
</event>
<event>
      5   9999  3.79277E-02  9.89211E+01 -1.00000E+00  1.24040E-01
      21    -1     0     0   502   501  0.000000000E+00  0.000000000E+00  1.562814379E+02  1.562814379E+02  0.000000000E+00  0.00000E+00  9.000E+00
      21    -1     0     0   501   512  0.000000000E+00  0.000000000E+00 -5.205275094E+02  5.205275094E+02  0.000000000E+00  0.00000E+00  9.000E+00
      25     1     1     2     0     0 -6.088993629E+01 -5.368666410E+01 -1.440303182E+02  2.072669168E+02  1.250000000E+02  0.00000E+00  9.000E+00
      25     1     1     2     0     0  7.732083768E+01 -4.386028613E+01  6.579939395E+01  1.669035556E+02  1.250000000E+02  0.00000E+00  9.000E+00
      21     1     1     2   502   512 -1.643090139E+01  9.754695023E+01 -2.860151472E+02  3.026384749E+02  5.394796609E-06  0.00000E+00  9.000E+00
#rwgt            1           1   5.1202831711893007E-002           6       24877           0
</event>
<event>
      5   9999  3.79277E-02  5.14733E+01 -1.00000E+00  1.38360E-01
      21    -1     0     0   511   501  0.000000000E+00  0.000000000E+00  3.918401037E+01  3.918401037E+01  0.000000000E+00  0.00000E+00  9.000E+00
      21    -1     0     0   501   502  0.000000000E+00  0.000000000E+00 -1.766406934E+03  1.766406934E+03  0.000000000E+00  0.00000E+00  9.000E+00
      25     1     1     2     0     0  4.202021743E+00 -1.307835105E+02 -9.843811245E+02  1.000876207E+03  1.250000000E+02  0.00000E+00  9.000E+00
      25     1     1     2     0     0  4.548809929E+01  1.173525508E+02 -7.305728138E+02  7.517994578E+02  1.250000000E+02  0.00000E+00  9.000E+00
      21     1     1     2   511   502 -4.969012104E+01  1.343095968E+01 -1.226898525E+01  5.291527951E+01  8.085167388E-07  0.00000E+00  9.000E+00
#rwgt            1           1  0.14470742040813994                6       24987           0
</event>
<event>
      5   9999  3.79277E-02  7.92431E+01 -1.00000E+00  1.28550E-01
      21    -1     0     0   502   501  0.000000000E+00  0.000000000E+00  1.699826874E+02  1.699826874E+02  0.000000000E+00  0.00000E+00  9.000E+00
       2    -1     0     0   501     0  0.000000000E+00  0.000000000E+00 -1.489204188E+03  1.489204188E+03  0.000000000E+00  0.00000E+00  9.000E+00
      25     1     1     2     0     0  2.399114592E+02 -1.130143470E+02 -5.259558413E+01  2.978607835E+02  1.250000000E+02  0.00000E+00  9.000E+00
      25     1     1     2     0     0 -2.146847998E+02  3.789385812E+01 -2.995094519E+02  3.909685659E+02  1.250000000E+02  0.00000E+00  9.000E+00
       2     1     1     2   502     0 -2.522665941E+01  7.512048886E+01 -9.671164645E+02  9.703575260E+02  1.525878906E-05  0.00000E+00  9.000E+00
#rwgt            1           1   4.6219040732970396E-002           6       25045           0
</event>
<event>
      5   9999  3.79277E-02  4.63937E+01 -1.00000E+00  1.40956E-01
      21    -1     0     0   502   511  0.000000000E+00  0.000000000E+00  6.297393620E+01  6.297393620E+01  0.000000000E+00  0.00000E+00  9.000E+00
      21    -1     0     0   501   502  0.000000000E+00  0.000000000E+00 -6.442780288E+02  6.442780288E+02  0.000000000E+00  0.00000E+00  9.000E+00
      25     1     1     2     0     0  1.775663387E+01  6.388239389E+01 -3.756078261E+02  4.013757558E+02  1.250000000E+02  0.00000E+00  9.000E+00
      25     1     1     2     0     0 -6.259595110E+01 -5.197407608E+01 -2.118408441E+02  2.590774033E+02  1.250000000E+02  0.00000E+00  9.000E+00
      21     1     1     2   501   511  4.483931723E+01 -1.190831781E+01  6.144577593E+00  4.679880593E+01  4.986882368E-07  0.00000E+00  9.000E+00
#rwgt            1           1  0.11698893782030075                6       25192           0
</event>
<event>
      5   9999  3.79277E-02  5.13361E+01 -1.00000E+00  1.38425E-01
       2    -1     0     0   502     0  0.000000000E+00  0.000000000E+00  1.345412266E+03  1.345412266E+03  0.000000000E+00  0.00000E+00  9.000E+00
      21    -1     0     0   501   502  0.000000000E+00  0.000000000E+00 -5.207116272E+01  5.207116272E+01  0.000000000E+00  0.00000E+00  9.000E+00
      25     1     1     2     0     0 -8.208996885E+01 -9.088201378E+01  2.109410603E+02  2.740792483E+02  1.250000000E+02  0.00000E+00  9.000E+00
      25     1     1     2     0     0  1.256317372E+02  6.368814598E+01  4.355347810E+02  4.745050672E+02  1.250000000E+02  0.00000E+00  9.000E+00
       2     1     1     2   501     0 -4.354176837E+01  2.719386779E+01  6.468652622E+02  6.488991135E+02  1.078959322E-05  0.00000E+00  9.000E+00
#rwgt            1           1   4.1521347281183528E-002           6       25319           0
</event>
<event>
      5   9999  3.79277E-02  2.31009E+01 -1.00000E+00  1.61364E-01
      21    -1     0     0   502   511  0.000000000E+00  0.000000000E+00  1.008721032E+03  1.008721032E+03  0.000000000E+00  0.00000E+00  9.000E+00
      21    -1     0     0   501   502  0.000000000E+00  0.000000000E+00 -8.078323419E+01  8.078323419E+01  0.000000000E+00  0.00000E+00  9.000E+00
      25     1     1     2     0     0 -3.331788630E+00 -9.678094689E+01  5.392416640E+02  5.619468166E+02  1.250000000E+02  0.00000E+00  9.000E+00
      25     1     1     2     0     0  1.618614798E+01  7.758673363E+01  1.020337649E+01  1.483603772E+02  1.250000000E+02  0.00000E+00  9.000E+00
      21     1     1     2   501   511 -1.285435935E+01  1.919421326E+01  3.784927576E+02  3.791970727E+02  0.000000000E+00  0.00000E+00  9.000E+00
#rwgt            1           1   2.6059038301020698E-002           6       25405           0
</event>
<event>
      5   9999  3.79277E-02  8.92988E+01 -1.00000E+00  1.26080E-01
      21    -1     0     0   502   501  0.000000000E+00  0.000000000E+00  9.720381094E+01  9.720381094E+01  0.000000000E+00  0.00000E+00  9.000E+00
      21    -1     0     0   501   512  0.000000000E+00  0.000000000E+00 -7.850730282E+02  7.850730282E+02  0.000000000E+00  0.00000E+00  9.000E+00
      25     1     1     2     0     0 -1.888477431E+02  4.440400157E+01 -1.637313816E+02  2.829631615E+02  1.250000000E+02  0.00000E+00  9.000E+00
      25     1     1     2     0     0  1.204723154E+02 -1.018416418E+02 -3.678027246E+02  4.192721587E+02  1.250000000E+02  0.00000E+00  9.000E+00
      21     1     1     2   502   512  6.837542767E+01  5.743764027E+01 -1.563351110E+02  1.800415190E+02  0.000000000E+00  0.00000E+00  9.000E+00
#rwgt            1           1   4.8959730123595842E-002           6       25729           0
</event>
<event>
      5   9999  3.79277E-02  9.88466E+01 -1.00000E+00  1.24055E-01
      21    -1     0     0   502   501  0.000000000E+00  0.000000000E+00  3.706522112E+02  3.706522112E+02  0.000000000E+00  0.00000E+00  9.000E+00
      21    -1     0     0   511   502  0.000000000E+00  0.000000000E+00 -3.966843032E+02  3.966843032E+02  0.000000000E+00  0.00000E+00  9.000E+00
      25     1     1     2     0     0  2.049009145E+02  4.923643908E+00  1.367475907E+02  2.762852341E+02  1.250000000E+02  0.00000E+00  9.000E+00
      25     1     1     2     0     0 -3.011804747E+02 -2.730418551E+01 -3.441111267E+01  3.290354412E+02  1.250000000E+02  0.00000E+00  9.000E+00
      21     1     1     2   511   501  9.627956026E+01  2.238054160E+01 -1.283685700E+02  1.620158392E+02  1.907348633E-06  0.00000E+00  9.000E+00
#rwgt            1           1   2.6080517519750421E-002           6       25813           0
</event>
<event>
      5   9999  3.79277E-02  3.43023E+01 -1.00000E+00  1.49104E-01
      21    -1     0     0   502   501  0.000000000E+00  0.000000000E+00  6.766453122E+02  6.766453122E+02  0.000000000E+00  0.00000E+00  9.000E+00
       2    -1     0     0   501     0  0.000000000E+00  0.000000000E+00 -6.454221944E+02  6.454221944E+02  0.000000000E+00  0.00000E+00  9.000E+00
      25     1     1     2     0     0  1.387074783E+02 -6.334155437E+00  4.408300601E+02  4.787859939E+02  1.250000000E+02  0.00000E+00  9.000E+00
      25     1     1     2     0     0 -1.508855256E+02 -2.573364571E+01  1.711994694E+02  2.614630388E+02  1.250000000E+02  0.00000E+00  9.000E+00
       2     1     1     2   502     0  1.217804730E+01  3.206780114E+01 -5.808064117E+02  5.818184739E+02  0.000000000E+00  0.00000E+00  9.000E+00
#rwgt            1           1   4.7782040645870716E-002           6       25961           0
</event>
<event>
      5   9999  3.79277E-02  1.22314E+02 -1.00000E+00  1.20017E-01
      21    -1     0     0   502   501  0.000000000E+00  0.000000000E+00  2.885738220E+02  2.885738220E+02  0.000000000E+00  0.00000E+00  9.000E+00
       2    -1     0     0   501     0  0.000000000E+00  0.000000000E+00 -4.247471744E+02  4.247471744E+02  0.000000000E+00  0.00000E+00  9.000E+00
      25     1     1     2     0     0 -2.902957909E+01 -1.893167159E+02 -1.045038563E+02  2.514549490E+02  1.250000000E+02  0.00000E+00  9.000E+00
      25     1     1     2     0     0  4.804100826E+01  3.101440837E+02 -1.243215229E+01  3.380485905E+02  1.250000000E+02  0.00000E+00  9.000E+00
       2     1     1     2   502     0 -1.901142917E+01 -1.208273678E+02 -1.923734380E+01  1.238174570E+02  2.286830675E-06  0.00000E+00  9.000E+00
#rwgt            2          13   3.9851738393760857E-005           6       26122           0
</event>
<event>
      5   9999  3.79277E-02  8.75052E+01 -1.00000E+00  1.26492E-01
      21    -1     0     0   502   511  0.000000000E+00  0.000000000E+00  5.055349195E+01  5.055349195E+01  0.000000000E+00  0.00000E+00  9.000E+00
      21    -1     0     0   501   502  0.000000000E+00  0.000000000E+00 -1.315564728E+03  1.315564728E+03  0.000000000E+00  0.00000E+00  9.000E+00
      25     1     1     2     0     0  1.321863276E+01  1.698002145E+02 -4.744322147E+02  5.193435967E+02  1.250000000E+02  0.00000E+00  9.000E+00
      25     1     1     2     0     0  7.078787400E+01 -1.453040944E+02 -6.483342629E+02  6.797694605E+02  1.250000000E+02  0.00000E+00  9.000E+00
      21     1     1     2   501   511 -8.400650676E+01 -2.449612009E+01 -1.422447582E+02  1.670051625E+02  1.907348633E-06  0.00000E+00  9.000E+00
#rwgt            1           1  0.11306749369058720                6       26186           0
</event>
<event>
      5   9999  3.79277E-02  3.50896E+01 -1.00000E+00  1.48458E-01
       2    -1     0     0   502     0  0.000000000E+00  0.000000000E+00  7.073974556E+02  7.073974556E+02  0.000000000E+00  0.00000E+00  9.000E+00
      21    -1     0     0   501   502  0.000000000E+00  0.000000000E+00 -9.215010395E+02  9.215010395E+02  0.000000000E+00  0.00000E+00  9.000E+00
      25     1     1     2     0     0  1.078400421E+01  9.789057250E+01 -7.884998165E+02  8.043977993E+02  1.250000000E+02  0.00000E+00  9.000E+00
      25     1     1     2     0     0  1.995151114E+01 -1.148200996E+02 -6.595770539E+01  1.831860720E+02  1.250000000E+02  0.00000E+00  9.000E+00
       2     1     1     2   501     0 -3.073551536E+01  1.692952715E+01  6.403539380E+02  6.413146238E+02  7.629394531E-06  0.00000E+00  9.000E+00
#rwgt            1           1   3.1828760222161016E-002           6       26386           0
</event>
<event>
      5   9999  3.79277E-02  9.51788E+01 -1.00000E+00  1.24801E-01
      21    -1     0     0   502   511  0.000000000E+00  0.000000000E+00  1.819681871E+02  1.819681871E+02  0.000000000E+00  0.00000E+00  9.000E+00
      21    -1     0     0   501   502  0.000000000E+00  0.000000000E+00 -4.167648046E+02  4.167648046E+02  0.000000000E+00  0.00000E+00  9.000E+00
      25     1     1     2     0     0 -7.396941450E+00 -5.589180063E+01 -2.743397752E+02  3.067016797E+02  1.250000000E+02  0.00000E+00  9.000E+00
      25     1     1     2     0     0 -7.479542807E+01  1.038858302E+02 -1.957697123E+01  1.799857760E+02  1.250000000E+02  0.00000E+00  9.000E+00
      21     1     1     2   501   511  8.219236952E+01 -4.799402953E+01  5.912012890E+01  1.120455359E+02  0.000000000E+00  0.00000E+00  9.000E+00
#rwgt            1           1   4.3650807816576022E-002           6       26574           0
</event>
<event>
      5   9999  3.79277E-02  3.31375E+01 -1.00000E+00  1.50099E-01
      21    -1     0     0   512   501  0.000000000E+00  0.000000000E+00  1.138694968E+02  1.138694968E+02  0.000000000E+00  0.00000E+00  9.000E+00
      21    -1     0     0   501   502  0.000000000E+00  0.000000000E+00 -2.488666801E+02  2.488666801E+02  0.000000000E+00  0.00000E+00  9.000E+00
      25     1     1     2     0     0  4.653426410E+01  7.757281256E+00 -1.442933894E+02  1.966499310E+02  1.250000000E+02  0.00000E+00  9.000E+00
      25     1     1     2     0     0 -1.836612525E+01 -2.521140977E+01 -7.271319817E+00  1.290379860E+02  1.250000000E+02  0.00000E+00  9.000E+00
      21     1     1     2   512   502 -2.816813885E+01  1.745412852E+01  1.656752591E+01  3.704825992E+01  2.384185791E-07  0.00000E+00  9.000E+00
#rwgt            1           1   6.6575486539778989E-002           6       26614           0
</event>
<event>
      5   9999  3.79277E-02  4.41690E+00 -1.00000E+00  2.53721E-01
      21    -1     0     0   502   501  0.000000000E+00  0.000000000E+00  1.189107127E+02  1.189107127E+02  0.000000000E+00  0.00000E+00  9.000E+00
      21    -1     0     0   511   502  0.000000000E+00  0.000000000E+00 -2.803084256E+02  2.803084256E+02  0.000000000E+00  0.00000E+00  9.000E+00
      25     1     1     2     0     0  3.638848801E+01 -8.824585448E+01  8.159750855E+00  1.574897915E+02  1.250000000E+02  0.00000E+00  9.000E+00
      25     1     1     2     0     0 -3.645400627E+01  9.266226667E+01 -1.418924610E+02  2.137139694E+02  1.250000000E+02  0.00000E+00  9.000E+00
      21     1     1     2   511   501  6.551826855E-02 -4.416412188E+00 -2.766500273E+01  2.801537730E+01  3.371747881E-07  0.00000E+00  9.000E+00
#rwgt            1           1   4.0135562778815637E-002           6       26720           0
</event>
<event>
      5   9999  3.79277E-02  6.73803E+01 -1.00000E+00  1.32065E-01
      21    -1     0     0   502   512  0.000000000E+00  0.000000000E+00  5.065969823E+01  5.065969823E+01  0.000000000E+00  0.00000E+00  9.000E+00
      21    -1     0     0   501   502  0.000000000E+00  0.000000000E+00 -1.214866713E+03  1.214866713E+03  0.000000000E+00  0.00000E+00  9.000E+00
      25     1     1     2     0     0  1.032604838E+02  5.881929981E+01 -6.693724671E+02  6.912358043E+02  1.250000000E+02  0.00000E+00  9.000E+00
      25     1     1     2     0     0 -1.559463514E+02 -1.008229822E+02 -3.705756597E+02  4.329386305E+02  1.250000000E+02  0.00000E+00  9.000E+00
      21     1     1     2   501   512  5.268586755E+01  4.200368235E+01 -1.242588879E+02  1.413519763E+02  1.907348633E-06  0.00000E+00  9.000E+00
#rwgt            1           1   3.8959502184822005E-002           6       27029           0
</event>
<event>
      5   9999  3.79277E-02  1.32935E+02 -1.00000E+00  1.18511E-01
      21    -1     0     0   502   511  0.000000000E+00  0.000000000E+00  9.409818322E+02  9.409818322E+02  0.000000000E+00  0.00000E+00  9.000E+00
      21    -1     0     0   501   502  0.000000000E+00  0.000000000E+00 -8.740409910E+01  8.740409910E+01  0.000000000E+00  0.00000E+00  9.000E+00
      25     1     1     2     0     0  1.367287986E+02  9.558784178E+01  2.673508584E+02  3.390181136E+02  1.250000000E+02  0.00000E+00  9.000E+00
      25     1     1     2     0     0 -1.624726005E+02  3.483016818E+01  2.347774430E+02  3.136174968E+02  1.250000000E+02  0.00000E+00  9.000E+00
      21     1     1     2   501   511  2.574380184E+01 -1.304180100E+02  3.514494317E+02  3.757503210E+02  5.394796609E-06  0.00000E+00  9.000E+00
#rwgt            1           1   3.1269489405934395E-002           6       27128           0
</event>
<event>
      5   9999  3.79277E-02  1.26472E+01 -1.00000E+00  1.84661E-01
      21    -1     0     0   502   512  0.000000000E+00  0.000000000E+00  2.217873280E+02  2.217873280E+02  0.000000000E+00  0.00000E+00  9.000E+00
      21    -1     0     0   501   502  0.000000000E+00  0.000000000E+00 -4.053987498E+02  4.053987498E+02  0.000000000E+00  0.00000E+00  9.000E+00
      25     1     1     2     0     0  8.380607477E+01  1.723398030E+02 -3.107565799E+01  2.309007631E+02  1.250000000E+02  0.00000E+00  9.000E+00
      25     1     1     2     0     0 -8.039713999E+01 -1.845188862E+02 -2.225963396E+02  3.250923713E+02  1.250000000E+02  0.00000E+00  9.000E+00
      21     1     1     2   501   512 -3.408934777E+00  1.217908319E+01  7.006057579E+01  7.119294335E+01  0.000000000E+00  0.00000E+00  9.000E+00
#rwgt            1           1   3.2832719387473328E-002           6       27250           0
</event>
<event>
      5   9999  3.79277E-02  1.40466E+01 -1.00000E+00  1.80113E-01
      21    -1     0     0   502   511  0.000000000E+00  0.000000000E+00  1.582724857E+02  1.582724857E+02  0.000000000E+00  0.00000E+00  9.000E+00
      21    -1     0     0   501   502  0.000000000E+00  0.000000000E+00 -2.826814121E+02  2.826814121E+02  0.000000000E+00  0.00000E+00  9.000E+00
      25     1     1     2     0     0  7.481906583E+01  1.486206804E+02 -7.359067060E+01  2.207409931E+02  1.250000000E+02  0.00000E+00  9.000E+00
      25     1     1     2     0     0 -6.862401216E+01 -1.360140192E+02 -5.658801909E+01  2.050274917E+02  1.250000000E+02  0.00000E+00  9.000E+00
      21     1     1     2   501   511 -6.195053678E+00 -1.260666120E+01  5.769763264E+00  1.518541290E+01  2.064765462E-07  0.00000E+00  9.000E+00
#rwgt            1           1   2.9731762876616646E-002           6       27591           0
</event>
<event>
      5   9999  3.79277E-02  4.92741E+01 -1.00000E+00  1.39439E-01
      21    -1     0     0   502   501  0.000000000E+00  0.000000000E+00  4.102918195E+02  4.102918195E+02  0.000000000E+00  0.00000E+00  9.000E+00
      21    -1     0     0   512   502  0.000000000E+00  0.000000000E+00 -1.712706001E+02  1.712706001E+02  0.000000000E+00  0.00000E+00  9.000E+00
      25     1     1     2     0     0  2.548594274E+00 -8.750160864E+00  3.453291260E+02  3.673693862E+02  1.250000000E+02  0.00000E+00  9.000E+00
      25     1     1     2     0     0  2.702221318E+01  4.816466913E+01 -7.677993834E+01  1.567488255E+02  1.250000000E+02  0.00000E+00  9.000E+00
      21     1     1     2   512   501 -2.957080745E+01 -3.941450827E+01 -2.952796830E+01  5.744420796E+01  4.768371582E-07  0.00000E+00  9.000E+00
#rwgt            1           1   5.0023222764917830E-002           6       27831           0
</event>
<event>
      5   9999  3.79277E-02  1.30581E+02 -1.00000E+00  1.18831E-01
       2    -1     0     0   502     0  0.000000000E+00  0.000000000E+00  4.869102541E+02  4.869102541E+02  0.000000000E+00  0.00000E+00  9.000E+00
      21    -1     0     0   501   502  0.000000000E+00  0.000000000E+00 -8.363860585E+02  8.363860585E+02  0.000000000E+00  0.00000E+00  9.000E+00
      25     1     1     2     0     0 -1.797763885E+02  2.068301915E+01 -2.016039643E+02  2.983563232E+02  1.250000000E+02  0.00000E+00  9.000E+00
      25     1     1     2     0     0  4.925455894E+01 -1.675308323E+01 -5.685562971E+02  5.844552510E+02  1.250000000E+02  0.00000E+00  9.000E+00
       2     1     1     2   501     0  1.305218296E+02 -3.929935917E+00  4.206844570E+02  4.404847384E+02  7.629394531E-06  0.00000E+00  9.000E+00
#rwgt            1           1   3.3299842127227593E-002           6       28062           0
</event>
<event>
      5   9999  3.79277E-02  2.47971E+01 -1.00000E+00  1.59016E-01
      21    -1     0     0   511   501  0.000000000E+00  0.000000000E+00  2.413675924E+02  2.413675924E+02  0.000000000E+00  0.00000E+00  9.000E+00
      21    -1     0     0   501   502  0.000000000E+00  0.000000000E+00 -2.203068347E+02  2.203068347E+02  0.000000000E+00  0.00000E+00  9.000E+00
      25     1     1     2     0     0 -1.324650099E+02  9.984810780E+01 -3.760245749E+01  2.110818995E+02  1.250000000E+02  0.00000E+00  9.000E+00
      25     1     1     2     0     0  1.460633501E+02 -7.911207509E+01  2.589081865E+01  2.094959598E+02  1.250000000E+02  0.00000E+00  9.000E+00
      21     1     1     2   511   502 -1.359834020E+01 -2.073603271E+01  3.277239656E+01  4.109656780E+01  6.743495762E-07  0.00000E+00  9.000E+00
#rwgt            1           1  0.12862276663414993                6       28311           0
</event>
<event>
      5   9999  3.79277E-02  1.04262E+02 -1.00000E+00  1.23018E-01
      21    -1     0     0   502   501  0.000000000E+00  0.000000000E+00  3.057480364E+02  3.057480364E+02  0.000000000E+00  0.00000E+00  9.000E+00
       2    -1     0     0   501     0  0.000000000E+00  0.000000000E+00 -8.806655344E+02  8.806655344E+02  0.000000000E+00  0.00000E+00  9.000E+00
      25     1     1     2     0     0 -1.398435861E+02 -3.674648171E+01 -6.291846859E+00  1.912357703E+02  1.250000000E+02  0.00000E+00  9.000E+00
      25     1     1     2     0     0  2.433972002E+02  2.461549989E+01  1.192186138E+02  2.994765396E+02  1.250000000E+02  0.00000E+00  9.000E+00
       2     1     1     2   502     0 -1.035536141E+02  1.213098182E+01 -6.878442649E+02  6.957012610E+02  1.078959322E-05  0.00000E+00  9.000E+00
#rwgt            2          13   6.4645965399260437E-004           6       28468           0
</event>
<event>
      5   9999  3.79277E-02  4.27064E+01 -1.00000E+00  1.43099E-01
      21    -1     0     0   502   501  0.000000000E+00  0.000000000E+00  1.840084360E+02  1.840084360E+02  0.000000000E+00  0.00000E+00  9.000E+00
      21    -1     0     0   511   502  0.000000000E+00  0.000000000E+00 -3.031960247E+02  3.031960247E+02  0.000000000E+00  0.00000E+00  9.000E+00
      25     1     1     2     0     0  6.338947553E+01  9.712553129E+00  6.691904981E+01  1.556140049E+02  1.250000000E+02  0.00000E+00  9.000E+00
      25     1     1     2     0     0 -8.487991123E+01 -4.661783118E+01 -1.917340030E+01  1.592810120E+02  1.250000000E+02  0.00000E+00  9.000E+00
      21     1     1     2   511   501  2.149043570E+01  3.690527806E+01 -1.669332382E+02  1.723094437E+02  3.814697266E-06  0.00000E+00  9.000E+00
#rwgt            1           1   2.7634766299116077E-002           6       28532           0
</event>
<event>
      5   9999  3.79277E-02  8.05880E+01 -1.00000E+00  1.28196E-01
      21    -1     0     0   502   501  0.000000000E+00  0.000000000E+00  3.009287060E+02  3.009287060E+02  0.000000000E+00  0.00000E+00  9.000E+00
       2    -1     0     0   501     0  0.000000000E+00  0.000000000E+00 -3.106084856E+03  3.106084856E+03  0.000000000E+00  0.00000E+00  9.000E+00
      25     1     1     2     0     0  1.652698877E+02 -3.446421845E+01  8.699904378E+01  2.273669979E+02  1.250000000E+02  0.00000E+00  9.000E+00
      25     1     1     2     0     0 -1.441985612E+02  1.122487369E+02  5.761647808E+01  2.287742611E+02  1.250000000E+02  0.00000E+00  9.000E+00
       2     1     1     2   502     0 -2.107132644E+01 -7.778451848E+01 -2.949771671E+03  2.950872303E+03  4.315837288E-05  0.00000E+00  9.000E+00
#rwgt            1           1   2.8526964620874257E-002           6       28664           0
</event>
<event>
      5   9999  3.79277E-02  3.63133E+01 -1.00000E+00  1.47494E-01
      -1    -1     0     0     0   501  0.000000000E+00  0.000000000E+00  3.989664704E+02  3.989664704E+02  0.000000000E+00  0.00000E+00  9.000E+00
      21    -1     0     0   501   502  0.000000000E+00  0.000000000E+00 -1.252150281E+02  1.252150281E+02  0.000000000E+00  0.00000E+00  9.000E+00
      25     1     1     2     0     0 -9.987833604E+01  1.259085975E+02  1.357234510E+02  2.446926891E+02  1.250000000E+02  0.00000E+00  9.000E+00
      25     1     1     2     0     0  1.031426358E+02 -8.974227670E+01  6.219656410E+01  1.954110850E+02  1.250000000E+02  0.00000E+00  9.000E+00
      -1     1     1     2     0   502 -3.264299711E+00 -3.616632075E+01  7.583142713E+01  8.407772446E+01  9.536743164E-07  0.00000E+00  9.000E+00
#rwgt            1           1   2.8459716219845825E-002           6       28759           0
</event>
<event>
      5   9999  3.79277E-02  3.23532E+01 -1.00000E+00  1.50796E-01
      21    -1     0     0   511   501  0.000000000E+00  0.000000000E+00  1.887730487E+03  1.887730487E+03  0.000000000E+00  0.00000E+00  9.000E+00
      21    -1     0     0   501   502  0.000000000E+00  0.000000000E+00 -2.755027592E+01  2.755027592E+01  0.000000000E+00  0.00000E+00  9.000E+00
      25     1     1     2     0     0 -1.008801555E+02  9.675959098E+01  4.733718509E+02  5.091612058E+02  1.250000000E+02  0.00000E+00  9.000E+00
      25     1     1     2     0     0  6.863320937E+01 -9.937922409E+01  8.116851212E+02  8.300870337E+02  1.250000000E+02  0.00000E+00  9.000E+00
      21     1     1     2   511   502  3.224694617E+01  2.619633110E+00  5.751232385E+02  5.760325230E+02  7.629394531E-06  0.00000E+00  9.000E+00
#rwgt            1           1   4.4167806958214713E-002           6       28977           0
</event>
<event>
      5   9999  3.79277E-02  3.85502E+01 -1.00000E+00  1.45842E-01
      21    -1     0     0   502   501  0.000000000E+00  0.000000000E+00  4.967320747E+02  4.967320747E+02  0.000000000E+00  0.00000E+00  9.000E+00
      21    -1     0     0   501   512  0.000000000E+00  0.000000000E+00 -3.770284248E+02  3.770284248E+02  0.000000000E+00  0.00000E+00  9.000E+00
      25     1     1     2     0     0 -9.053355005E+01 -1.326811977E+02  2.378442809E+02  3.130423707E+02  1.250000000E+02  0.00000E+00  9.000E+00
      25     1     1     2     0     0  1.285548487E+02  1.390450057E+02  1.614516586E+02  2.784807010E+02  1.250000000E+02  0.00000E+00  9.000E+00
      21     1     1     2   502   512 -3.802129864E+01 -6.363808033E+00 -2.795922896E+02  2.822374277E+02  5.394796609E-06  0.00000E+00  9.000E+00
#rwgt            1           1   4.4732231595203689E-002           6       29218           0
</event>
<event>
      5   9999  3.79277E-02  1.51376E+01 -1.00000E+00  1.77011E-01
      21    -1     0     0   502   511  0.000000000E+00  0.000000000E+00  2.280642707E+01  2.280642707E+01  0.000000000E+00  0.00000E+00  9.000E+00
      21    -1     0     0   501   502  0.000000000E+00  0.000000000E+00 -1.686260477E+03  1.686260477E+03  0.000000000E+00  0.00000E+00  9.000E+00
      25     1     1     2     0     0  5.879085708E+01 -1.313045430E+02 -9.283828147E+02  9.477430551E+02  1.250000000E+02  0.00000E+00  9.000E+00
      25     1     1     2     0     0 -4.471269955E+01  1.257410735E+02 -6.875944373E+02  7.114922019E+02  1.250000000E+02  0.00000E+00  9.000E+00
      21     1     1     2   501   511 -1.407815753E+01  5.563469557E+00 -4.747679789E+01  4.983164708E+01  0.000000000E+00  0.00000E+00  9.000E+00
#rwgt            1           1  0.35101255597378173                6       29314           0
</event>
<event>
      5   9999  3.79277E-02  1.05926E+02 -1.00000E+00  1.22714E-01
      21    -1     0     0   512   501  0.000000000E+00  0.000000000E+00  1.329148133E+02  1.329148133E+02  0.000000000E+00  0.00000E+00  9.000E+00
      21    -1     0     0   501   502  0.000000000E+00  0.000000000E+00 -7.947843415E+02  7.947843415E+02  0.000000000E+00  0.00000E+00  9.000E+00
      25     1     1     2     0     0 -1.437146760E+02 -7.597689512E+01 -6.201071894E+02  6.531342305E+02  1.250000000E+02  0.00000E+00  9.000E+00
      25     1     1     2     0     0  3.794349798E+01  7.024328623E+01 -7.134212442E+01  1.645859259E+02  1.250000000E+02  0.00000E+00  9.000E+00
      21     1     1     2   512   502  1.057711781E+02  5.733608894E+00  2.957978557E+01  1.099789984E+02  2.185142372E-06  0.00000E+00  9.000E+00
#rwgt            1           1   5.7455215208936115E-002           6       29489           0
</event>
<event>
      5   9999  3.79277E-02  1.71154E+01 -1.00000E+00  1.72151E-01
      21    -1     0     0   502   501  0.000000000E+00  0.000000000E+00  1.236334016E+02  1.236334016E+02  0.000000000E+00  0.00000E+00  9.000E+00
      21    -1     0     0   501   511  0.000000000E+00  0.000000000E+00 -3.689202987E+02  3.689202987E+02  0.000000000E+00  0.00000E+00  9.000E+00
      25     1     1     2     0     0 -4.320413537E+01  1.231059180E+02 -2.378241542E+02  2.986753969E+02  1.250000000E+02  0.00000E+00  9.000E+00
      25     1     1     2     0     0  3.297662077E+01 -1.093823559E+02  9.725656659E+00  1.696217724E+02  1.250000000E+02  0.00000E+00  9.000E+00
      21     1     1     2   502   511  1.022751459E+01 -1.372356218E+01 -1.718839957E+01  2.425653095E+01  4.129530925E-07  0.00000E+00  9.000E+00
#rwgt            1           1   3.9927202885065176E-002           6       29566           0
</event>
<event>
      5   9999  3.79277E-02  4.37114E+01 -1.00000E+00  1.42490E-01
       2    -1     0     0   502     0  0.000000000E+00  0.000000000E+00  8.773875871E+02  8.773875871E+02  0.000000000E+00  0.00000E+00  9.000E+00
      21    -1     0     0   501   502  0.000000000E+00  0.000000000E+00 -1.540706895E+02  1.540706895E+02  0.000000000E+00  0.00000E+00  9.000E+00
      25     1     1     2     0     0  5.574976923E+01  2.284961178E+02  6.734036187E+01  2.747330285E+02  1.250000000E+02  0.00000E+00  9.000E+00
      25     1     1     2     0     0 -1.449140740E+01 -2.140588477E+02  2.644014078E+02  3.627179285E+02  1.250000000E+02  0.00000E+00  9.000E+00
       2     1     1     2   501     0 -4.125836182E+01 -1.443727004E+01  3.915751279E+02  3.940073197E+02  7.629394531E-06  0.00000E+00  9.000E+00
#rwgt            1           1   3.7615002197321522E-002           6       29926           0
</event>
<event>
      5   9999  3.79277E-02  2.42780E+01 -1.00000E+00  1.59710E-01
      21    -1     0     0   502   511  0.000000000E+00  0.000000000E+00  8.722739035E+02  8.722739035E+02  0.000000000E+00  0.00000E+00  9.000E+00
      21    -1     0     0   501   502  0.000000000E+00  0.000000000E+00 -2.484418616E+02  2.484418616E+02  0.000000000E+00  0.00000E+00  9.000E+00
      25     1     1     2     0     0  2.737774074E+01  1.914602107E+02  4.976961623E+01  2.356025629E+02  1.250000000E+02  0.00000E+00  9.000E+00
      25     1     1     2     0     0 -1.030892042E+01 -2.087250468E+02 -5.983247554E+01  2.507535525E+02  1.250000000E+02  0.00000E+00  9.000E+00
      21     1     1     2   501   511 -1.706882032E+01  1.726483607E+01  6.338949012E+02  6.343596496E+02  0.000000000E+00  0.00000E+00  9.000E+00
#rwgt            1           1   4.1448687716643111E-002           6       30037           0
</event>
<event>
      5   9999  3.79277E-02  1.26495E+01 -1.00000E+00  1.84653E-01
      21    -1     0     0   512   501  0.000000000E+00  0.000000000E+00  1.255939002E+01  1.255939002E+01  0.000000000E+00  0.00000E+00  9.000E+00
      21    -1     0     0   501   502  0.000000000E+00  0.000000000E+00 -3.338536987E+03  3.338536987E+03  0.000000000E+00  0.00000E+00  9.000E+00
      25     1     1     2     0     0  9.343962293E+00 -3.982577546E+00 -2.892754548E+03  2.895471818E+03  1.250000000E+02  0.00000E+00  9.000E+00
      25     1     1     2     0     0 -4.793068250E+00  1.578503458E+01 -4.125662248E+02  4.314023999E+02  1.250000000E+02  0.00000E+00  9.000E+00
      21     1     1     2   512   502 -4.550894043E+00 -1.180245703E+01 -2.065682347E+01  2.422215895E+01  1.168007728E-06  0.00000E+00  9.000E+00
#rwgt            1           1   2.7993524624462633E-002           6       30179           0
</event>
<event>
      5   9999  3.79277E-02  1.10254E+02 -1.00000E+00  1.21951E-01
      21    -1     0     0   502   501  0.000000000E+00  0.000000000E+00  6.163797538E+02  6.163797538E+02  0.000000000E+00  0.00000E+00  9.000E+00
      21    -1     0     0   511   502  0.000000000E+00  0.000000000E+00 -1.241091316E+02  1.241091316E+02  0.000000000E+00  0.00000E+00  9.000E+00
      25     1     1     2     0     0  2.760589998E+01  6.854958943E+01  4.342748580E+02  4.579091440E+02  1.250000000E+02  0.00000E+00  9.000E+00
      25     1     1     2     0     0 -1.617507735E+01  4.111021480E+01 -3.634914373E+01  1.374697899E+02  1.250000000E+02  0.00000E+00  9.000E+00
      21     1     1     2   511   501 -1.143082263E+01 -1.096598042E+02  9.434490796E+01  1.451099515E+02  1.348699152E-06  0.00000E+00  9.000E+00
#rwgt            1           1   3.4146471727229948E-002           6       30549           0
</event>
<event>
      5   9999  3.79277E-02  3.99216E+01 -1.00000E+00  1.44893E-01
      21    -1     0     0   512   501  0.000000000E+00  0.000000000E+00  1.251359696E+02  1.251359696E+02  0.000000000E+00  0.00000E+00  9.000E+00
      21    -1     0     0   501   502  0.000000000E+00  0.000000000E+00 -1.329136163E+03  1.329136163E+03  0.000000000E+00  0.00000E+00  9.000E+00
      25     1     1     2     0     0 -2.774300717E+02 -1.268723556E+02 -9.929896181E+02  1.046287447E+03  1.250000000E+02  0.00000E+00  9.000E+00
      25     1     1     2     0     0  2.646011967E+02  8.906816150E+01 -1.667988112E+02  3.484160934E+02  1.250000000E+02  0.00000E+00  9.000E+00
      21     1     1     2   512   502  1.282887496E+01  3.780419414E+01 -4.421176414E+01  5.956859252E+01  6.743495762E-07  0.00000E+00  9.000E+00
#rwgt            1           1   5.2783212251430706E-002           6       30634           0
</event>
<event>
      5   9999  3.79277E-02  6.68127E+01 -1.00000E+00  1.32254E-01
      21    -1     0     0   502   501  0.000000000E+00  0.000000000E+00  1.955220670E+02  1.955220670E+02  0.000000000E+00  0.00000E+00  9.000E+00
      21    -1     0     0   501   511  0.000000000E+00  0.000000000E+00 -1.047092658E+03  1.047092658E+03  0.000000000E+00  0.00000E+00  9.000E+00
      25     1     1     2     0     0 -3.717787353E+01  2.489544307E+02 -2.139254439E+01  2.818566015E+02  1.250000000E+02  0.00000E+00  9.000E+00
      25     1     1     2     0     0 -2.961576084E+01 -2.473596870E+02 -2.429695813E+02  3.697609031E+02  1.250000000E+02  0.00000E+00  9.000E+00
      21     1     1     2   502   511  6.679363437E+01 -1.594743644E+00 -5.872084652E+02  5.909972203E+02  0.000000000E+00  0.00000E+00  9.000E+00
#rwgt            1           1   3.9098765547644847E-002           6       30872           0
</event>
<event>
      5   9999  3.79277E-02  3.13557E+01 -1.00000E+00  1.51718E-01
      21    -1     0     0   512   501  0.000000000E+00  0.000000000E+00  1.064017917E+03  1.064017917E+03  0.000000000E+00  0.00000E+00  9.000E+00
      21    -1     0     0   501   502  0.000000000E+00  0.000000000E+00 -6.637168036E+01  6.637168036E+01  0.000000000E+00  0.00000E+00  9.000E+00
      25     1     1     2     0     0 -1.091424690E+02  9.692907817E+00  7.682519357E+01  1.831205651E+02  1.250000000E+02  0.00000E+00  9.000E+00
      25     1     1     2     0     0  1.371653235E+02 -2.376052642E+01  8.398903840E+02  8.604764643E+02  1.250000000E+02  0.00000E+00  9.000E+00
      21     1     1     2   512   502 -2.802285450E+01  1.406761861E+01  8.093065914E+01  8.679256798E+01  1.651812370E-06  0.00000E+00  9.000E+00
#rwgt            1           1   3.7717704227370828E-002           6       31019           0
</event>
<event>
      5   9999  3.79277E-02  2.79072E+01 -1.00000E+00  1.55254E-01
      21    -1     0     0   502   501  0.000000000E+00  0.000000000E+00  4.125375821E+02  4.125375821E+02  0.000000000E+00  0.00000E+00  9.000E+00
      21    -1     0     0   501   511  0.000000000E+00  0.000000000E+00 -1.676387227E+02  1.676387227E+02  0.000000000E+00  0.00000E+00  9.000E+00
      25     1     1     2     0     0  2.997120521E+01 -1.395577207E+02  3.144828674E+02  3.672861343E+02  1.250000000E+02  0.00000E+00  9.000E+00
      25     1     1     2     0     0 -1.958424631E+01  1.136555164E+02 -4.557689314E+01  1.760777451E+02  1.250000000E+02  0.00000E+00  9.000E+00
      21     1     1     2   502   511 -1.038695890E+01  2.590220422E+01 -2.400711495E+01  3.681242544E+01  5.840038640E-07  0.00000E+00  9.000E+00
#rwgt            1           1   4.3249870942855158E-002           6       31209           0
</event>
<event>
      5   9999  3.79277E-02  6.27840E+01 -1.00000E+00  1.33659E-01
      21    -1     0     0   502   501  0.000000000E+00  0.000000000E+00  2.161887152E+02  2.161887152E+02  0.000000000E+00  0.00000E+00  9.000E+00
      21    -1     0     0   501   512  0.000000000E+00  0.000000000E+00 -5.992339605E+02  5.992339605E+02  0.000000000E+00  0.00000E+00  9.000E+00
      25     1     1     2     0     0 -1.371432671E+01 -9.613053162E+01 -2.067290080E+02  2.603671343E+02  1.250000000E+02  0.00000E+00  9.000E+00
      25     1     1     2     0     0 -1.651149666E+01  4.110117688E+01  1.629127627E+02  2.100654767E+02  1.250000000E+02  0.00000E+00  9.000E+00
      21     1     1     2   502   512  3.022582338E+01  5.502935475E+01 -3.392290000E+02  3.449900647E+02  3.814697266E-06  0.00000E+00  9.000E+00
#rwgt            1           1   3.5732793935867813E-002           6       31409           0
</event>
<event>
      5   9999  3.79277E-02  4.45043E+01 -1.00000E+00  1.42023E-01
      21    -1     0     0   502   501  0.000000000E+00  0.000000000E+00  2.815024842E+02  2.815024842E+02  0.000000000E+00  0.00000E+00  9.000E+00
      21    -1     0     0   501   511  0.000000000E+00  0.000000000E+00 -2.106728929E+02  2.106728929E+02  0.000000000E+00  0.00000E+00  9.000E+00
      25     1     1     2     0     0  1.159087809E+02  1.369202945E+02 -2.949908357E+01  2.206291198E+02  1.250000000E+02  0.00000E+00  9.000E+00
      25     1     1     2     0     0 -1.234863715E+02 -9.306580317E+01  1.081745639E+02  2.263556139E+02  1.250000000E+02  0.00000E+00  9.000E+00
      21     1     1     2   502   511  7.577590517E+00 -4.385449134E+01 -7.845888991E+00  4.519064354E+01  9.233911863E-07  0.00000E+00  9.000E+00
#rwgt            1           1   3.5043429810506725E-002           6       31499           0
</event>
<event>
      5   9999  3.79277E-02  7.36947E+01 -1.00000E+00  1.30099E-01
      21    -1     0     0   512   501  0.000000000E+00  0.000000000E+00  1.095192935E+03  1.095192935E+03  0.000000000E+00  0.00000E+00  9.000E+00
      21    -1     0     0   501   502  0.000000000E+00  0.000000000E+00 -6.719928992E+01  6.719928992E+01  0.000000000E+00  0.00000E+00  9.000E+00
      25     1     1     2     0     0  8.444272996E+01 -1.167301585E+02  1.176933706E+02  2.241277182E+02  1.250000000E+02  0.00000E+00  9.000E+00
      25     1     1     2     0     0 -3.082867594E+01  6.616894149E+01  4.682691445E+02  4.901323574E+02  1.250000000E+02  0.00000E+00  9.000E+00
      21     1     1     2   512   502 -5.361405401E+01  5.056121704E+01  4.420311296E+02  4.481321491E+02  7.629394531E-06  0.00000E+00  9.000E+00
#rwgt            1           1   4.7815097097516836E-002           6       31612           0
</event>
<event>
      5   9999  3.79277E-02  4.00549E+01 -1.00000E+00  1.44803E-01
      21    -1     0     0   502   501  0.000000000E+00  0.000000000E+00  1.254594573E+02  1.254594573E+02  0.000000000E+00  0.00000E+00  9.000E+00
      -4    -1     0     0     0   502  0.000000000E+00  0.000000000E+00 -9.716455027E+02  9.716455027E+02  0.000000000E+00  0.00000E+00  9.000E+00
      25     1     1     2     0     0  1.705619291E+02  4.839951869E+01 -1.282137051E+02  2.519873791E+02  1.250000000E+02  0.00000E+00  9.000E+00
      25     1     1     2     0     0 -2.018297387E+02 -2.336522888E+01 -1.635063425E+02  2.892066759E+02  1.250000000E+02  0.00000E+00  9.000E+00
      -4     1     1     2     0   501  3.126780957E+01 -2.503428981E+01 -5.544659978E+02  5.559109050E+02  1.078959322E-05  0.00000E+00  9.000E+00
#rwgt            1           1   3.2444241928275636E-002           6       31899           0
</event>
<event>
      5   9999  3.79277E-02  1.37443E+02 -1.00000E+00  1.17918E-01
      21    -1     0     0   511   501  0.000000000E+00  0.000000000E+00  8.817265477E+02  8.817265477E+02  0.000000000E+00  0.00000E+00  9.000E+00
      21    -1     0     0   501   502  0.000000000E+00  0.000000000E+00 -8.725958170E+01  8.725958170E+01  0.000000000E+00  0.00000E+00  9.000E+00
      25     1     1     2     0     0 -1.070351729E+02 -1.555473413E+02  1.707905800E+02  2.836299100E+02  1.250000000E+02  0.00000E+00  9.000E+00
      25     1     1     2     0     0 -4.623089095E+00  7.540339082E+01  2.980886157E+02  3.319470848E+02  1.250000000E+02  0.00000E+00  9.000E+00
      21     1     1     2   511   502  1.116582620E+02  8.014395045E+01  3.255877703E+02  3.534091346E+02  0.000000000E+00  0.00000E+00  9.000E+00
#rwgt            1           1   3.8449264771038993E-002           6       32062           0
</event>
<event>
      5   9999  3.79277E-02  5.53416E+01 -1.00000E+00  1.36606E-01
      21    -1     0     0   512   501  0.000000000E+00  0.000000000E+00  1.087577503E+02  1.087577503E+02  0.000000000E+00  0.00000E+00  9.000E+00
      21    -1     0     0   501   502  0.000000000E+00  0.000000000E+00 -3.944923718E+02  3.944923718E+02  0.000000000E+00  0.00000E+00  9.000E+00
      25     1     1     2     0     0  5.969601085E+01 -1.094864752E+02 -2.183183063E+02  2.807824510E+02  1.250000000E+02  0.00000E+00  9.000E+00
      25     1     1     2     0     0 -7.565840887E+01  5.649687319E+01 -4.890297341E+01  1.641115240E+02  1.250000000E+02  0.00000E+00  9.000E+00
      21     1     1     2   512   502  1.596239801E+01  5.298960196E+01 -1.851334189E+01  5.835614701E+01  7.539457465E-07  0.00000E+00  9.000E+00
#rwgt            1           1   3.0147518764495670E-002           6       32203           0
</event>
<event>
      5   9999  3.79277E-02  4.48419E+01 -1.00000E+00  1.41828E-01
      21    -1     0     0   502   511  0.000000000E+00  0.000000000E+00  1.689587170E+03  1.689587170E+03  0.000000000E+00  0.00000E+00  9.000E+00
      21    -1     0     0   501   502  0.000000000E+00  0.000000000E+00 -3.160951966E+01  3.160951966E+01  0.000000000E+00  0.00000E+00  9.000E+00
      25     1     1     2     0     0 -1.248476226E+01 -1.408532766E+02  9.691739509E+02  9.873796949E+02  1.250000000E+02  0.00000E+00  9.000E+00
      25     1     1     2     0     0 -7.264804880E+00  1.005947360E+02  2.818624238E+02  3.244125526E+02  1.250000000E+02  0.00000E+00  9.000E+00
      21     1     1     2   501   511  1.974956714E+01  4.025854062E+01  4.069412756E+02  4.094044422E+02  5.394796609E-06  0.00000E+00  9.000E+00
#rwgt            1           1   4.6163949851723826E-002           6       32323           0
</event>
<event>
      5   9999  3.79277E-02  2.28977E+01 -1.00000E+00  1.61662E-01
      21    -1     0     0   512   501  0.000000000E+00  0.000000000E+00  1.448864225E+02  1.448864225E+02  0.000000000E+00  0.00000E+00  9.000E+00
      21    -1     0     0   501   502  0.000000000E+00  0.000000000E+00 -7.594523760E+02  7.594523760E+02  0.000000000E+00  0.00000E+00  9.000E+00
      25     1     1     2     0     0 -1.469809739E+02 -1.252635644E+02 -4.654300759E+02  5.191767742E+02  1.250000000E+02  0.00000E+00  9.000E+00
      25     1     1     2     0     0  1.646530523E+02  1.107031951E+02 -2.133227038E+02  3.170132505E+02  1.250000000E+02  0.00000E+00  9.000E+00
      21     1     1     2   512   502 -1.767207840E+01  1.456036930E+01  6.418682622E+01  6.814877379E+01  1.348699152E-06  0.00000E+00  9.000E+00
#rwgt            1           1   3.4163873005333800E-002           6       32499           0
</event>
<event>
      5   9999  3.79277E-02  1.51102E+02 -1.00000E+00  1.16268E-01
      21    -1     0     0   511   501  0.000000000E+00  0.000000000E+00  1.578872928E+02  1.578872928E+02  0.000000000E+00  0.00000E+00  9.000E+00
      21    -1     0     0   501   502  0.000000000E+00  0.000000000E+00 -1.223297952E+03  1.223297952E+03  0.000000000E+00  0.00000E+00  9.000E+00
      25     1     1     2     0     0 -5.428032932E+01  1.853546113E+02 -9.594637794E+02  9.866602404E+02  1.250000000E+02  0.00000E+00  9.000E+00
      25     1     1     2     0     0 -8.965595717E+01 -1.393746328E+02 -1.248717230E+02  2.422424945E+02  1.250000000E+02  0.00000E+00  9.000E+00
      21     1     1     2   511   502  1.439362865E+02 -4.597997848E+01  1.892484357E+01  1.522825095E+02  4.003728777E-06  0.00000E+00  9.000E+00
#rwgt            1           1   4.7683726908124814E-002           6       32864           0
</event>
<event>
      5   9999  3.79277E-02  4.74498E+02 -1.00000E+00  9.95022E-02
      21    -1     0     0   502   501  0.000000000E+00  0.000000000E+00  1.849328484E+03  1.849328484E+03  0.000000000E+00  0.00000E+00  9.000E+00
       2    -1     0     0   501     0  0.000000000E+00  0.000000000E+00 -6.092487117E+02  6.092487117E+02  0.000000000E+00  0.00000E+00  9.000E+00
      25     1     1     2     0     0 -1.169883270E+02 -4.160026315E+02  1.007077860E+03  1.102984712E+03  1.250000000E+02  0.00000E+00  9.000E+00
      25     1     1     2     0     0 -2.421802865E+02  7.260770130E+02  3.734121140E+02  8.607559044E+02  1.250000000E+02  0.00000E+00  9.000E+00
       2     1     1     2   502     0  3.591686135E+02 -3.100743815E+02 -1.404102024E+02  4.948365791E+02  6.031565972E-06  0.00000E+00  9.000E+00
#rwgt            1           1   2.4496296471323360E-002           6       33256           0
</event>
<event>
      5   9999  3.79277E-02  9.95429E+01 -1.00000E+00  1.23917E-01
      21    -1     0     0   502   501  0.000000000E+00  0.000000000E+00  4.510510242E+02  4.510510242E+02  0.000000000E+00  0.00000E+00  9.000E+00
      21    -1     0     0   511   502  0.000000000E+00  0.000000000E+00 -1.537598877E+02  1.537598877E+02  0.000000000E+00  0.00000E+00  9.000E+00
      25     1     1     2     0     0  1.935862042E+00  3.125350385E+01  3.032036724E+02  3.294510525E+02  1.250000000E+02  0.00000E+00  9.000E+00
      25     1     1     2     0     0 -9.629297020E+01 -6.296360732E+01 -3.102733380E+01  1.726975605E+02  1.250000000E+02  0.00000E+00  9.000E+00
      21     1     1     2   511   501  9.435710816E+01  3.171010347E+01  2.511479794E+01  1.026622988E+02  1.390207266E-06  0.00000E+00  9.000E+00
#rwgt            1           1   3.8914665505637498E-002           6       33336           0
</event>
<event>
      5   9999  3.79277E-02  1.57594E+02 -1.00000E+00  1.15550E-01
       2    -1     0     0   502     0  0.000000000E+00  0.000000000E+00  2.821011937E+03  2.821011937E+03  0.000000000E+00  0.00000E+00  9.000E+00
      21    -1     0     0   501   502  0.000000000E+00  0.000000000E+00 -3.062784657E+02  3.062784657E+02  0.000000000E+00  0.00000E+00  9.000E+00
      25     1     1     2     0     0  2.647280334E+02 -1.390373689E+02  4.474867595E+01  3.271693225E+02  1.250000000E+02  0.00000E+00  9.000E+00
      25     1     1     2     0     0 -1.624237515E+02  2.589112174E+02  5.151114859E+00  3.302544891E+02  1.250000000E+02  0.00000E+00  9.000E+00
       2     1     1     2   501     0 -1.023042818E+02 -1.198738485E+02  2.464833681E+03  2.469866591E+03  0.000000000E+00  0.00000E+00  9.000E+00
#rwgt            1           1   3.5898091571561645E-002           6       33376           0
</event>
<event>
      5   9999  3.79277E-02  8.36419E+00 -1.00000E+00  2.05174E-01
      21    -1     0     0   502   511  0.000000000E+00  0.000000000E+00  1.200813870E+02  1.200813870E+02  0.000000000E+00  0.00000E+00  9.000E+00
      21    -1     0     0   501   502  0.000000000E+00  0.000000000E+00 -9.162783790E+02  9.162783790E+02  0.000000000E+00  0.00000E+00  9.000E+00
      25     1     1     2     0     0  8.899542731E+01 -1.075125983E+02 -3.897369866E+02  4.324338835E+02  1.250000000E+02  0.00000E+00  9.000E+00
      25     1     1     2     0     0 -8.577735918E+01  9.979225491E+01 -4.886725806E+02  5.212889223E+02  1.250000000E+02  0.00000E+00  9.000E+00
      21     1     1     2   501   511 -3.218068128E+00  7.720343347E+00  8.221257519E+01  8.263696015E+01  9.536743164E-07  0.00000E+00  9.000E+00
#rwgt            1           1  0.21863473899617433                6       33485           0
</event>
<event>
      5   9999  3.79277E-02  2.40177E+02 -1.00000E+00  1.08828E-01
      21    -1     0     0   502   501  0.000000000E+00  0.000000000E+00  7.037303863E+01  7.037303863E+01  0.000000000E+00  0.00000E+00  9.000E+00
      21    -1     0     0   512   502  0.000000000E+00  0.000000000E+00 -3.903972131E+03  3.903972131E+03  0.000000000E+00  0.00000E+00  9.000E+00
      25     1     1     2     0     0 -1.295635219E+02  2.225506750E+01 -6.945243182E+02  7.178238104E+02  1.250000000E+02  0.00000E+00  9.000E+00
      25     1     1     2     0     0  6.684620978E+01 -2.540989821E+02 -3.414528029E+02  4.486086547E+02  1.250000000E+02  0.00000E+00  9.000E+00
      21     1     1     2   512   501  6.271731213E+01  2.318439146E+02 -2.797621971E+03  2.807912704E+03  6.103515625E-05  0.00000E+00  9.000E+00
#rwgt            1           1   3.6818011035778982E-002           6       33717           0
</event>
<event>
      5   9999  3.79277E-02  1.42769E+01 -1.00000E+00  1.79429E-01
      21    -1     0     0   511   501  0.000000000E+00  0.000000000E+00  4.657459600E+01  4.657459600E+01  0.000000000E+00  0.00000E+00  9.000E+00
      21    -1     0     0   501   502  0.000000000E+00  0.000000000E+00 -1.336774042E+03  1.336774042E+03  0.000000000E+00  0.00000E+00  9.000E+00
      25     1     1     2     0     0  5.144696674E+01  4.358647596E+01 -1.188254734E+03  1.196712532E+03  1.250000000E+02  0.00000E+00  9.000E+00
      25     1     1     2     0     0 -5.918992814E+01 -3.159167101E+01 -8.987002351E+01  1.679377932E+02  1.250000000E+02  0.00000E+00  9.000E+00
      21     1     1     2   511   502  7.742961407E+00 -1.199480496E+01 -1.207468831E+01  1.869831263E+01  2.920019320E-07  0.00000E+00  9.000E+00
#rwgt            1           1   4.4822892353594698E-002           6       33783           0
</event>
<event>
      5   9999  3.79277E-02  1.13862E+01 -1.00000E+00  1.89458E-01
      21    -1     0     0   502   501  0.000000000E+00  0.000000000E+00  1.585454660E+02  1.585454660E+02  0.000000000E+00  0.00000E+00  9.000E+00
      21    -1     0     0   512   502  0.000000000E+00  0.000000000E+00 -2.986062774E+02  2.986062774E+02  0.000000000E+00  0.00000E+00  9.000E+00
      25     1     1     2     0     0 -1.050706091E+02  1.272341860E+02 -5.939442520E+01  2.153626447E+02  1.250000000E+02  0.00000E+00  9.000E+00
      25     1     1     2     0     0  1.100502893E+02 -1.374737553E+02 -7.257470364E+01  2.278205153E+02  1.250000000E+02  0.00000E+00  9.000E+00
      21     1     1     2   512   501 -4.979680229E+00  1.023956935E+01 -8.091682505E+00  1.396858337E+01  0.000000000E+00  0.00000E+00  9.000E+00
#rwgt            1           1  0.18718614982574047                6       34010           0
</event>
<event>
      5   9999  3.79277E-02  1.04598E+01 -1.00000E+00  1.93527E-01
       2    -1     0     0   502     0  0.000000000E+00  0.000000000E+00  1.032899680E+03  1.032899680E+03  0.000000000E+00  0.00000E+00  9.000E+00
      21    -1     0     0   501   502  0.000000000E+00  0.000000000E+00 -1.033062814E+02  1.033062814E+02  0.000000000E+00  0.00000E+00  9.000E+00
      25     1     1     2     0     0  8.621909275E+01 -2.329287814E+01  2.424272880E+02  2.870057144E+02  1.250000000E+02  0.00000E+00  9.000E+00
      25     1     1     2     0     0 -9.592473580E+01  2.719253026E+01 -2.047975979E+00  1.599067942E+02  1.250000000E+02  0.00000E+00  9.000E+00
       2     1     1     2   501     0  9.705643047E+00 -3.899652116E+00  6.892140865E+02  6.892934526E+02  1.078959322E-05  0.00000E+00  9.000E+00
#rwgt            1           1   3.6088453124089759E-002           6       34367           0
</event>
<event>
      5   9999  3.79277E-02  8.35774E+01 -1.00000E+00  1.27437E-01
      21    -1     0     0   502   511  0.000000000E+00  0.000000000E+00  4.956449345E+02  4.956449345E+02  0.000000000E+00  0.00000E+00  9.000E+00
      21    -1     0     0   501   502  0.000000000E+00  0.000000000E+00 -6.297148082E+02  6.297148082E+02  0.000000000E+00  0.00000E+00  9.000E+00
      25     1     1     2     0     0 -1.154187169E+01 -4.357602097E+02 -1.373496228E+02  4.738249614E+02  1.250000000E+02  0.00000E+00  9.000E+00
      25     1     1     2     0     0 -7.041562049E+01  4.521353322E+02 -1.321288104E+02  4.924101347E+02  1.250000000E+02  0.00000E+00  9.000E+00
      21     1     1     2   501   511  8.195749218E+01 -1.637512246E+01  1.354085595E+02  1.591246466E+02  3.303624740E-06  0.00000E+00  9.000E+00
#rwgt            1           1  0.15659951566175381                6       34638           0
</event>
<event>
      5   9999  3.79277E-02  1.13554E+02 -1.00000E+00  1.21395E-01
      21    -1     0     0   502   512  0.000000000E+00  0.000000000E+00  7.440624596E+02  7.440624596E+02  0.000000000E+00  0.00000E+00  9.000E+00
      21    -1     0     0   501   502  0.000000000E+00  0.000000000E+00 -1.945972238E+02  1.945972238E+02  0.000000000E+00  0.00000E+00  9.000E+00
      25     1     1     2     0     0 -5.533796898E+01  3.553711572E+01  5.595282471E+02  5.770806155E+02  1.250000000E+02  0.00000E+00  9.000E+00
      25     1     1     2     0     0 -6.507672658E+00 -1.307714766E+02 -1.087149240E+02  2.111574380E+02  1.250000000E+02  0.00000E+00  9.000E+00
      21     1     1     2   501   512  6.184564164E+01  9.523436089E+01  9.865191266E+01  1.504216299E+02  1.348699152E-06  0.00000E+00  9.000E+00
#rwgt            1           1   4.9970979439399536E-002           6       34715           0
</event>
<event>
      5   9999  3.79277E-02  4.55950E+01 -1.00000E+00  1.41400E-01
      21    -1     0     0   502   501  0.000000000E+00  0.000000000E+00  3.128681094E+02  3.128681094E+02  0.000000000E+00  0.00000E+00  9.000E+00
      21    -1     0     0   501   511  0.000000000E+00  0.000000000E+00 -4.811561988E+02  4.811561988E+02  0.000000000E+00  0.00000E+00  9.000E+00
      25     1     1     2     0     0  3.070887444E+02  1.298617022E+01  1.063073530E+02  3.484227186E+02  1.250000000E+02  0.00000E+00  9.000E+00
      25     1     1     2     0     0 -2.725998725E+02  1.683705800E+01 -2.098384653E+02  3.664032731E+02  1.250000000E+02  0.00000E+00  9.000E+00
      21     1     1     2   502   511 -3.448887189E+01 -2.982322822E+01 -6.475697718E+01  7.919831639E+01  1.348699152E-06  0.00000E+00  9.000E+00
#rwgt            1           1  0.12253779625990298                6       34829           0
</event>
<event>
      5   9999  3.79277E-02  5.05969E+01 -1.00000E+00  1.38782E-01
      21    -1     0     0   502   501  0.000000000E+00  0.000000000E+00  2.465514747E+02  2.465514747E+02  0.000000000E+00  0.00000E+00  9.000E+00
      21    -1     0     0   501   512  0.000000000E+00  0.000000000E+00 -3.528289528E+02  3.528289528E+02  0.000000000E+00  0.00000E+00  9.000E+00
      25     1     1     2     0     0 -2.564745491E+01 -1.292400883E+02  1.472313109E+02  2.338008796E+02  1.250000000E+02  0.00000E+00  9.000E+00
      25     1     1     2     0     0  1.677004399E+01  7.942808016E+01 -5.206567520E+01  1.578793490E+02  1.250000000E+02  0.00000E+00  9.000E+00
      21     1     1     2   502   512  8.877410924E+00  4.981200819E+01 -2.014431138E+02  2.077001990E+02  0.000000000E+00  0.00000E+00  9.000E+00
#rwgt            1           1   4.0075993321691365E-002           6       35027           0
</event>
<event>
      5   9999  3.79277E-02  6.73991E+01 -1.00000E+00  1.32059E-01
      21    -1     0     0   502   511  0.000000000E+00  0.000000000E+00  5.418966235E+02  5.418966235E+02  0.000000000E+00  0.00000E+00  9.000E+00
      21    -1     0     0   501   502  0.000000000E+00  0.000000000E+00 -8.341395967E+01  8.341395967E+01  0.000000000E+00  0.00000E+00  9.000E+00
      25     1     1     2     0     0 -6.133610310E+01 -1.056639722E+02  7.838080773E+01  1.915608091E+02  1.250000000E+02  0.00000E+00  9.000E+00
      25     1     1     2     0     0  3.502625762E+01  4.361215984E+01  2.091911280E+02  2.500295727E+02  1.250000000E+02  0.00000E+00  9.000E+00
      21     1     1     2   501   511  2.630984548E+01  6.205181239E+01  1.709107281E+02  1.837202013E+02  1.907348633E-06  0.00000E+00  9.000E+00
#rwgt            1           1   4.4510666602532632E-002           6       35104           0
</event>
<event>
      5   9999  3.79277E-02  3.98617E+01 -1.00000E+00  1.44934E-01
      21    -1     0     0   502   501  0.000000000E+00  0.000000000E+00  2.644864878E+02  2.644864878E+02  0.000000000E+00  0.00000E+00  9.000E+00
      21    -1     0     0   501   512  0.000000000E+00  0.000000000E+00 -2.901985381E+02  2.901985381E+02  0.000000000E+00  0.00000E+00  9.000E+00
      25     1     1     2     0     0 -1.642278931E+02  8.918825476E+01 -1.346524381E+02  2.620717931E+02  1.250000000E+02  0.00000E+00  9.000E+00
      25     1     1     2     0     0  1.410767846E+02 -1.216378813E+02  1.153362526E+02  2.522417183E+02  1.250000000E+02  0.00000E+00  9.000E+00
      21     1     1     2   502   512  2.315110854E+01  3.244962655E+01 -6.395864710E+00  4.037151440E+01  2.384185791E-07  0.00000E+00  9.000E+00
#rwgt            1           1   3.5090893066961809E-002           6       35188           0
</event>
<event>
      5   9999  3.79277E-02  5.98140E+01 -1.00000E+00  1.34775E-01
      21    -1     0     0   502   501  0.000000000E+00  0.000000000E+00  2.376555006E+02  2.376555006E+02  0.000000000E+00  0.00000E+00  9.000E+00
       1    -1     0     0   501     0  0.000000000E+00  0.000000000E+00 -5.922481557E+02  5.922481557E+02  0.000000000E+00  0.00000E+00  9.000E+00
      25     1     1     2     0     0  1.145903936E+02  7.095742144E+01  1.389321552E+02  2.304193084E+02  1.250000000E+02  0.00000E+00  9.000E+00
      25     1     1     2     0     0 -9.929899662E+01 -1.287838304E+02 -1.586444080E+02  2.593040954E+02  1.250000000E+02  0.00000E+00  9.000E+00
       1     1     1     2   502     0 -1.529139693E+01  5.782640898E+01 -3.348804023E+02  3.401802525E+02  0.000000000E+00  0.00000E+00  9.000E+00
#rwgt            1           1   2.5852835703116060E-002           6       35328           0
</event>
<event>
      5   9999  3.79277E-02  1.62129E+01 -1.00000E+00  1.74260E-01
      21    -1     0     0   502   511  0.000000000E+00  0.000000000E+00  4.075374980E+02  4.075374980E+02  0.000000000E+00  0.00000E+00  9.000E+00
      21    -1     0     0   501   502  0.000000000E+00  0.000000000E+00 -1.422874131E+02  1.422874131E+02  0.000000000E+00  0.00000E+00  9.000E+00
      25     1     1     2     0     0 -1.883162676E+01  4.141049391E+01  2.272693276E+02  2.633359194E+02  1.250000000E+02  0.00000E+00  9.000E+00
      25     1     1     2     0     0  5.860848229E+00 -3.168339168E+01 -9.007809121E+01  1.574079076E+02  1.250000000E+02  0.00000E+00  9.000E+00
      21     1     1     2   501   511  1.297077853E+01 -9.727102226E+00  1.280588485E+02  1.290810841E+02  0.000000000E+00  0.00000E+00  9.000E+00
#rwgt            1           1   3.9282029994266866E-002           6       35472           0
</event>
<event>
      5   9999  3.79277E-02  1.03269E+02 -1.00000E+00  1.23203E-01
      21    -1     0     0   502   501  0.000000000E+00  0.000000000E+00  3.008239096E+02  3.008239096E+02  0.000000000E+00  0.00000E+00  9.000E+00
       2    -1     0     0   501     0  0.000000000E+00  0.000000000E+00 -1.473685576E+03  1.473685576E+03  0.000000000E+00  0.00000E+00  9.000E+00
      25     1     1     2     0     0 -4.187686422E+01 -1.575637312E+02  1.077106997E+02  2.319624883E+02  1.250000000E+02  0.00000E+00  9.000E+00
      25     1     1     2     0     0 -2.869171534E+01  8.216806917E+01  8.408825416E+01  1.739845988E+02  1.250000000E+02  0.00000E+00  9.000E+00
       2     1     1     2   502     0  7.056857956E+01  7.539566203E+01 -1.364660620E+03  1.368562398E+03  1.525878906E-05  0.00000E+00  9.000E+00
#rwgt            1           1   4.8375741267952591E-002           6       35679           0
</event>
<event>
      5   9999  3.79277E-02  9.05631E+01 -1.00000E+00  1.25796E-01
      21    -1     0     0   502   501  0.000000000E+00  0.000000000E+00  5.382593909E+02  5.382593909E+02  0.000000000E+00  0.00000E+00  9.000E+00
      21    -1     0     0   501   511  0.000000000E+00  0.000000000E+00 -1.528428535E+02  1.528428535E+02  0.000000000E+00  0.00000E+00  9.000E+00
      25     1     1     2     0     0  2.160116930E+01  1.434229500E+02  7.258021167E+01  2.047672831E+02  1.250000000E+02  0.00000E+00  9.000E+00
      25     1     1     2     0     0 -6.271074127E+01 -6.272798824E+01  3.548229946E+02  3.865123479E+02  1.250000000E+02  0.00000E+00  9.000E+00
      21     1     1     2   502   511  4.110957197E+01 -8.069496180E+01 -4.198666893E+01  9.982261335E+01  1.348699152E-06  0.00000E+00  9.000E+00
#rwgt            1           1   3.8325513597138372E-002           6       35754           0
</event>
<event>
      5   9999  3.79277E-02  3.15896E+01 -1.00000E+00  1.51499E-01
      21    -1     0     0   502   501  0.000000000E+00  0.000000000E+00  1.050687072E+02  1.050687072E+02  0.000000000E+00  0.00000E+00  9.000E+00
      21    -1     0     0   512   502  0.000000000E+00  0.000000000E+00 -4.339401222E+02  4.339401222E+02  0.000000000E+00  0.00000E+00  9.000E+00
      25     1     1     2     0     0  9.757628107E+01  4.825278157E+00 -2.535460707E+02  2.990903274E+02  1.250000000E+02  0.00000E+00  9.000E+00
      25     1     1     2     0     0 -1.279059387E+02 -1.365774502E+01 -2.584843481E+01  1.812170100E+02  1.250000000E+02  0.00000E+00  9.000E+00
      21     1     1     2   512   501  3.032965758E+01  8.832466862E+00 -4.947690949E+01  5.870149208E+01  0.000000000E+00  0.00000E+00  9.000E+00
#rwgt            1           1   4.0503317283934949E-002           6       35797           0
</event>
<event>
      5   9999  3.79277E-02  9.56624E+00 -1.00000E+00  1.98010E-01
      21    -1     0     0   511   501  0.000000000E+00  0.000000000E+00  3.083049938E+02  3.083049938E+02  0.000000000E+00  0.00000E+00  9.000E+00
      21    -1     0     0   501   502  0.000000000E+00  0.000000000E+00 -3.303391362E+02  3.303391362E+02  0.000000000E+00  0.00000E+00  9.000E+00
      25     1     1     2     0     0  4.504905747E+01 -1.321379164E+02 -1.520399338E+02  2.413109778E+02  1.250000000E+02  0.00000E+00  9.000E+00
      25     1     1     2     0     0 -3.603797866E+01  1.289264684E+02 -7.075341085E+01  1.963461620E+02  1.250000000E+02  0.00000E+00  9.000E+00
      21     1     1     2   511   502 -9.011078806E+00  3.211447935E+00  2.007592023E+02  2.009869903E+02  3.814697266E-06  0.00000E+00  9.000E+00
#rwgt            1           1   2.2542400893102582E-002           6       35937           0
</event>
<event>
      5   9999  3.79277E-02  1.92852E+01 -1.00000E+00  1.67684E-01
      21    -1     0     0   502   501  0.000000000E+00  0.000000000E+00  3.711241301E+02  3.711241301E+02  0.000000000E+00  0.00000E+00  9.000E+00
      21    -1     0     0   512   502  0.000000000E+00  0.000000000E+00 -8.818902455E+02  8.818902455E+02  0.000000000E+00  0.00000E+00  9.000E+00
      25     1     1     2     0     0  8.407743584E+01 -7.889730143E+01  2.644777128E+02  3.144316459E+02  1.250000000E+02  0.00000E+00  9.000E+00
      25     1     1     2     0     0 -6.665436606E+01  7.062956041E+01  4.737695478E+00  1.583628273E+02  1.250000000E+02  0.00000E+00  9.000E+00
      21     1     1     2   512   501 -1.742306978E+01  8.267741027E+00 -7.799815236E+02  7.802199024E+02  0.000000000E+00  0.00000E+00  9.000E+00
#rwgt            1           1   1.5499892754368756E-002           6       36168           0
</event>
<event>
      5   9999  3.79277E-02  1.46215E+01 -1.00000E+00  1.78436E-01
      21    -1     0     0   511   501  0.000000000E+00  0.000000000E+00  1.726521679E+02  1.726521679E+02  0.000000000E+00  0.00000E+00  9.000E+00
      21    -1     0     0   501   502  0.000000000E+00  0.000000000E+00 -5.806168641E+02  5.806168641E+02  0.000000000E+00  0.00000E+00  9.000E+00
      25     1     1     2     0     0  8.873307695E+01 -2.625797543E+02 -2.943372864E+02  4.231797779E+02  1.250000000E+02  0.00000E+00  9.000E+00
      25     1     1     2     0     0 -8.439460563E+01  2.486167810E+02 -1.194299589E+02  3.143585029E+02  1.250000000E+02  0.00000E+00  9.000E+00
      21     1     1     2   511   502 -4.338471319E+00  1.396297330E+01  5.802549112E+00  1.573075119E+01  0.000000000E+00  0.00000E+00  9.000E+00
#rwgt            1           1   8.5414517534565915E-002           6       36406           0
</event>
<event>
      5   9999  3.79277E-02  3.77919E+01 -1.00000E+00  1.46386E-01
      21    -1     0     0   502   512  0.000000000E+00  0.000000000E+00  8.067777407E+01  8.067777407E+01  0.000000000E+00  0.00000E+00  9.000E+00
      21    -1     0     0   501   502  0.000000000E+00  0.000000000E+00 -8.019172364E+02  8.019172364E+02  0.000000000E+00  0.00000E+00  9.000E+00
      25     1     1     2     0     0 -1.141290769E+02  1.190052000E+02 -2.073480317E+02  2.929264243E+02  1.250000000E+02  0.00000E+00  9.000E+00
      25     1     1     2     0     0  1.246887413E+02 -1.552918558E+02 -4.936694622E+02  5.468065294E+02  1.250000000E+02  0.00000E+00  9.000E+00
      21     1     1     2   501   512 -1.055966438E+01  3.628665582E+01 -2.022196843E+01  4.286205676E+01  9.536743164E-07  0.00000E+00  9.000E+00
#rwgt            1           1   4.2609910396893678E-002           6       36647           0
</event>
<event>
      5   9999  3.79277E-02  4.84482E+01 -1.00000E+00  1.39861E-01
      21    -1     0     0   502   501  0.000000000E+00  0.000000000E+00  3.096453330E+02  3.096453330E+02  0.000000000E+00  0.00000E+00  9.000E+00
      21    -1     0     0   511   502  0.000000000E+00  0.000000000E+00 -2.898637250E+02  2.898637250E+02  0.000000000E+00  0.00000E+00  9.000E+00
      25     1     1     2     0     0 -3.282662969E+01 -1.619520110E+02  2.168839869E+02  2.999495045E+02  1.250000000E+02  0.00000E+00  9.000E+00
      25     1     1     2     0     0  2.329008929E+01  1.144516693E+02 -1.796233479E+02  2.480547520E+02  1.250000000E+02  0.00000E+00  9.000E+00
      21     1     1     2   511   501  9.536540399E+00  4.750034167E+01 -1.747903102E+01  5.150480159E+01  9.830249847E-07  0.00000E+00  9.000E+00
#rwgt            1           1   4.8216567606664665E-002           6       36789           0
</event>
<event>
      5   9999  3.79277E-02  1.06334E+02 -1.00000E+00  1.22640E-01
      21    -1     0     0   512   501  0.000000000E+00  0.000000000E+00  2.787887301E+01  2.787887301E+01  0.000000000E+00  0.00000E+00  9.000E+00
      21    -1     0     0   501   502  0.000000000E+00  0.000000000E+00 -3.185843017E+03  3.185843017E+03  0.000000000E+00  0.00000E+00  9.000E+00
      25     1     1     2     0     0  2.453526578E+02  4.937943864E+01 -1.729320031E+03  1.751801651E+03  1.250000000E+02  0.00000E+00  9.000E+00
      25     1     1     2     0     0 -1.446296209E+02 -1.529571271E+01 -1.097309890E+03  1.113941506E+03  1.250000000E+02  0.00000E+00  9.000E+00
      21     1     1     2   512   502 -1.007230369E+02 -3.408372592E+01 -3.313342234E+02  3.479787323E+02  3.814697266E-06  0.00000E+00  9.000E+00
#rwgt            1           1   4.2170749097750419E-002           6       37049           0
</event>
<event>
      5   9999  3.79277E-02  1.03733E+02 -1.00000E+00  1.23116E-01
      21    -1     0     0   502   501  0.000000000E+00  0.000000000E+00  2.059523624E+02  2.059523624E+02  0.000000000E+00  0.00000E+00  9.000E+00
      21    -1     0     0   501   511  0.000000000E+00  0.000000000E+00 -5.039219243E+02  5.039219243E+02  0.000000000E+00  0.00000E+00  9.000E+00
      25     1     1     2     0     0  6.153408087E+01  1.596099513E+02 -1.085120650E+02  2.380370726E+02  1.250000000E+02  0.00000E+00  9.000E+00
      25     1     1     2     0     0 -4.344610589E+01 -5.746576897E+01  9.251559866E+01  1.713884906E+02  1.250000000E+02  0.00000E+00  9.000E+00
      21     1     1     2   502   511 -1.808797498E+01 -1.021441823E+02 -2.819730955E+02  3.004487234E+02  5.394796609E-06  0.00000E+00  9.000E+00
#rwgt            1           1   4.4392704347728282E-002           6       37155           0
</event>
<event>
      5   9999  3.79277E-02  2.03234E+02 -1.00000E+00  1.11395E-01
      21    -1     0     0   502   501  0.000000000E+00  0.000000000E+00  1.912504974E+02  1.912504974E+02  0.000000000E+00  0.00000E+00  9.000E+00
      21    -1     0     0   512   502  0.000000000E+00  0.000000000E+00 -6.917672401E+02  6.917672401E+02  0.000000000E+00  0.00000E+00  9.000E+00
      25     1     1     2     0     0 -1.830822858E+02  1.640941726E+02 -3.463073147E+01  2.779753737E+02  1.250000000E+02  0.00000E+00  9.000E+00
      25     1     1     2     0     0  9.288050835E+01  1.802600631E+01 -3.152195188E+02  3.520512331E+02  1.250000000E+02  0.00000E+00  9.000E+00
      21     1     1     2   512   501  9.020177744E+01 -1.821201789E+02 -1.506664924E+02  2.529911306E+02  0.000000000E+00  0.00000E+00  9.000E+00
#rwgt            2          11   1.9044956968475204E-003           6       37243           0
</event>
<event>
      5   9999  3.79277E-02  1.13880E+02 -1.00000E+00  1.21341E-01
      21    -1     0     0   502   501  0.000000000E+00  0.000000000E+00  4.457484260E+02  4.457484260E+02  0.000000000E+00  0.00000E+00  9.000E+00
      21    -1     0     0   511   502  0.000000000E+00  0.000000000E+00 -2.943886356E+02  2.943886356E+02  0.000000000E+00  0.00000E+00  9.000E+00
      25     1     1     2     0     0 -1.747440704E+02 -5.555488611E+01  6.771715273E+01  2.320182068E+02  1.250000000E+02  0.00000E+00  9.000E+00
      25     1     1     2     0     0  1.035570280E+02 -3.333288772E+01  2.539568057E+02  3.032395070E+02  1.250000000E+02  0.00000E+00  9.000E+00
      21     1     1     2   511   501  7.118704232E+01  8.888777384E+01 -1.703141681E+02  2.048793478E+02  0.000000000E+00  0.00000E+00  9.000E+00
#rwgt            1           1   3.5604675314031345E-002           6       37293           0
</event>
<event>
      5   9999  3.79277E-02  1.31303E+02 -1.00000E+00  1.18732E-01
      21    -1     0     0   502   501  0.000000000E+00  0.000000000E+00  1.123030632E+03  1.123030632E+03  0.000000000E+00  0.00000E+00  9.000E+00
      21    -1     0     0   501   512  0.000000000E+00  0.000000000E+00 -3.562512533E+02  3.562512533E+02  0.000000000E+00  0.00000E+00  9.000E+00
      25     1     1     2     0     0 -4.581364058E+01 -2.953338078E+02  5.374015106E+02  6.274920966E+02  1.250000000E+02  0.00000E+00  9.000E+00
      25     1     1     2     0     0  9.414079086E+01  1.732482495E+02  4.995452287E+02  5.514053681E+02  1.250000000E+02  0.00000E+00  9.000E+00
      21     1     1     2   502   512 -4.832715028E+01  1.220855583E+02 -2.701673610E+02  3.003844203E+02  5.394796609E-06  0.00000E+00  9.000E+00
#rwgt            2          11   4.4982381784344763E-003           6       37443           0
</event>
<event>
      5   9999  3.79277E-02  8.41794E+01 -1.00000E+00  1.27288E-01
       1    -1     0     0   502     0  0.000000000E+00  0.000000000E+00  2.710450778E+02  2.710450778E+02  0.000000000E+00  0.00000E+00  9.000E+00
      21    -1     0     0   501   502  0.000000000E+00  0.000000000E+00 -3.016892438E+02  3.016892438E+02  0.000000000E+00  0.00000E+00  9.000E+00
      25     1     1     2     0     0  1.817778925E+01 -2.166204306E+02 -1.315351491E+02  2.831630951E+02  1.250000000E+02  0.00000E+00  9.000E+00
      25     1     1     2     0     0  9.539934859E+00  1.371352161E+02  5.539092587E+01  1.938820067E+02  1.250000000E+02  0.00000E+00  9.000E+00
       1     1     1     2   501     0 -2.771772411E+01  7.948521453E+01  4.550005729E+01  9.568921973E+01  1.651812370E-06  0.00000E+00  9.000E+00
#rwgt            1           1   3.9403380867147397E-002           6       37538           0
</event>
<event>
      5   9999  3.79277E-02  4.96647E+01 -1.00000E+00  1.39242E-01
      21    -1     0     0   502   501  0.000000000E+00  0.000000000E+00  1.163333418E+02  1.163333418E+02  0.000000000E+00  0.00000E+00  9.000E+00
      21    -1     0     0   501   511  0.000000000E+00  0.000000000E+00 -6.087058190E+02  6.087058190E+02  0.000000000E+00  0.00000E+00  9.000E+00
      25     1     1     2     0     0 -9.615357886E+01 -1.150298783E+02 -8.153112997E+01  2.115412697E+02  1.250000000E+02  0.00000E+00  9.000E+00
      25     1     1     2     0     0  9.691822784E+01  1.646886999E+02 -2.228814087E+02  3.190871873E+02  1.250000000E+02  0.00000E+00  9.000E+00
      21     1     1     2   502   511 -7.646489743E-01 -4.965882161E+01 -1.879599385E+02  1.944107038E+02  0.000000000E+00  0.00000E+00  9.000E+00
#rwgt            1           1   3.6058675454370456E-002           6       37605           0
</event>
<event>
      5   9999  3.79277E-02  1.64796E+01 -1.00000E+00  1.73619E-01
      21    -1     0     0   502   501  0.000000000E+00  0.000000000E+00  6.046703719E+02  6.046703719E+02  0.000000000E+00  0.00000E+00  9.000E+00
      21    -1     0     0   512   502  0.000000000E+00  0.000000000E+00 -1.591744712E+02  1.591744712E+02  0.000000000E+00  0.00000E+00  9.000E+00
      25     1     1     2     0     0  1.476773220E+02  9.853355145E+01  7.258863525E+01  2.289357162E+02  1.250000000E+02  0.00000E+00  9.000E+00
      25     1     1     2     0     0 -1.603456311E+02 -1.090735172E+02  4.231879676E+02  4.819966904E+02  1.250000000E+02  0.00000E+00  9.000E+00
      21     1     1     2   512   501  1.266830911E+01  1.053996575E+01 -5.028070218E+01  5.291243658E+01  1.168007728E-06  0.00000E+00  9.000E+00
#rwgt            2          11   5.5854214177039629E-004           6       37855           0
</event>
<event>
      5   9999 -3.79277E-02  4.18804E+01 -1.00000E+00  1.43614E-01
      21    -1     0     0   502   501  0.000000000E+00  0.000000000E+00  1.827043163E+02  1.827043163E+02  0.000000000E+00  0.00000E+00  9.000E+00
      21    -1     0     0   501   511  0.000000000E+00  0.000000000E+00 -2.594406495E+02  2.594406495E+02  0.000000000E+00  0.00000E+00  9.000E+00
      25     1     1     2     0     0 -1.820877426E+01  6.855092075E+01 -4.992288074E+01  1.521449382E+02  1.250000000E+02  0.00000E+00  9.000E+00
      25     1     1     2     0     0 -1.577819468E+01 -9.302233344E+01  7.957284849E+01  1.756671403E+02  1.250000000E+02  0.00000E+00  9.000E+00
      21     1     1     2   502   511  3.398696894E+01  2.447141269E+01 -1.063863009E+02  1.143328873E+02  1.348699152E-06  0.00000E+00  9.000E+00
#rwgt            1           1  -2.9382016530665626E-002           6       38025           0
</event>
<event>
      5   9999 -3.79277E-02  1.95477E+01 -1.00000E+00  1.67193E-01
      21    -1     0     0   502   501  0.000000000E+00  0.000000000E+00  8.203222632E+02  8.203222632E+02  0.000000000E+00  0.00000E+00  9.000E+00
      21    -1     0     0   512   502  0.000000000E+00  0.000000000E+00 -8.854917071E+01  8.854917071E+01  0.000000000E+00  0.00000E+00  9.000E+00
      25     1     1     2     0     0 -1.031521644E+02 -1.934526895E+02  2.276647592E+02  3.398831485E+02  1.250000000E+02  0.00000E+00  9.000E+00
      25     1     1     2     0     0  1.024614872E+02  1.739171830E+02  4.911767324E+02  5.455502959E+02  1.250000000E+02  0.00000E+00  9.000E+00
      21     1     1     2   512   501  6.906771789E-01  1.953550645E+01  1.293160093E+01  2.343798946E+01  3.371747881E-07  0.00000E+00  9.000E+00
#rwgt            1           1 -0.30564301224478890                6       38167           0
</event>
<event>
      5   9999  3.79277E-02  1.41247E+02 -1.00000E+00  1.17438E-01
      21    -1     0     0   511   501  0.000000000E+00  0.000000000E+00  2.851507712E+02  2.851507712E+02  0.000000000E+00  0.00000E+00  9.000E+00
      21    -1     0     0   501   502  0.000000000E+00  0.000000000E+00 -3.626125928E+02  3.626125928E+02  0.000000000E+00  0.00000E+00  9.000E+00
      25     1     1     2     0     0  1.590885562E+02  5.214607641E+01 -2.511493022E+02  3.266945882E+02  1.250000000E+02  0.00000E+00  9.000E+00
      25     1     1     2     0     0 -2.186844768E+01 -1.865948179E+01  7.270133817E+01  1.474343577E+02  1.250000000E+02  0.00000E+00  9.000E+00
      21     1     1     2   511   502 -1.372201085E+02 -3.348659462E+01  1.009861423E+02  1.736344181E+02  0.000000000E+00  0.00000E+00  9.000E+00
#rwgt            1           1   4.7318746622442481E-002           6       38361           0
</event>
<event>
      5   9999  3.79277E-02  5.07546E+01 -1.00000E+00  1.38705E-01
      21    -1     0     0   502   501  0.000000000E+00  0.000000000E+00  9.128492129E+01  9.128492129E+01  0.000000000E+00  0.00000E+00  9.000E+00
       1    -1     0     0   501     0  0.000000000E+00  0.000000000E+00 -7.220897339E+02  7.220897339E+02  0.000000000E+00  0.00000E+00  9.000E+00
      25     1     1     2     0     0 -9.316014330E+01 -6.771852761E+01 -4.650752532E+02  4.951611883E+02  1.250000000E+02  0.00000E+00  9.000E+00
      25     1     1     2     0     0  9.754777424E+01  1.715390618E+01 -1.619856110E+01  1.603035188E+02  1.250000000E+02  0.00000E+00  9.000E+00
       1     1     1     2   502     0 -4.387630940E+00  5.056462143E+01 -1.495309984E+02  1.579099481E+02  1.907348633E-06  0.00000E+00  9.000E+00
#rwgt            1           1   5.0296353583113212E-002           6       38413           0
</event>
<event>
      5   9999  3.79277E-02  1.41758E+02 -1.00000E+00  1.17375E-01
      21    -1     0     0   502   501  0.000000000E+00  0.000000000E+00  5.999830423E+02  5.999830423E+02  0.000000000E+00  0.00000E+00  9.000E+00
      21    -1     0     0   511   502  0.000000000E+00  0.000000000E+00 -1.759503454E+02  1.759503454E+02  0.000000000E+00  0.00000E+00  9.000E+00
      25     1     1     2     0     0  3.999507332E+01  7.393851018E+01  2.735672381E+02  3.122988039E+02  1.250000000E+02  0.00000E+00  9.000E+00
      25     1     1     2     0     0 -1.669170157E+02 -1.370752103E+02  1.931742973E+02  3.155823388E+02  1.250000000E+02  0.00000E+00  9.000E+00
      21     1     1     2   511   501  1.269219424E+02  6.313670007E+01 -4.270883854E+01  1.480522450E+02  2.336015456E-06  0.00000E+00  9.000E+00
#rwgt            1           1   3.2587809336162482E-002           6       38553           0
</event>
<event>
      5   9999  3.79277E-02  1.29589E+02 -1.00000E+00  1.18968E-01
      21    -1     0     0   502   512  0.000000000E+00  0.000000000E+00  1.018598000E+03  1.018598000E+03  0.000000000E+00  0.00000E+00  9.000E+00
      21    -1     0     0   501   502  0.000000000E+00  0.000000000E+00 -3.222116205E+02  3.222116205E+02  0.000000000E+00  0.00000E+00  9.000E+00
      25     1     1     2     0     0 -1.023894224E+00 -1.210081333E+02  8.635283545E+01  1.942313797E+02  1.250000000E+02  0.00000E+00  9.000E+00
      25     1     1     2     0     0  1.305989113E+02  1.228955740E+02 -2.178494788E+02  3.086143113E+02  1.250000000E+02  0.00000E+00  9.000E+00
      21     1     1     2   501   512 -1.295750170E+02 -1.887440681E+00  8.278830225E+02  8.379639291E+02  1.078959322E-05  0.00000E+00  9.000E+00
#rwgt            2          11   2.8817479218835357E-003           6       39313           0
</event>
<event>
      5   9999  3.79277E-02  7.45096E+01 -1.00000E+00  1.29862E-01
       2    -1     0     0   502     0  0.000000000E+00  0.000000000E+00  2.118985662E+03  2.118985662E+03  0.000000000E+00  0.00000E+00  9.000E+00
      21    -1     0     0   501   502  0.000000000E+00  0.000000000E+00 -4.092887544E+01  4.092887544E+01  0.000000000E+00  0.00000E+00  9.000E+00
      25     1     1     2     0     0  3.375372257E+01  4.577864078E+01  1.019355183E+02  1.710287918E+02  1.250000000E+02  0.00000E+00  9.000E+00
      25     1     1     2     0     0  2.299947105E+01  2.499290790E+00  7.663456097E+02  7.768177493E+02  1.250000000E+02  0.00000E+00  9.000E+00
       2     1     1     2   501     0 -5.675319363E+01 -4.827793157E+01  1.209775658E+03  1.212067996E+03  0.000000000E+00  0.00000E+00  9.000E+00
#rwgt            1           1   3.8064543788965184E-002           6       39363           0
</event>
<event>
      5   9999  3.79277E-02  1.91714E+01 -1.00000E+00  1.67900E-01
      21    -1     0     0   502   501  0.000000000E+00  0.000000000E+00  3.307961119E+01  3.307961119E+01  0.000000000E+00  0.00000E+00  9.000E+00
      21    -1     0     0   511   502  0.000000000E+00  0.000000000E+00 -1.006619382E+03  1.006619382E+03  0.000000000E+00  0.00000E+00  9.000E+00
      25     1     1     2     0     0  6.977248223E+01  4.510857336E+01 -2.247343430E+02  2.702471232E+02  1.250000000E+02  0.00000E+00  9.000E+00
      25     1     1     2     0     0 -8.738194299E+01 -3.752893694E+01 -6.415378370E+02  6.604845353E+02  1.250000000E+02  0.00000E+00  9.000E+00
      21     1     1     2   511   501  1.760946076E+01 -7.579636420E+00 -1.072675912E+02  1.089673351E+02  0.000000000E+00  0.00000E+00  9.000E+00
#rwgt            1           1   3.1055999286797038E-002           6       39552           0
</event>
<event>
      5   9999  3.79277E-02  1.00519E+02 -1.00000E+00  1.23727E-01
      21    -1     0     0   512   501  0.000000000E+00  0.000000000E+00  2.330669067E+02  2.330669067E+02  0.000000000E+00  0.00000E+00  9.000E+00
      21    -1     0     0   501   502  0.000000000E+00  0.000000000E+00 -5.216631398E+02  5.216631398E+02  0.000000000E+00  0.00000E+00  9.000E+00
      25     1     1     2     0     0 -1.217301461E+02  1.893920224E+01  4.495498547E+01  1.811708381E+02  1.250000000E+02  0.00000E+00  9.000E+00
      25     1     1     2     0     0  6.933990440E+01 -1.047256926E+02 -4.104048568E+02  4.470264417E+02  1.250000000E+02  0.00000E+00  9.000E+00
      21     1     1     2   512   502  5.239024173E+01  8.578649039E+01  7.685363826E+01  1.265327668E+02  1.651812370E-06  0.00000E+00  9.000E+00
#rwgt            1           1   4.7270924149480170E-002           6       39728           0
</event>
<event>
      5   9999  3.79277E-02  1.37203E+01 -1.00000E+00  1.81111E-01
      21    -1     0     0   502   501  0.000000000E+00  0.000000000E+00  4.077825239E+02  4.077825239E+02  0.000000000E+00  0.00000E+00  9.000E+00
      21    -1     0     0   501   511  0.000000000E+00  0.000000000E+00 -3.480669633E+02  3.480669633E+02  0.000000000E+00  0.00000E+00  9.000E+00
      25     1     1     2     0     0 -2.615492462E+02  1.120393152E+02  1.680269267E+02  3.532971333E+02  1.250000000E+02  0.00000E+00  9.000E+00
      25     1     1     2     0     0  2.499553957E+02 -1.047024342E+02 -5.149935322E+00  2.984825312E+02  1.250000000E+02  0.00000E+00  9.000E+00
      21     1     1     2   502   511  1.159385044E+01 -7.336880996E+00 -1.031614308E+02  1.040698227E+02  1.907348633E-06  0.00000E+00  9.000E+00
#rwgt            1           1   5.6391573915542635E-002           6       39807           0
</event>
<event>
      5   9999  3.79277E-02  9.25766E+01 -1.00000E+00  1.25354E-01
      21    -1     0     0   502   501  0.000000000E+00  0.000000000E+00  7.761099967E+02  7.761099967E+02  0.000000000E+00  0.00000E+00  9.000E+00
      21    -1     0     0   501   512  0.000000000E+00  0.000000000E+00 -3.431987172E+02  3.431987172E+02  0.000000000E+00  0.00000E+00  9.000E+00
      25     1     1     2     0     0 -8.573786800E+01  3.784372264E+01  1.655341953E+02  2.276174404E+02  1.250000000E+02  0.00000E+00  9.000E+00
      25     1     1     2     0     0  1.655999983E+02  8.979987882E+00  5.533868452E+02  5.910719077E+02  1.250000000E+02  0.00000E+00  9.000E+00
      21     1     1     2   502   512 -7.986213034E+01 -4.682371052E+01 -2.860097610E+02  3.006193658E+02  6.607249480E-06  0.00000E+00  9.000E+00
#rwgt            1           1   3.3894950707376852E-002           6       40172           0
</event>
<event>
      5   9999  3.79277E-02  2.22496E+01 -1.00000E+00  1.62638E-01
      21    -1     0     0   502   501  0.000000000E+00  0.000000000E+00  5.585566914E+02  5.585566914E+02  0.000000000E+00  0.00000E+00  9.000E+00
      21    -1     0     0   501   511  0.000000000E+00  0.000000000E+00 -1.336183141E+02  1.336183141E+02  0.000000000E+00  0.00000E+00  9.000E+00
      25     1     1     2     0     0  1.588063683E+02 -1.456781339E+02  3.432843890E+02  4.241588771E+02  1.250000000E+02  0.00000E+00  9.000E+00
      25     1     1     2     0     0 -1.373887627E+02  1.396507916E+02  7.973438820E+01  2.456839196E+02  1.250000000E+02  0.00000E+00  9.000E+00
      21     1     1     2   502   511 -2.141760553E+01  6.027342384E+00  1.919600184E+00  2.233220875E+01  2.220223013E-07  0.00000E+00  9.000E+00
#rwgt            1           1   3.3258371652455862E-002           6       40428           0
</event>
<event>
      5   9999  3.79277E-02  2.08578E+01 -1.00000E+00  1.64878E-01
      21    -1     0     0   502   501  0.000000000E+00  0.000000000E+00  3.006578168E+03  3.006578168E+03  0.000000000E+00  0.00000E+00  9.000E+00
       1    -1     0     0   501     0  0.000000000E+00  0.000000000E+00 -2.022534716E+02  2.022534716E+02  0.000000000E+00  0.00000E+00  9.000E+00
      25     1     1     2     0     0  8.253698620E+01 -6.123525530E+01  1.805530128E+03  1.812767540E+03  1.250000000E+02  0.00000E+00  9.000E+00
      25     1     1     2     0     0 -7.143902530E+01  7.889546233E+01  1.191235897E+03  1.202495734E+03  1.250000000E+02  0.00000E+00  9.000E+00
       1     1     1     2   502     0 -1.109796090E+01 -1.766020702E+01 -1.924413280E+02  1.935683661E+02  8.092194914E-06  0.00000E+00  9.000E+00
#rwgt            1           1   2.3740377899696116E-002           6       40574           0
</event>
<event>
      5   9999  3.79277E-02  1.47871E+01 -1.00000E+00  1.77970E-01
      21    -1     0     0   502   511  0.000000000E+00  0.000000000E+00  9.225639784E+01  9.225639784E+01  0.000000000E+00  0.00000E+00  9.000E+00
      21    -1     0     0   501   502  0.000000000E+00  0.000000000E+00 -7.335157830E+02  7.335157830E+02  0.000000000E+00  0.00000E+00  9.000E+00
      25     1     1     2     0     0 -1.026184451E+02 -1.563246875E+02 -1.943421092E+02  2.972571422E+02  1.250000000E+02  0.00000E+00  9.000E+00
      25     1     1     2     0     0  1.099476640E+02  1.691676223E+02 -4.538655489E+02  5.121768344E+02  1.250000000E+02  0.00000E+00  9.000E+00
      21     1     1     2   501   511 -7.329218891E+00 -1.284293484E+01  6.948272811E+00  1.633820430E+01  1.685873940E-07  0.00000E+00  9.000E+00
#rwgt            1           1   4.0467752741004892E-002           6       40703           0
</event>
<event>
      5   9999  3.79277E-02  4.07083E+01 -1.00000E+00  1.44369E-01
      21    -1     0     0   512   501  0.000000000E+00  0.000000000E+00  1.452783452E+02  1.452783452E+02  0.000000000E+00  0.00000E+00  9.000E+00
      21    -1     0     0   501   502  0.000000000E+00  0.000000000E+00 -6.258800794E+02  6.258800794E+02  0.000000000E+00  0.00000E+00  9.000E+00
      25     1     1     2     0     0  3.851662175E+01  1.314475987E+02 -7.884677267E+01  2.015038831E+02  1.250000000E+02  0.00000E+00  9.000E+00
      25     1     1     2     0     0 -7.767298526E+01 -1.203145529E+02 -4.604957581E+02  4.981867396E+02  1.250000000E+02  0.00000E+00  9.000E+00
      21     1     1     2   512   502  3.915636351E+01 -1.113304581E+01  5.874079664E+01  7.146780186E+01  1.168007728E-06  0.00000E+00  9.000E+00
#rwgt            1           1   3.9534352200737782E-002           6       40864           0
</event>
<event>
      5   9999  3.79277E-02  3.55944E+01 -1.00000E+00  1.48055E-01
      21    -1     0     0   502   501  0.000000000E+00  0.000000000E+00  1.668484820E+02  1.668484820E+02  0.000000000E+00  0.00000E+00  9.000E+00
      21    -1     0     0   501   511  0.000000000E+00  0.000000000E+00 -2.620121230E+02  2.620121230E+02  0.000000000E+00  0.00000E+00  9.000E+00
      25     1     1     2     0     0  2.686852576E+01 -1.031081816E+02  7.009313206E-01  1.642519592E+02  1.250000000E+02  0.00000E+00  9.000E+00
      25     1     1     2     0     0  6.681568693E-03  1.264466799E+02 -1.765103905E+01  1.786765851E+02  1.250000000E+02  0.00000E+00  9.000E+00
      21     1     1     2   502   511 -2.687520733E+01 -2.333849828E+01 -7.821353323E+01  8.593206067E+01  9.536743164E-07  0.00000E+00  9.000E+00
#rwgt            1           1   4.0209489808713479E-002           6       40988           0
</event>
<event>
      5   9999  3.79277E-02  2.16357E+01 -1.00000E+00  1.63601E-01
      21    -1     0     0   512   501  0.000000000E+00  0.000000000E+00  9.720663728E+02  9.720663728E+02  0.000000000E+00  0.00000E+00  9.000E+00
      21    -1     0     0   501   502  0.000000000E+00  0.000000000E+00 -1.219413484E+02  1.219413484E+02  0.000000000E+00  0.00000E+00  9.000E+00
      25     1     1     2     0     0 -2.541640659E+02  5.547294386E+01  1.799871813E+02  3.401426250E+02  1.250000000E+02  0.00000E+00  9.000E+00
      25     1     1     2     0     0  2.366811349E+02 -6.821847427E+01  4.193550458E+02  5.021507486E+02  1.250000000E+02  0.00000E+00  9.000E+00
      21     1     1     2   512   502  1.748293097E+01  1.274553042E+01  2.507827973E+02  2.517143477E+02  4.672030912E-06  0.00000E+00  9.000E+00
#rwgt            1           1   3.1617609160308618E-002           6       41124           0
</event>
<event>
      5   9999  3.79277E-02  1.29101E+01 -1.00000E+00  1.83751E-01
      21    -1     0     0   502   511  0.000000000E+00  0.000000000E+00  1.052107416E+02  1.052107416E+02  0.000000000E+00  0.00000E+00  9.000E+00
      21    -1     0     0   501   502  0.000000000E+00  0.000000000E+00 -3.656262256E+02  3.656262256E+02  0.000000000E+00  0.00000E+00  9.000E+00
      25     1     1     2     0     0  1.251038900E+02  4.229528070E+01 -8.637235253E+01  2.013083638E+02  1.250000000E+02  0.00000E+00  9.000E+00
      25     1     1     2     0     0 -1.287250999E+02 -5.468706388E+01 -1.750618709E+02  2.565784187E+02  1.250000000E+02  0.00000E+00  9.000E+00
      21     1     1     2   501   511  3.621209918E+00  1.239178318E+01  1.018739457E+00  1.295018462E+01  2.365486006E-07  0.00000E+00  9.000E+00
#rwgt            1           1   6.7676029516352154E-002           6       41240           0
</event>
<event>
      5   9999  3.79277E-02  6.04949E+01 -1.00000E+00  1.34513E-01
      21    -1     0     0   502   512  0.000000000E+00  0.000000000E+00  2.442063146E+02  2.442063146E+02  0.000000000E+00  0.00000E+00  9.000E+00
      21    -1     0     0   501   502  0.000000000E+00  0.000000000E+00 -7.464135626E+02  7.464135626E+02  0.000000000E+00  0.00000E+00  9.000E+00
      25     1     1     2     0     0  2.132861597E+01  6.955828097E+00 -6.641107801E+02  6.761445271E+02  1.250000000E+02  0.00000E+00  9.000E+00
      25     1     1     2     0     0  3.181808238E+01  2.194156841E+01 -1.099405328E+01  1.313000076E+02  1.250000000E+02  0.00000E+00  9.000E+00
      21     1     1     2   501   512 -5.314669835E+01 -2.889739650E+01  1.728975853E+02  1.831753424E+02  3.303624740E-06  0.00000E+00  9.000E+00
#rwgt            1           1   1.4898439014611508E-002           6       41428           0
</event>
<event>
      5   9999  3.79277E-02  1.18689E+02 -1.00000E+00  1.20571E-01
      21    -1     0     0   502   501  0.000000000E+00  0.000000000E+00  8.240278352E+01  8.240278352E+01  0.000000000E+00  0.00000E+00  9.000E+00
       1    -1     0     0   501     0  0.000000000E+00  0.000000000E+00 -1.873255870E+03  1.873255870E+03  0.000000000E+00  0.00000E+00  9.000E+00
      25     1     1     2     0     0 -1.428676028E+02  3.655412580E+01 -1.442873622E+02  2.412285202E+02  1.250000000E+02  0.00000E+00  9.000E+00
      25     1     1     2     0     0  1.003517488E+02  7.425836665E+01 -2.164281255E+02  2.793759331E+02  1.250000000E+02  0.00000E+00  9.000E+00
       1     1     1     2   502     0  4.251585399E+01 -1.108124925E+02 -1.430137599E+03  1.435054200E+03  2.157918644E-05  0.00000E+00  9.000E+00
#rwgt            1           1   4.2417841304514342E-002           6       41513           0
</event>
<event>
      5   9999  3.79277E-02  6.33821E+01 -1.00000E+00  1.33443E-01
      21    -1     0     0   502   511  0.000000000E+00  0.000000000E+00  1.665871027E+02  1.665871027E+02  0.000000000E+00  0.00000E+00  9.000E+00
      21    -1     0     0   501   502  0.000000000E+00  0.000000000E+00 -2.235127973E+02  2.235127973E+02  0.000000000E+00  0.00000E+00  9.000E+00
      25     1     1     2     0     0  5.784761011E+01 -7.150038861E+01  2.517474369E+01  1.572177448E+02  1.250000000E+02  0.00000E+00  9.000E+00
      25     1     1     2     0     0 -4.941679756E+01  8.681503719E+00 -9.914451467E+01  1.672483877E+02  1.250000000E+02  0.00000E+00  9.000E+00
      21     1     1     2   501   511 -8.430812553E+00  6.281888489E+01  1.704407641E+01  6.563376753E+01  1.039242493E-06  0.00000E+00  9.000E+00
#rwgt            1           1   4.1782412082519038E-002           6       41631           0
</event>
<event>
      5   9999  3.79277E-02  7.15959E+01 -1.00000E+00  1.30727E-01
      21    -1     0     0   502   501  0.000000000E+00  0.000000000E+00  1.911974793E+02  1.911974793E+02  0.000000000E+00  0.00000E+00  9.000E+00
      21    -1     0     0   512   502  0.000000000E+00  0.000000000E+00 -5.299959575E+02  5.299959575E+02  0.000000000E+00  0.00000E+00  9.000E+00
      25     1     1     2     0     0 -1.180242751E+02  1.241642931E+02 -2.611859103E+02  3.364365928E+02  1.250000000E+02  0.00000E+00  9.000E+00
      25     1     1     2     0     0  1.885781955E+02 -1.363345096E+02  1.863093156E+01  2.648035988E+02  1.250000000E+02  0.00000E+00  9.000E+00
      21     1     1     2   512   501 -7.055392041E+01  1.217021646E+01 -9.624349945E+01  1.199532452E+02  0.000000000E+00  0.00000E+00  9.000E+00
#rwgt            1           1   4.3245657762602120E-002           6       41815           0
</event>
<event>
      5   9999  3.79277E-02  7.94853E+00 -1.00000E+00  2.08038E-01
      21    -1     0     0   511   501  0.000000000E+00  0.000000000E+00  7.812364017E+01  7.812364017E+01  0.000000000E+00  0.00000E+00  9.000E+00
      21    -1     0     0   501   502  0.000000000E+00  0.000000000E+00 -6.991633974E+02  6.991633974E+02  0.000000000E+00  0.00000E+00  9.000E+00
      25     1     1     2     0     0 -1.730230636E+02  8.860464776E+01 -2.645463023E+02  3.512798175E+02  1.250000000E+02  0.00000E+00  9.000E+00
      25     1     1     2     0     0  1.670268320E+02 -8.338695834E+01 -3.491283503E+02  4.151709917E+02  1.250000000E+02  0.00000E+00  9.000E+00
      21     1     1     2   511   502  5.996231655E+00 -5.217689420E+00 -7.365104745E+00  1.083622835E+01  1.685873940E-07  0.00000E+00  9.000E+00
#rwgt            1           1   4.6007989772546130E-002           6       41879           0
</event>
<event>
      5   9999  3.79277E-02  7.04534E+01 -1.00000E+00  1.31079E-01
      21    -1     0     0   502   501  0.000000000E+00  0.000000000E+00  2.731265902E+02  2.731265902E+02  0.000000000E+00  0.00000E+00  9.000E+00
       1    -1     0     0   501     0  0.000000000E+00  0.000000000E+00 -6.559232859E+02  6.559232859E+02  0.000000000E+00  0.00000E+00  9.000E+00
      25     1     1     2     0     0  1.003388272E+02  7.911537210E+01  4.019877896E+00  1.787967611E+02  1.250000000E+02  0.00000E+00  9.000E+00
      25     1     1     2     0     0 -7.898823699E+01 -1.462557930E+02  1.189578738E+02  2.395952301E+02  1.250000000E+02  0.00000E+00  9.000E+00
       1     1     1     2   502     0 -2.135059025E+01  6.714042089E+01 -5.057744474E+02  5.106578850E+02  7.629394531E-06  0.00000E+00  9.000E+00
#rwgt            1           1   3.3270802742650388E-002           6       42208           0
</event>
<event>
      5   9999  3.79277E-02  2.04560E+01 -1.00000E+00  1.65565E-01
      21    -1     0     0   502   501  0.000000000E+00  0.000000000E+00  4.275734118E+01  4.275734118E+01  0.000000000E+00  0.00000E+00  9.000E+00
      21    -1     0     0   511   502  0.000000000E+00  0.000000000E+00 -2.065259890E+03  2.065259890E+03  0.000000000E+00  0.00000E+00  9.000E+00
      25     1     1     2     0     0  7.405424871E+01 -1.184015148E+02 -1.023426196E+03  1.040446601E+03  1.250000000E+02  0.00000E+00  9.000E+00
      25     1     1     2     0     0 -5.594768536E+01  1.088831906E+02 -1.901834367E+02  2.584191020E+02  1.250000000E+02  0.00000E+00  9.000E+00
      21     1     1     2   511   501 -1.810656335E+01  9.518324222E+00 -8.088929156E+02  8.091515279E+02  0.000000000E+00  0.00000E+00  9.000E+00
#rwgt            1           1   3.0159456245195129E-002           6       42292           0
</event>
<event>
      5   9999  3.79277E-02  7.92689E+01 -1.00000E+00  1.28543E-01
      21    -1     0     0   512   501  0.000000000E+00  0.000000000E+00  2.892314614E+02  2.892314614E+02  0.000000000E+00  0.00000E+00  9.000E+00
      21    -1     0     0   501   502  0.000000000E+00  0.000000000E+00 -1.221517773E+03  1.221517773E+03  0.000000000E+00  0.00000E+00  9.000E+00
      25     1     1     2     0     0 -1.574349429E+02  3.480284613E+01 -1.002088149E+03  1.022644932E+03  1.250000000E+02  0.00000E+00  9.000E+00
      25     1     1     2     0     0  1.771393835E+02 -1.115836171E+02 -1.277290364E+02  2.752616419E+02  1.250000000E+02  0.00000E+00  9.000E+00
      21     1     1     2   512   502 -1.970444059E+01  7.678077095E+01  1.975308739E+02  2.128426600E+02  4.672030912E-06  0.00000E+00  9.000E+00
#rwgt            1           1   4.4692248712204591E-002           6       42459           0
</event>
<event>
      5   9999  3.79277E-02  1.47838E+01 -1.00000E+00  1.77980E-01
      21    -1     0     0   502   501  0.000000000E+00  0.000000000E+00  1.786212603E+02  1.786212603E+02  0.000000000E+00  0.00000E+00  9.000E+00
      21    -1     0     0   511   502  0.000000000E+00  0.000000000E+00 -1.882711074E+02  1.882711074E+02  0.000000000E+00  0.00000E+00  9.000E+00
      25     1     1     2     0     0  6.475778904E+01  2.076421964E+01 -3.318077431E+01  1.461187457E+02  1.250000000E+02  0.00000E+00  9.000E+00
      25     1     1     2     0     0 -6.477778830E+01 -5.980385891E+00  8.024728866E+01  1.621621232E+02  1.250000000E+02  0.00000E+00  9.000E+00
      21     1     1     2   511   501  1.999926139E-02 -1.478383374E+01 -5.671636138E+01  5.861149877E+01  6.743495762E-07  0.00000E+00  9.000E+00
#rwgt            1           1   2.9245125120715042E-002           6       42630           0
</event>
<event>
      5   9999  3.79277E-02  9.32448E+01 -1.00000E+00  1.25210E-01
      21    -1     0     0   502   501  0.000000000E+00  0.000000000E+00  6.214716067E+02  6.214716067E+02  0.000000000E+00  0.00000E+00  9.000E+00
      21    -1     0     0   512   502  0.000000000E+00  0.000000000E+00 -1.679244197E+02  1.679244197E+02  0.000000000E+00  0.00000E+00  9.000E+00
      25     1     1     2     0     0 -1.390134113E+02 -4.177812303E+01  3.313411123E+02  3.827297647E+02  1.250000000E+02  0.00000E+00  9.000E+00
      25     1     1     2     0     0  7.279436503E+01  1.074259352E+02  2.113064345E+02  2.776954454E+02  1.250000000E+02  0.00000E+00  9.000E+00
      21     1     1     2   512   501  6.621904625E+01 -6.564781218E+01 -8.910035988E+01  1.289708163E+02  2.697398305E-06  0.00000E+00  9.000E+00
#rwgt            1           1   5.0140608067039578E-002           6       42769           0
</event>
<event>
      5   9999  3.79277E-02  1.46023E+02 -1.00000E+00  1.16858E-01
      21    -1     0     0   502   501  0.000000000E+00  0.000000000E+00  2.494290992E+02  2.494290992E+02  0.000000000E+00  0.00000E+00  9.000E+00
      21    -1     0     0   501   511  0.000000000E+00  0.000000000E+00 -4.588431107E+02  4.588431107E+02  0.000000000E+00  0.00000E+00  9.000E+00
      25     1     1     2     0     0  7.257274313E+00 -1.449890896E+02 -1.571490618E+01  1.922146259E+02  1.250000000E+02  0.00000E+00  9.000E+00
      25     1     1     2     0     0  1.100364425E+02  5.801232928E+01  8.925334478E+01  1.976476880E+02  1.250000000E+02  0.00000E+00  9.000E+00
      21     1     1     2   502   511 -1.172937168E+02  8.697676034E+01 -2.829524501E+02  3.184098959E+02  0.000000000E+00  0.00000E+00  9.000E+00
#rwgt            1           1   2.8692751593089240E-002           6       42806           0
</event>
<event>
      5   9999  3.79277E-02  2.05943E+01 -1.00000E+00  1.65327E-01
      21    -1     0     0   502   501  0.000000000E+00  0.000000000E+00  2.028766482E+02  2.028766482E+02  0.000000000E+00  0.00000E+00  9.000E+00
      21    -1     0     0   501   512  0.000000000E+00  0.000000000E+00 -4.453908865E+02  4.453908865E+02  0.000000000E+00  0.00000E+00  9.000E+00
      25     1     1     2     0     0 -5.358510807E+01  2.380111991E+02 -8.072542474E+01  2.857661437E+02  1.250000000E+02  0.00000E+00  9.000E+00
      25     1     1     2     0     0  5.097254326E+01 -2.584391560E+02 -1.188208634E+02  3.148529737E+02  1.250000000E+02  0.00000E+00  9.000E+00
      21     1     1     2   502   512  2.612564809E+00  2.042795690E+01 -4.296795027E+01  4.764841727E+01  0.000000000E+00  0.00000E+00  9.000E+00
#rwgt            1           1   3.6046836028325827E-002           6       42890           0
</event>
<event>
      5   9999  3.79277E-02  2.40364E+02 -1.00000E+00  1.08817E-01
       2    -1     0     0   502     0  0.000000000E+00  0.000000000E+00  2.697638131E+03  2.697638131E+03  0.000000000E+00  0.00000E+00  9.000E+00
      21    -1     0     0   501   502  0.000000000E+00  0.000000000E+00 -1.554828897E+02  1.554828897E+02  0.000000000E+00  0.00000E+00  9.000E+00
      25     1     1     2     0     0 -6.103190065E+01 -3.173960124E+01 -8.590072977E+00  1.429373448E+02  1.250000000E+02  0.00000E+00  9.000E+00
      25     1     1     2     0     0  2.879879741E+02  1.108967646E+02  3.047637965E+02  4.513769348E+02  1.250000000E+02  0.00000E+00  9.000E+00
       2     1     1     2   501     0 -2.269560734E+02 -7.915716338E+01  2.245981517E+03  2.258806741E+03  0.000000000E+00  0.00000E+00  9.000E+00
#rwgt            2          18   8.4032602367456650E-004           6       43157           0
</event>
<event>
      5   9999  3.79277E-02  3.32030E+01 -1.00000E+00  1.50042E-01
      21    -1     0     0   502   501  0.000000000E+00  0.000000000E+00  1.689686966E+03  1.689686966E+03  0.000000000E+00  0.00000E+00  9.000E+00
      21    -1     0     0   511   502  0.000000000E+00  0.000000000E+00 -3.848976789E+01  3.848976789E+01  0.000000000E+00  0.00000E+00  9.000E+00
      25     1     1     2     0     0 -8.588561128E+01  1.606038319E+02  9.100938931E+02  9.365179247E+02  1.250000000E+02  0.00000E+00  9.000E+00
      25     1     1     2     0     0  5.304663252E+01 -1.655071865E+02  7.226044004E+02  7.536502461E+02  1.250000000E+02  0.00000E+00  9.000E+00
      21     1     1     2   511   501  3.283897875E+01  4.903354578E+00  1.849890509E+01  3.800856353E+01  4.768371582E-07  0.00000E+00  9.000E+00
#rwgt            1           1   2.1844490389041200E-002           6       43176           0
</event>
<event>
      5   9999  3.79277E-02  7.92489E+01 -1.00000E+00  1.28548E-01
      21    -1     0     0   502   512  0.000000000E+00  0.000000000E+00  4.171858856E+02  4.171858856E+02  0.000000000E+00  0.00000E+00  9.000E+00
      21    -1     0     0   501   502  0.000000000E+00  0.000000000E+00 -1.193532213E+02  1.193532213E+02  0.000000000E+00  0.00000E+00  9.000E+00
      25     1     1     2     0     0  6.486601052E+01  8.954247410E+01  5.290383973E+01  1.750693298E+02  1.250000000E+02  0.00000E+00  9.000E+00
      25     1     1     2     0     0  1.304265464E+00 -4.593184668E+01  3.591431604E+01  1.379357595E+02  1.250000000E+02  0.00000E+00  9.000E+00
      21     1     1     2   501   512 -6.617027599E+01 -4.361062742E+01  2.090145085E+02  2.235340176E+02  2.697398305E-06  0.00000E+00  9.000E+00
#rwgt            1           1   6.2928807437952677E-002           6       43381           0
</event>
<event>
      5   9999  3.79277E-02  8.05003E+01 -1.00000E+00  1.28219E-01
      21    -1     0     0   502   501  0.000000000E+00  0.000000000E+00  1.414326045E+02  1.414326045E+02  0.000000000E+00  0.00000E+00  9.000E+00
      21    -1     0     0   511   502  0.000000000E+00  0.000000000E+00 -5.161764233E+02  5.161764233E+02  0.000000000E+00  0.00000E+00  9.000E+00
      25     1     1     2     0     0 -4.271214292E+01 -4.338306189E+01 -3.659227017E+02  3.914471111E+02  1.250000000E+02  0.00000E+00  9.000E+00
      25     1     1     2     0     0  5.556014063E+00 -2.802929763E+01  7.613487913E+01  1.491242121E+02  1.250000000E+02  0.00000E+00  9.000E+00
      21     1     1     2   511   501  3.715612886E+01  7.141235951E+01 -8.495599617E+01  1.170377046E+02  1.348699152E-06  0.00000E+00  9.000E+00
#rwgt            1           1   4.0949655364079192E-002           6       43518           0
</event>
<event>
      5   9999  3.79277E-02  1.43986E+02 -1.00000E+00  1.17102E-01
      21    -1     0     0   502   501  0.000000000E+00  0.000000000E+00  1.028099764E+03  1.028099764E+03  0.000000000E+00  0.00000E+00  9.000E+00
      21    -1     0     0   501   512  0.000000000E+00  0.000000000E+00 -6.718939727E+02  6.718939727E+02  0.000000000E+00  0.00000E+00  9.000E+00
      25     1     1     2     0     0  1.165706160E+02 -1.771007106E+02  8.892268189E+02  9.226606666E+02  1.250000000E+02  0.00000E+00  9.000E+00
      25     1     1     2     0     0 -1.199652971E+02  3.315448453E+01  4.467279411E+01  1.819657959E+02  1.250000000E+02  0.00000E+00  9.000E+00
      21     1     1     2   502   512  3.394681037E+00  1.439462261E+02 -5.776938216E+02  5.953672744E+02  7.629394531E-06  0.00000E+00  9.000E+00
#rwgt            2          11   5.7591920743537686E-003           6       43708           0
</event>
<event>
      5   9999  3.79277E-02  2.11510E+01 -1.00000E+00  1.64389E-01
      21    -1     0     0   502   501  0.000000000E+00  0.000000000E+00  2.053611773E+02  2.053611773E+02  0.000000000E+00  0.00000E+00  9.000E+00
      21    -1     0     0   511   502  0.000000000E+00  0.000000000E+00 -4.627391566E+02  4.627391566E+02  0.000000000E+00  0.00000E+00  9.000E+00
      25     1     1     2     0     0 -1.692647153E+02 -8.621231981E+01 -1.826881587E+02  2.916900260E+02  1.250000000E+02  0.00000E+00  9.000E+00
      25     1     1     2     0     0  1.792762620E+02  6.758075447E+01  6.286185003E+01  2.372419623E+02  1.250000000E+02  0.00000E+00  9.000E+00
      21     1     1     2   511   501 -1.001154674E+01  1.863156534E+01 -1.375516706E+02  1.391683455E+02  2.697398305E-06  0.00000E+00  9.000E+00
#rwgt            1           1   7.3746448155584593E-002           6       43773           0
</event>
<event>
      5   9999  3.79277E-02  7.51801E+01 -1.00000E+00  1.29669E-01
      21    -1     0     0   502   512  0.000000000E+00  0.000000000E+00  1.000650716E+02  1.000650716E+02  0.000000000E+00  0.00000E+00  9.000E+00
      21    -1     0     0   501   502  0.000000000E+00  0.000000000E+00 -9.595767749E+02  9.595767749E+02  0.000000000E+00  0.00000E+00  9.000E+00
      25     1     1     2     0     0 -1.261849971E+02  1.350867797E+02 -4.779413087E+02  5.274694173E+02  1.250000000E+02  0.00000E+00  9.000E+00
      25     1     1     2     0     0  5.691684135E+01 -1.643095889E+02 -4.009293045E+02  4.545398498E+02  1.250000000E+02  0.00000E+00  9.000E+00
      21     1     1     2   501   512  6.926815579E+01  2.922280922E+01  1.935890993E+01  7.763257937E+01  1.545128989E-06  0.00000E+00  9.000E+00
#rwgt            1           1   4.0126552332737681E-002           6       44032           0
</event>
<event>
      5   9999  3.79277E-02  7.07070E+01 -1.00000E+00  1.31000E-01
      -2    -1     0     0     0   501  0.000000000E+00  0.000000000E+00  8.718442023E+01  8.718442023E+01  0.000000000E+00  0.00000E+00  9.000E+00
      21    -1     0     0   501   502  0.000000000E+00  0.000000000E+00 -6.039454012E+02  6.039454012E+02  0.000000000E+00  0.00000E+00  9.000E+00
      25     1     1     2     0     0 -1.225316574E+02 -4.264226791E+01 -8.080109147E+01  1.974491997E+02  1.250000000E+02  0.00000E+00  9.000E+00
      25     1     1     2     0     0  6.569515914E+01  5.817145126E-01 -3.736217390E+02  3.994175712E+02  1.250000000E+02  0.00000E+00  9.000E+00
      -2     1     1     2     0   502  5.683649827E+01  4.206055340E+01 -6.233815051E+01  9.426305053E+01  1.651812370E-06  0.00000E+00  9.000E+00
#rwgt            1           1   3.6000108340285157E-002           6       44194           0
</event>
<event>
      5   9999  3.79277E-02  5.69920E+01 -1.00000E+00  1.35908E-01
      21    -1     0     0   502   511  0.000000000E+00  0.000000000E+00  4.874472639E+02  4.874472639E+02  0.000000000E+00  0.00000E+00  9.000E+00
      21    -1     0     0   501   502  0.000000000E+00  0.000000000E+00 -5.156368390E+02  5.156368390E+02  0.000000000E+00  0.00000E+00  9.000E+00
      25     1     1     2     0     0  1.698007596E+02  3.099235806E+01 -1.923964220E+02  2.871135793E+02  1.250000000E+02  0.00000E+00  9.000E+00
      25     1     1     2     0     0 -1.905496115E+02 -8.407315717E+01 -2.199015561E+02  3.276570533E+02  1.250000000E+02  0.00000E+00  9.000E+00
      21     1     1     2   501   511  2.074885191E+01  5.308079910E+01  3.841084030E+02  3.883134704E+02  0.000000000E+00  0.00000E+00  9.000E+00
#rwgt            1           1   2.4392352652287341E-002           6       44371           0
</event>
<event>
      5   9999  3.79277E-02  2.81383E+01 -1.00000E+00  1.54998E-01
      21    -1     0     0   502   512  0.000000000E+00  0.000000000E+00  4.280008989E+01  4.280008989E+01  0.000000000E+00  0.00000E+00  9.000E+00
      21    -1     0     0   501   502  0.000000000E+00  0.000000000E+00 -8.967320321E+02  8.967320321E+02  0.000000000E+00  0.00000E+00  9.000E+00
      25     1     1     2     0     0  5.066369871E+01  1.060168276E+02 -3.746789264E+02  4.120869763E+02  1.250000000E+02  0.00000E+00  9.000E+00
      25     1     1     2     0     0 -2.357755830E+01 -9.839423535E+01 -4.716274967E+02  4.982919049E+02  1.250000000E+02  0.00000E+00  9.000E+00
      21     1     1     2   501   512 -2.708614041E+01 -7.622592204E+00 -7.625519125E+00  2.915324092E+01  2.384185791E-07  0.00000E+00  9.000E+00
#rwgt            1           1   4.1085975873744490E-002           6       44470           0
</event>
<event>
      5   9999  3.79277E-02  4.02285E+00 -1.00000E+00  2.62889E-01
      21    -1     0     0   502   501  0.000000000E+00  0.000000000E+00  7.468226775E+02  7.468226775E+02  0.000000000E+00  0.00000E+00  9.000E+00
      21    -1     0     0   511   502  0.000000000E+00  0.000000000E+00 -5.046393439E+01  5.046393439E+01  0.000000000E+00  0.00000E+00  9.000E+00
      25     1     1     2     0     0  8.778409244E+01 -5.681529035E+00  1.356510340E+02  2.043637191E+02  1.250000000E+02  0.00000E+00  9.000E+00
      25     1     1     2     0     0 -8.405895561E+01  7.200296464E+00  5.662987487E+02  5.860350033E+02  1.250000000E+02  0.00000E+00  9.000E+00
      21     1     1     2   511   501 -3.725136827E+00 -1.518767429E+00 -5.591039561E+00  6.887889536E+00  1.460009660E-07  0.00000E+00  9.000E+00
#rwgt            1           1   3.7733883744255854E-002           6       44598           0
</event>
<event>
      5   9999  3.79277E-02  8.59073E+01 -1.00000E+00  1.26870E-01
      21    -1     0     0   502   501  0.000000000E+00  0.000000000E+00  3.649069413E+02  3.649069413E+02  0.000000000E+00  0.00000E+00  9.000E+00
       1    -1     0     0   501     0  0.000000000E+00  0.000000000E+00 -1.715950594E+02  1.715950594E+02  0.000000000E+00  0.00000E+00  9.000E+00
      25     1     1     2     0     0  9.821918171E+01 -1.555477360E+01  2.362861544E+01  1.614690995E+02  1.250000000E+02  0.00000E+00  9.000E+00
      25     1     1     2     0     0 -1.231395039E+01  1.495713254E+01  2.351573738E+02  2.670193619E+02  1.250000000E+02  0.00000E+00  9.000E+00
       1     1     1     2   502     0 -8.590523132E+01  5.976410605E-01 -6.547410736E+01  1.080135393E+02  1.348699152E-06  0.00000E+00  9.000E+00
#rwgt            1           1   3.6753193682005594E-002           6       44965           0
</event>
<event>
      5   9999  3.79277E-02  1.82464E+02 -1.00000E+00  1.13118E-01
      21    -1     0     0   502   501  0.000000000E+00  0.000000000E+00  1.843739147E+02  1.843739147E+02  0.000000000E+00  0.00000E+00  9.000E+00
      -1    -1     0     0     0   502  0.000000000E+00  0.000000000E+00 -6.230357217E+02  6.230357217E+02  0.000000000E+00  0.00000E+00  9.000E+00
      25     1     1     2     0     0 -1.449474562E+02  1.481382782E+02 -7.345281241E+01  2.529328571E+02  1.250000000E+02  0.00000E+00  9.000E+00
      25     1     1     2     0     0  1.423163640E+02  3.430666802E+01 -3.080851297E+02  3.632799775E+02  1.250000000E+02  0.00000E+00  9.000E+00
      -1     1     1     2     0   501  2.631092227E+00 -1.824449463E+02 -5.712386496E+01  1.911968018E+02  2.431401974E-06  0.00000E+00  9.000E+00
#rwgt            2          10   8.9559582436896243E-006           6       45159           0
</event>
<event>
      5   9999  3.79277E-02  2.35373E+01 -1.00000E+00  1.60737E-01
      21    -1     0     0   502   501  0.000000000E+00  0.000000000E+00  1.116068976E+02  1.116068976E+02  0.000000000E+00  0.00000E+00  9.000E+00
      21    -1     0     0   511   502  0.000000000E+00  0.000000000E+00 -5.701984040E+02  5.701984040E+02  0.000000000E+00  0.00000E+00  9.000E+00
      25     1     1     2     0     0  1.285403902E+02 -5.064981516E+01 -1.058015122E+02  2.142591787E+02  1.250000000E+02  0.00000E+00  9.000E+00
      25     1     1     2     0     0 -1.493948757E+02  3.973669911E+01 -1.171900341E+02  2.307733482E+02  1.250000000E+02  0.00000E+00  9.000E+00
      21     1     1     2   511   501  2.085448551E+01  1.091311605E+01 -2.355999600E+02  2.367727747E+02  4.672030912E-06  0.00000E+00  9.000E+00
#rwgt            1           1   3.1947454974532143E-002           6       45193           0
</event>
<event>
      5   9999  3.79277E-02  2.12477E+01 -1.00000E+00  1.64229E-01
      21    -1     0     0   502   512  0.000000000E+00  0.000000000E+00  2.360262828E+02  2.360262828E+02  0.000000000E+00  0.00000E+00  9.000E+00
      21    -1     0     0   501   502  0.000000000E+00  0.000000000E+00 -1.329450031E+02  1.329450031E+02  0.000000000E+00  0.00000E+00  9.000E+00
      25     1     1     2     0     0 -5.281181540E+01  8.257615035E+01 -1.982975193E+01  1.600816277E+02  1.250000000E+02  0.00000E+00  9.000E+00
      25     1     1     2     0     0  3.923098334E+01 -6.623526626E+01  9.990604832E+01  1.775736440E+02  1.250000000E+02  0.00000E+00  9.000E+00
      21     1     1     2   501   512  1.358083206E+01 -1.634088409E+01  2.300498335E+01  3.131601429E+01  0.000000000E+00  0.00000E+00  9.000E+00
#rwgt            1           1   4.2355984079300316E-002           6       45475           0
</event>
<event>
      5   9999  3.79277E-02  9.88973E+01 -1.00000E+00  1.24045E-01
      21    -1     0     0   502   501  0.000000000E+00  0.000000000E+00  3.848654167E+02  3.848654167E+02  0.000000000E+00  0.00000E+00  9.000E+00
       1    -1     0     0   501     0  0.000000000E+00  0.000000000E+00 -4.426016333E+02  4.426016333E+02  0.000000000E+00  0.00000E+00  9.000E+00
      25     1     1     2     0     0 -5.153609723E+01 -1.564652289E+02  1.501343157E+02  2.555438317E+02  1.250000000E+02  0.00000E+00  9.000E+00
      25     1     1     2     0     0  1.503277933E+02  1.518969003E+02  8.581655389E+01  2.620316673E+02  1.250000000E+02  0.00000E+00  9.000E+00
       1     1     1     2   502     0 -9.879169604E+01  4.568328555E+00 -2.936870862E+02  3.098915511E+02  0.000000000E+00  0.00000E+00  9.000E+00
#rwgt            1           1  0.17575931636582576                6       45746           0
</event>
<event>
      5   9999  3.79277E-02  1.20093E+01 -1.00000E+00  1.86993E-01
      21    -1     0     0   511   501  0.000000000E+00  0.000000000E+00  1.091247202E+03  1.091247202E+03  0.000000000E+00  0.00000E+00  9.000E+00
      21    -1     0     0   501   502  0.000000000E+00  0.000000000E+00 -1.341204366E+02  1.341204366E+02  0.000000000E+00  0.00000E+00  9.000E+00
      25     1     1     2     0     0  1.638285967E+02  1.374582608E+02  2.716463382E+02  3.676293182E+02  1.250000000E+02  0.00000E+00  9.000E+00
      25     1     1     2     0     0 -1.631479597E+02 -1.494482730E+02  1.015101573E+02  2.736445780E+02  1.250000000E+02  0.00000E+00  9.000E+00
      21     1     1     2   511   502 -6.806369811E-01  1.199001226E+01  5.839702695E+02  5.840937419E+02  1.078959322E-05  0.00000E+00  9.000E+00
#rwgt            1           1   4.5595818460330700E-002           6       45869           0
</event>
<event>
      5   9999  3.79277E-02  4.68563E+01 -1.00000E+00  1.40704E-01
      21    -1     0     0   512   501  0.000000000E+00  0.000000000E+00  2.088728888E+03  2.088728888E+03  0.000000000E+00  0.00000E+00  9.000E+00
      21    -1     0     0   501   502  0.000000000E+00  0.000000000E+00 -2.909049425E+01  2.909049425E+01  0.000000000E+00  0.00000E+00  9.000E+00
      25     1     1     2     0     0  8.461747334E+01  1.557232384E+02  6.330963049E+02  6.692128025E+02  1.250000000E+02  0.00000E+00  9.000E+00
      25     1     1     2     0     0 -1.079763190E+02 -1.151045683E+02  1.046799221E+03  1.065983845E+03  1.250000000E+02  0.00000E+00  9.000E+00
      21     1     1     2   512   502  2.335884570E+01 -4.061867007E+01  3.797428676E+02  3.826227353E+02  0.000000000E+00  0.00000E+00  9.000E+00
#rwgt            1           1   4.2078646726056018E-002           6       46153           0
</event>
<event>
      5   9999  3.79277E-02  2.28065E+01 -1.00000E+00  1.61797E-01
      -2    -1     0     0     0   501  0.000000000E+00  0.000000000E+00  6.311107420E+02  6.311107420E+02  0.000000000E+00  0.00000E+00  9.000E+00
      21    -1     0     0   501   502  0.000000000E+00  0.000000000E+00 -1.285053711E+02  1.285053711E+02  0.000000000E+00  0.00000E+00  9.000E+00
      25     1     1     2     0     0  1.669289340E+02  1.312356687E+02  2.072426675E+02  3.219667575E+02  1.250000000E+02  0.00000E+00  9.000E+00
      25     1     1     2     0     0 -1.755293106E+02 -1.101129645E+02  1.378646902E+02  2.785086653E+02  1.250000000E+02  0.00000E+00  9.000E+00
      -2     1     1     2     0   502  8.600376645E+00 -2.112270421E+01  1.574980133E+02  1.591406903E+02  1.907348633E-06  0.00000E+00  9.000E+00
#rwgt            1           1   3.3795701759390895E-002           6       46258           0
</event>
<event>
      5   9999  3.79277E-02  7.69204E+01 -1.00000E+00  1.29180E-01
      21    -1     0     0   511   501  0.000000000E+00  0.000000000E+00  6.001936106E+02  6.001936106E+02  0.000000000E+00  0.00000E+00  9.000E+00
      21    -1     0     0   501   502  0.000000000E+00  0.000000000E+00 -1.277435883E+02  1.277435883E+02  0.000000000E+00  0.00000E+00  9.000E+00
      25     1     1     2     0     0 -1.753820095E+02  5.570123825E+01  1.343016380E+02  2.598526643E+02  1.250000000E+02  0.00000E+00  9.000E+00
      25     1     1     2     0     0  1.393950952E+02 -1.236842915E+02  1.647220309E+02  2.783651271E+02  1.250000000E+02  0.00000E+00  9.000E+00
      21     1     1     2   511   502  3.598691425E+01  6.798305327E+01  1.734263533E+02  1.897194074E+02  0.000000000E+00  0.00000E+00  9.000E+00
#rwgt            1           1   1.3837551354461696E-002           6       46462           0
</event>
<event>
      5   9999  3.79277E-02  9.64030E+01 -1.00000E+00  1.24548E-01
      21    -1     0     0   502   501  0.000000000E+00  0.000000000E+00  3.579730910E+02  3.579730910E+02  0.000000000E+00  0.00000E+00  9.000E+00
       3    -1     0     0   501     0  0.000000000E+00  0.000000000E+00 -7.854804515E+02  7.854804515E+02  0.000000000E+00  0.00000E+00  9.000E+00
      25     1     1     2     0     0  3.705955070E+01 -1.570443941E+02  1.065717852E+02  2.302583276E+02  1.250000000E+02  0.00000E+00  9.000E+00
      25     1     1     2     0     0 -9.565375330E+01  8.049203978E+01  1.441758552E+02  2.281234013E+02  1.250000000E+02  0.00000E+00  9.000E+00
       3     1     1     2   502     0  5.859420260E+01  7.655235435E+01 -6.782550010E+02  6.850718137E+02  1.078959322E-05  0.00000E+00  9.000E+00
#rwgt            1           1   3.9182245200566596E-002           6       46596           0
</event>
<event>
      5   9999  3.79277E-02  6.49920E+01 -1.00000E+00  1.32874E-01
       2    -1     0     0   502     0  0.000000000E+00  0.000000000E+00  2.920104058E+03  2.920104058E+03  0.000000000E+00  0.00000E+00  9.000E+00
      21    -1     0     0   501   502  0.000000000E+00  0.000000000E+00 -1.015667251E+02  1.015667251E+02  0.000000000E+00  0.00000E+00  9.000E+00
      25     1     1     2     0     0 -9.653159010E+01  7.600900597E+01  3.821177019E+00  1.753149117E+02  1.250000000E+02  0.00000E+00  9.000E+00
      25     1     1     2     0     0  3.232219380E+01 -8.606478948E+01  3.758026370E+02  4.065765539E+02  1.250000000E+02  0.00000E+00  9.000E+00
       2     1     1     2   501     0  6.420939629E+01  1.005578351E+01  2.438913519E+03  2.439779318E+03  3.051757812E-05  0.00000E+00  9.000E+00
#rwgt            2          18   1.5010022379014886E-003           6       46736           0
</event>
<event>
      5   9999  3.79277E-02  5.20647E+01 -1.00000E+00  1.38080E-01
      21    -1     0     0   502   501  0.000000000E+00  0.000000000E+00  2.380311513E+02  2.380311513E+02  0.000000000E+00  0.00000E+00  9.000E+00
      21    -1     0     0   501   511  0.000000000E+00  0.000000000E+00 -4.606131643E+02  4.606131643E+02  0.000000000E+00  0.00000E+00  9.000E+00
      25     1     1     2     0     0 -7.547713614E+01 -2.497918485E+02 -1.272319825E+02  3.160786975E+02  1.250000000E+02  0.00000E+00  9.000E+00
      25     1     1     2     0     0  3.987723429E+01  2.877837100E+02 -6.706818651E+01  3.233153247E+02  1.250000000E+02  0.00000E+00  9.000E+00
      21     1     1     2   502   511  3.559990185E+01 -3.799186151E+01 -2.828184403E+01  5.925029329E+01  8.259061849E-07  0.00000E+00  9.000E+00
#rwgt            1           1   4.0068645598722814E-002           6       46770           0
</event>
<event>
      5   9999  3.79277E-02  1.33097E+01 -1.00000E+00  1.82419E-01
      21    -1     0     0   502   512  0.000000000E+00  0.000000000E+00  5.432224631E+01  5.432224631E+01  0.000000000E+00  0.00000E+00  9.000E+00
      21    -1     0     0   501   502  0.000000000E+00  0.000000000E+00 -9.228665129E+02  9.228665129E+02  0.000000000E+00  0.00000E+00  9.000E+00
      25     1     1     2     0     0 -5.156213194E+00  4.297273637E+01 -1.532847665E+02  2.024708924E+02  1.250000000E+02  0.00000E+00  9.000E+00
      25     1     1     2     0     0 -4.598190432E-01 -5.503956907E+01 -7.368244478E+02  7.493762956E+02  1.250000000E+02  0.00000E+00  9.000E+00
      21     1     1     2   501   512  5.616032237E+00  1.206683271E+01  2.156494763E+01  2.534157130E+01  1.327458468E-06  0.00000E+00  9.000E+00
#rwgt            1           1   4.9815658606827337E-002           6       46973           0
</event>
<event>
      5   9999  3.79277E-02  2.11385E+01 -1.00000E+00  1.64409E-01
      21    -1     0     0   502   501  0.000000000E+00  0.000000000E+00  2.830040169E+02  2.830040169E+02  0.000000000E+00  0.00000E+00  9.000E+00
      21    -1     0     0   511   502  0.000000000E+00  0.000000000E+00 -2.009489670E+02  2.009489670E+02  0.000000000E+00  0.00000E+00  9.000E+00
      25     1     1     2     0     0  2.716080321E+01  5.014133559E+01  1.947956325E+02  2.383740783E+02  1.250000000E+02  0.00000E+00  9.000E+00
      25     1     1     2     0     0 -3.228597433E+01 -2.963352310E+01 -1.623972546E+00  1.324694950E+02  1.250000000E+02  0.00000E+00  9.000E+00
      21     1     1     2   511   501  5.125171124E+00 -2.050781248E+01 -1.111166100E+02  1.131094106E+02  1.348699152E-06  0.00000E+00  9.000E+00
#rwgt            1           1   4.6877401576068393E-002           6       47249           0
</event>
<event>
      5   9999  3.79277E-02  4.04028E+01 -1.00000E+00  1.44571E-01
      21    -1     0     0   502   501  0.000000000E+00  0.000000000E+00  2.215895877E+02  2.215895877E+02  0.000000000E+00  0.00000E+00  9.000E+00
      21    -1     0     0   512   502  0.000000000E+00  0.000000000E+00 -7.263960200E+02  7.263960200E+02  0.000000000E+00  0.00000E+00  9.000E+00
      25     1     1     2     0     0 -5.697387647E+01  1.390968938E+02 -9.543423136E+01  2.175469168E+02  1.250000000E+02  0.00000E+00  9.000E+00
      25     1     1     2     0     0  4.376378802E+01 -1.772790877E+02  8.305225451E+01  2.363595165E+02  1.250000000E+02  0.00000E+00  9.000E+00
      21     1     1     2   512   501  1.321008845E+01  3.818219383E+01 -4.924244554E+02  4.940791745E+02  5.394796609E-06  0.00000E+00  9.000E+00
#rwgt            1           1   3.8473544363960485E-002           6       47640           0
</event>
<event>
      5   9999 -3.79277E-02  9.91348E+01 -1.00000E+00  1.23998E-01
       1    -1     0     0   502     0  0.000000000E+00  0.000000000E+00  1.085086681E+03  1.085086681E+03  0.000000000E+00  0.00000E+00  9.000E+00
      21    -1     0     0   501   502  0.000000000E+00  0.000000000E+00 -1.019156458E+02  1.019156458E+02  0.000000000E+00  0.00000E+00  9.000E+00
      25     1     1     2     0     0 -1.452318140E+02 -1.140991005E+00  4.591861409E+01  1.970459357E+02  1.250000000E+02  0.00000E+00  9.000E+00
      25     1     1     2     0     0  5.176083641E+01 -3.188769877E+01  1.860475739E+02  2.322384750E+02  1.250000000E+02  0.00000E+00  9.000E+00
       1     1     1     2   501     0  9.347097759E+01  3.302868977E+01  7.512048467E+02  7.577179156E+02  0.000000000E+00  0.00000E+00  9.000E+00
#rwgt            1           1  -3.1429879148034578E-002           6       47745           0
</event>
<event>
      5   9999 -3.79277E-02  3.29570E+01 -1.00000E+00  1.50257E-01
      21    -1     0     0   502   511  0.000000000E+00  0.000000000E+00  1.147965642E+03  1.147965642E+03  0.000000000E+00  0.00000E+00  9.000E+00
      21    -1     0     0   501   502  0.000000000E+00  0.000000000E+00 -9.910969040E+01  9.910969040E+01  0.000000000E+00  0.00000E+00  9.000E+00
      25     1     1     2     0     0 -1.309810012E+02 -8.841860468E+01  3.075248831E+01  2.038248951E+02  1.250000000E+02  0.00000E+00  9.000E+00
      25     1     1     2     0     0  1.130085000E+02  6.079342265E+01  6.681536335E+02  6.917521516E+02  1.250000000E+02  0.00000E+00  9.000E+00
      21     1     1     2   501   511  1.797250113E+01  2.762518204E+01  3.499498302E+02  3.514982861E+02  5.394796609E-06  0.00000E+00  9.000E+00
#rwgt            1           1 -0.28797386736286501                6       47880           0
</event>
<event>
      5   9999  3.79277E-02  1.92055E+01 -1.00000E+00  1.67835E-01
      21    -1     0     0   502   501  0.000000000E+00  0.000000000E+00  1.104455363E+02  1.104455363E+02  0.000000000E+00  0.00000E+00  9.000E+00
      21    -1     0     0   512   502  0.000000000E+00  0.000000000E+00 -4.844638354E+02  4.844638354E+02  0.000000000E+00  0.00000E+00  9.000E+00
      25     1     1     2     0     0 -1.154265318E+02 -8.381143439E+00 -3.117583316E+02  3.552629803E+02  1.250000000E+02  0.00000E+00  9.000E+00
      25     1     1     2     0     0  1.092129430E+02 -9.791412767E+00  8.333957035E+00  1.664866166E+02  1.250000000E+02  0.00000E+00  9.000E+00
      21     1     1     2   512   501  6.213588772E+00  1.817255621E+01 -7.059392449E+01  7.315977488E+01  9.536743164E-07  0.00000E+00  9.000E+00
#rwgt            1           1   4.3144509484782628E-002           6       48060           0
</event>
<event>
      5   9999  3.79277E-02  7.04700E+01 -1.00000E+00  1.31074E-01
      21    -1     0     0   511   501  0.000000000E+00  0.000000000E+00  4.616340284E+02  4.616340284E+02  0.000000000E+00  0.00000E+00  9.000E+00
      21    -1     0     0   501   502  0.000000000E+00  0.000000000E+00 -2.192110789E+02  2.192110789E+02  0.000000000E+00  0.00000E+00  9.000E+00
      25     1     1     2     0     0 -1.420578520E+02 -4.081399347E+01  1.329953638E+01  1.940311651E+02  1.250000000E+02  0.00000E+00  9.000E+00
      25     1     1     2     0     0  1.941247429E+02  8.830142886E+01  1.036416260E-01  2.471974289E+02  1.250000000E+02  0.00000E+00  9.000E+00
      21     1     1     2   511   502 -5.206689086E+01 -4.748743539E+01  2.290197715E+02  2.396165132E+02  2.697398305E-06  0.00000E+00  9.000E+00
#rwgt            1           1   3.3866340524237745E-002           6       48370           0
</event>
<event>
      5   9999  3.79277E-02  8.95228E+01 -1.00000E+00  1.26029E-01
      21    -1     0     0   512   501  0.000000000E+00  0.000000000E+00  2.148107453E+02  2.148107453E+02  0.000000000E+00  0.00000E+00  9.000E+00
      21    -1     0     0   501   502  0.000000000E+00  0.000000000E+00 -4.561700823E+02  4.561700823E+02  0.000000000E+00  0.00000E+00  9.000E+00
      25     1     1     2     0     0  1.960618198E+02 -3.347425858E+01 -5.466599011E+01  2.411931459E+02  1.250000000E+02  0.00000E+00  9.000E+00
      25     1     1     2     0     0 -2.681827583E+02 -1.956252629E+01 -1.566118472E+02  3.353460227E+02  1.250000000E+02  0.00000E+00  9.000E+00
      21     1     1     2   512   502  7.212093845E+01  5.303678487E+01 -3.008149969E+01  9.444165890E+01  1.215700987E-06  0.00000E+00  9.000E+00
#rwgt            2          11   3.2410587846719865E-003           6       48489           0
</event>
<event>
      5   9999  3.79277E-02  9.65195E+00 -1.00000E+00  1.97553E-01
      21    -1     0     0   502   501  0.000000000E+00  0.000000000E+00  5.576421781E+02  5.576421781E+02  0.000000000E+00  0.00000E+00  9.000E+00
      21    -1     0     0   511   502  0.000000000E+00  0.000000000E+00 -5.957928944E+01  5.957928944E+01  0.000000000E+00  0.00000E+00  9.000E+00
      25     1     1     2     0     0  9.404029320E+01 -4.222407961E+01  1.257011262E+02  2.050663862E+02  1.250000000E+02  0.00000E+00  9.000E+00
      25     1     1     2     0     0 -9.464388592E+01  5.185714106E+01  3.625615081E+02  3.983998938E+02  1.250000000E+02  0.00000E+00  9.000E+00
      21     1     1     2   511   501  6.035927156E-01 -9.633061454E+00  9.800254376E+00  1.375518749E+01  1.192092896E-07  0.00000E+00  9.000E+00
#rwgt            1           1   4.5092384915092633E-002           6       48524           0
</event>
<event>
      5   9999  3.79277E-02  2.50460E+01 -1.00000E+00  1.58691E-01
      21    -1     0     0   502   501  0.000000000E+00  0.000000000E+00  1.728033803E+02  1.728033803E+02  0.000000000E+00  0.00000E+00  9.000E+00
      21    -1     0     0   512   502  0.000000000E+00  0.000000000E+00 -2.529870122E+02  2.529870122E+02  0.000000000E+00  0.00000E+00  9.000E+00
      25     1     1     2     0     0  8.396316693E+01 -9.576374355E+01 -1.244710573E+02  2.175742450E+02  1.250000000E+02  0.00000E+00  9.000E+00
      25     1     1     2     0     0 -6.341132892E+01  8.144854899E+01  6.603669254E+01  1.750448729E+02  1.250000000E+02  0.00000E+00  9.000E+00
      21     1     1     2   512   501 -2.055183800E+01  1.431519456E+01 -2.174926711E+01  3.317127463E+01  0.000000000E+00  0.00000E+00  9.000E+00
#rwgt            1           1   4.2264695664350080E-002           6       48785           0
</event>
<event>
      5   9999  3.79277E-02  1.36038E+02 -1.00000E+00  1.18100E-01
      21    -1     0     0   502   501  0.000000000E+00  0.000000000E+00  1.777282425E+02  1.777282425E+02  0.000000000E+00  0.00000E+00  9.000E+00
      21    -1     0     0   511   502  0.000000000E+00  0.000000000E+00 -8.504227276E+02  8.504227276E+02  0.000000000E+00  0.00000E+00  9.000E+00
      25     1     1     2     0     0  1.656768687E+01 -2.203493716E+02  1.874437964E+01  2.545676444E+02  1.250000000E+02  0.00000E+00  9.000E+00
      25     1     1     2     0     0  6.996799866E+01  1.153830906E+02 -5.377346638E+02  5.683241567E+02  1.250000000E+02  0.00000E+00  9.000E+00
      21     1     1     2   511   501 -8.653568554E+01  1.049662811E+02 -1.537042009E+02  2.052591689E+02  2.697398305E-06  0.00000E+00  9.000E+00
#rwgt            1           1   4.0073320525949571E-002           6       49039           0
</event>
<event>
      5   9999  3.79277E-02  2.09030E+01 -1.00000E+00  1.64802E-01
       2    -1     0     0   502     0  0.000000000E+00  0.000000000E+00  1.750791736E+03  1.750791736E+03  0.000000000E+00  0.00000E+00  9.000E+00
      21    -1     0     0   501   502  0.000000000E+00  0.000000000E+00 -3.899204249E+01  3.899204249E+01  0.000000000E+00  0.00000E+00  9.000E+00
      25     1     1     2     0     0  1.187722710E+02 -3.793846970E+01  3.213340428E+02  3.666425328E+02  1.250000000E+02  0.00000E+00  9.000E+00
      25     1     1     2     0     0 -9.846562081E+01  4.289565470E+01  4.022119017E+02  4.346664578E+02  1.250000000E+02  0.00000E+00  9.000E+00
       2     1     1     2   501     0 -2.030665017E+01 -4.957185003E+00  9.882537494E+02  9.884747883E+02  1.078959322E-05  0.00000E+00  9.000E+00
#rwgt            1           1   4.0197481212697193E-002           6       49111           0
</event>
<event>
      5   9999  3.79277E-02  8.99601E+01 -1.00000E+00  1.25931E-01
      21    -1     0     0   502   501  0.000000000E+00  0.000000000E+00  2.594969650E+02  2.594969650E+02  0.000000000E+00  0.00000E+00  9.000E+00
      21    -1     0     0   511   502  0.000000000E+00  0.000000000E+00 -5.522750660E+02  5.522750660E+02  0.000000000E+00  0.00000E+00  9.000E+00
      25     1     1     2     0     0 -1.493978003E+02 -2.309819453E+02 -2.925459644E+02  4.205716385E+02  1.250000000E+02  0.00000E+00  9.000E+00
      25     1     1     2     0     0  1.817186301E+02  1.470284672E+02  7.328898076E+01  2.750187365E+02  1.250000000E+02  0.00000E+00  9.000E+00
      21     1     1     2   511   501 -3.232082984E+01  8.395347812E+01 -7.352111735E+01  1.161816562E+02  1.907348633E-06  0.00000E+00  9.000E+00
#rwgt            1           1   2.8870933089340883E-002           6       49482           0
</event>
<event>
      5   9999  3.79277E-02  5.72930E+01 -1.00000E+00  1.35784E-01
      21    -1     0     0   502   501  0.000000000E+00  0.000000000E+00  6.680028979E+01  6.680028979E+01  0.000000000E+00  0.00000E+00  9.000E+00
      21    -1     0     0   512   502  0.000000000E+00  0.000000000E+00 -8.628133114E+02  8.628133114E+02  0.000000000E+00  0.00000E+00  9.000E+00
      25     1     1     2     0     0 -5.560952501E+01  1.365778767E+01 -3.416845442E+01  1.416737016E+02  1.250000000E+02  0.00000E+00  9.000E+00
      25     1     1     2     0     0 -1.343841534E+00 -7.428575495E+00 -3.420343583E+02  3.642382351E+02  1.250000000E+02  0.00000E+00  9.000E+00
      21     1     1     2   512   501  5.695336654E+01 -6.229212172E+00 -4.198102089E+02  4.237016646E+02  0.000000000E+00  0.00000E+00  9.000E+00
#rwgt            1           1   3.6042351045859233E-002           6       49600           0
</event>
<event>
      5   9999  3.79277E-02  5.22200E+01 -1.00000E+00  1.38008E-01
      21    -1     0     0   502   501  0.000000000E+00  0.000000000E+00  2.519751516E+03  2.519751516E+03  0.000000000E+00  0.00000E+00  9.000E+00
      21    -1     0     0   511   502  0.000000000E+00  0.000000000E+00 -3.055988863E+01  3.055988863E+01  0.000000000E+00  0.00000E+00  9.000E+00
      25     1     1     2     0     0  1.002169758E+02  1.146029992E+02  8.868811172E+02  9.084934814E+02  1.250000000E+02  0.00000E+00  9.000E+00
      25     1     1     2     0     0 -1.511644558E+02 -1.260607623E+02  1.551618477E+03  1.569040122E+03  1.250000000E+02  0.00000E+00  9.000E+00
      21     1     1     2   511   501  5.094747999E+01  1.145776305E+01  5.069203378E+01  7.277780115E+01  1.168007728E-06  0.00000E+00  9.000E+00
#rwgt            1           1   5.9256018180731229E-002           6       49668           0
</event>
<event>
      5   9999  3.79277E-02  8.13950E+00 -1.00000E+00  2.06694E-01
      21    -1     0     0   502   501  0.000000000E+00  0.000000000E+00  7.696844767E+02  7.696844767E+02  0.000000000E+00  0.00000E+00  9.000E+00
      21    -1     0     0   501   512  0.000000000E+00  0.000000000E+00 -3.489737313E+01  3.489737313E+01  0.000000000E+00  0.00000E+00  9.000E+00
      25     1     1     2     0     0 -1.626771128E+01  3.413746991E+01  5.876564687E+02  6.019926333E+02  1.250000000E+02  0.00000E+00  9.000E+00
      25     1     1     2     0     0  8.746051457E+00 -3.724810305E+01  1.417810877E+02  1.928491416E+02  1.250000000E+02  0.00000E+00  9.000E+00
      21     1     1     2   502   512  7.521659824E+00  3.110633140E+00  5.349547150E+00  9.740074935E+00  2.149076030E-07  0.00000E+00  9.000E+00
#rwgt            1           1   5.5062289945136907E-002           6       49791           0
</event>
<event>
      5   9999  3.79277E-02  1.19038E+02 -1.00000E+00  1.20517E-01
       1    -1     0     0   502     0  0.000000000E+00  0.000000000E+00  1.179372781E+03  1.179372781E+03  0.000000000E+00  0.00000E+00  9.000E+00
      21    -1     0     0   501   502  0.000000000E+00  0.000000000E+00 -7.334163284E+02  7.334163284E+02  0.000000000E+00  0.00000E+00  9.000E+00
      25     1     1     2     0     0  2.397806864E+02  1.482770974E+01 -4.392500215E+02  5.160234685E+02  1.250000000E+02  0.00000E+00  9.000E+00
      25     1     1     2     0     0 -1.607387139E+02 -1.038350179E+02 -2.008066388E+02  3.042481738E+02  1.250000000E+02  0.00000E+00  9.000E+00
       1     1     1     2   501     0 -7.904197254E+01  8.900730813E+01  1.086013113E+03  1.092517467E+03  1.525878906E-05  0.00000E+00  9.000E+00
#rwgt            1           1   3.5319833736482259E-002           6       50148           0
</event>
<event>
      5   9999  3.79277E-02  2.90469E+01 -1.00000E+00  1.54020E-01
       2    -1     0     0   502     0  0.000000000E+00  0.000000000E+00  1.645114550E+03  1.645114550E+03  0.000000000E+00  0.00000E+00  9.000E+00
      21    -1     0     0   501   502  0.000000000E+00  0.000000000E+00 -2.833479245E+01  2.833479245E+01  0.000000000E+00  0.00000E+00  9.000E+00
      25     1     1     2     0     0 -2.273698846E+01 -8.958514377E+01  2.652438500E+02  3.074439276E+02  1.250000000E+02  0.00000E+00  9.000E+00
      25     1     1     2     0     0  4.870786431E+01  1.025942779E+02  1.180698550E+03  1.192716273E+03  1.250000000E+02  0.00000E+00  9.000E+00
       2     1     1     2   501     0 -2.597087585E+01 -1.300913416E+01  1.708373569E+02  1.732891413E+02  1.907348633E-06  0.00000E+00  9.000E+00
#rwgt            1           1   4.6322942317875405E-002           6       50238           0
</event>
<event>
      5   9999  3.79277E-02  7.24957E+01 -1.00000E+00  1.30455E-01
      -1    -1     0     0     0   501  0.000000000E+00  0.000000000E+00  3.429234849E+02  3.429234849E+02  0.000000000E+00  0.00000E+00  9.000E+00
      21    -1     0     0   501   502  0.000000000E+00  0.000000000E+00 -4.142052072E+02  4.142052072E+02  0.000000000E+00  0.00000E+00  9.000E+00
      25     1     1     2     0     0 -2.402535074E+02 -8.408079738E+01 -1.226844417E+02  3.089786409E+02  1.250000000E+02  0.00000E+00  9.000E+00
      25     1     1     2     0     0  1.848307768E+02  1.308135187E+02 -1.023495169E+02  2.781636503E+02  1.250000000E+02  0.00000E+00  9.000E+00
      -1     1     1     2     0   502  5.542273057E+01 -4.673272135E+01  1.537522363E+02  1.699864009E+02  2.697398305E-06  0.00000E+00  9.000E+00
#rwgt            1           1   3.5898695921041661E-002           6       50496           0
</event>
<event>
      5   9999  3.79277E-02  1.14952E+02 -1.00000E+00  1.21166E-01
      21    -1     0     0   502   501  0.000000000E+00  0.000000000E+00  6.903463597E+01  6.903463597E+01  0.000000000E+00  0.00000E+00  9.000E+00
      21    -1     0     0   501   511  0.000000000E+00  0.000000000E+00 -1.348523149E+03  1.348523149E+03  0.000000000E+00  0.00000E+00  9.000E+00
      25     1     1     2     0     0 -1.808061763E+02 -2.671032935E+01 -8.346801236E+02  8.635509387E+02  1.250000000E+02  0.00000E+00  9.000E+00
      25     1     1     2     0     0  9.318459663E+01 -4.769715784E+01 -1.017190379E+02  1.921721899E+02  1.250000000E+02  0.00000E+00  9.000E+00
      21     1     1     2   502   511  8.762157965E+01  7.440748720E+01 -3.430893517E+02  3.618346565E+02  0.000000000E+00  0.00000E+00  9.000E+00
#rwgt            2          11   1.9535972043821740E-003           6       50667           0
</event>
<event>
      5   9999  3.79277E-02  3.39158E+01 -1.00000E+00  1.49429E-01
      21    -1     0     0   502   501  0.000000000E+00  0.000000000E+00  5.169701535E+02  5.169701535E+02  0.000000000E+00  0.00000E+00  9.000E+00
       2    -1     0     0   501     0  0.000000000E+00  0.000000000E+00 -1.467857614E+02  1.467857614E+02  0.000000000E+00  0.00000E+00  9.000E+00
      25     1     1     2     0     0  5.713932939E+01 -2.238518338E+02  2.164885150E+02  3.403921615E+02  1.250000000E+02  0.00000E+00  9.000E+00
      25     1     1     2     0     0 -3.856633978E+01  1.954735765E+02  1.653388265E+02  2.875051464E+02  1.250000000E+02  0.00000E+00  9.000E+00
       2     1     1     2   502     0 -1.857298961E+01  2.837825731E+01 -1.164294937E+01  3.585860707E+01  5.840038640E-07  0.00000E+00  9.000E+00
#rwgt            1           1  0.13014805695849582                6       50702           0
</event>
<event>
      5   9999 -3.79277E-02  2.68136E+01 -1.00000E+00  1.56506E-01
      21    -1     0     0   502   511  0.000000000E+00  0.000000000E+00  1.559598512E+02  1.559598512E+02  0.000000000E+00  0.00000E+00  9.000E+00
      21    -1     0     0   501   502  0.000000000E+00  0.000000000E+00 -2.868078580E+02  2.868078580E+02  0.000000000E+00  0.00000E+00  9.000E+00
      25     1     1     2     0     0  4.214744998E+01 -1.048707828E+02  7.731131783E-02  1.685209025E+02  1.250000000E+02  0.00000E+00  9.000E+00
      25     1     1     2     0     0 -4.976896053E+01  7.916317815E+01 -1.674552219E+02  2.289323253E+02  1.250000000E+02  0.00000E+00  9.000E+00
      21     1     1     2   501   511  7.621510558E+00  2.570760462E+01  3.652990377E+01  4.531448144E+01  6.743495762E-07  0.00000E+00  9.000E+00
#rwgt            1           1 -0.12165273943518366                6       50953           0
</event>
<event>
      5   9999  3.79277E-02  1.31842E+01 -1.00000E+00  1.82831E-01
      21    -1     0     0   502   501  0.000000000E+00  0.000000000E+00  1.542890865E+02  1.542890865E+02  0.000000000E+00  0.00000E+00  9.000E+00
      21    -1     0     0   501   512  0.000000000E+00  0.000000000E+00 -2.906064813E+02  2.906064813E+02  0.000000000E+00  0.00000E+00  9.000E+00
      25     1     1     2     0     0  4.773951709E+01 -3.487693876E+01 -1.532888639E+02  2.064411251E+02  1.250000000E+02  0.00000E+00  9.000E+00
      25     1     1     2     0     0 -5.961051589E+01  4.061297647E+01  8.611953517E+01  1.680607087E+02  1.250000000E+02  0.00000E+00  9.000E+00
      21     1     1     2   502   512  1.187099880E+01 -5.736037709E+00 -6.914806607E+01  7.039373397E+01  9.536743164E-07  0.00000E+00  9.000E+00
#rwgt            1           1   4.6403953136469313E-002           6       51065           0
</event>
<event>
      5   9999  3.79277E-02  1.22110E+02 -1.00000E+00  1.20048E-01
      21    -1     0     0   502   511  0.000000000E+00  0.000000000E+00  1.215419337E+02  1.215419337E+02  0.000000000E+00  0.00000E+00  9.000E+00
      21    -1     0     0   501   502  0.000000000E+00  0.000000000E+00 -9.481941586E+02  9.481941586E+02  0.000000000E+00  0.00000E+00  9.000E+00
      25     1     1     2     0     0 -1.326790829E+02 -1.156443054E+02 -4.456262502E+02  4.951616901E+02  1.250000000E+02  0.00000E+00  9.000E+00
      25     1     1     2     0     0  2.646148941E+01  5.540587317E+01 -4.230908668E+02  4.454221624E+02  1.250000000E+02  0.00000E+00  9.000E+00
      21     1     1     2   501   511  1.062175935E+02  6.023843225E+01  4.206489211E+01  1.291522398E+02  2.654916936E-06  0.00000E+00  9.000E+00
#rwgt            1           1   5.5441885605231549E-002           6       51225           0
</event>
<event>
      5   9999  3.79277E-02  1.99304E+01 -1.00000E+00  1.66494E-01
      21    -1     0     0   502   501  0.000000000E+00  0.000000000E+00  8.329194208E+02  8.329194208E+02  0.000000000E+00  0.00000E+00  9.000E+00
      21    -1     0     0   501   512  0.000000000E+00  0.000000000E+00 -5.266827582E+01  5.266827582E+01  0.000000000E+00  0.00000E+00  9.000E+00
      25     1     1     2     0     0  9.071699117E+01 -7.900822294E+01  2.468895229E+02  3.017470933E+02  1.250000000E+02  0.00000E+00  9.000E+00
      25     1     1     2     0     0 -7.774508657E+01  6.387705187E+01  5.396017237E+02  5.629561231E+02  1.250000000E+02  0.00000E+00  9.000E+00
      21     1     1     2   502   512 -1.297190460E+01  1.513117106E+01 -6.240101681E+00  2.088448026E+01  3.862822472E-07  0.00000E+00  9.000E+00
#rwgt            1           1   4.7960208182254216E-002           6       51465           0
</event>
<event>
      5   9999  3.79277E-02  7.39602E+01 -1.00000E+00  1.30022E-01
      21    -1     0     0   502   501  0.000000000E+00  0.000000000E+00  1.813198159E+02  1.813198159E+02  0.000000000E+00  0.00000E+00  9.000E+00
       3    -1     0     0   501     0  0.000000000E+00  0.000000000E+00 -1.429949158E+03  1.429949158E+03  0.000000000E+00  0.00000E+00  9.000E+00
      25     1     1     2     0     0  9.021206752E+00  1.122531686E+02  7.822218136E+01  1.855420860E+02  1.250000000E+02  0.00000E+00  9.000E+00
      25     1     1     2     0     0  1.634874832E+01 -1.817259807E+02 -2.053942334E+02  3.018334057E+02  1.250000000E+02  0.00000E+00  9.000E+00
       3     1     1     2   502     0 -2.536995508E+01  6.947281217E+01 -1.121457290E+03  1.123893482E+03  1.525878906E-05  0.00000E+00  9.000E+00
#rwgt            2          14   3.7745840462616792E-005           6       51661           0
</event>
<event>
      5   9999  3.79277E-02  3.73102E+01 -1.00000E+00  1.46740E-01
      21    -1     0     0   502   511  0.000000000E+00  0.000000000E+00  2.545107875E+02  2.545107875E+02  0.000000000E+00  0.00000E+00  9.000E+00
      21    -1     0     0   501   502  0.000000000E+00  0.000000000E+00 -4.968830196E+02  4.968830196E+02  0.000000000E+00  0.00000E+00  9.000E+00
      25     1     1     2     0     0  4.121803519E+01 -1.899316229E+02 -1.437690978E+02  2.721534517E+02  1.250000000E+02  0.00000E+00  9.000E+00
      25     1     1     2     0     0 -7.783126604E+01  1.971095042E+02 -2.335473185E+02  3.392332716E+02  1.250000000E+02  0.00000E+00  9.000E+00
      21     1     1     2   501   511  3.661323086E+01 -7.177881284E+00  1.349441842E+02  1.400070837E+02  0.000000000E+00  0.00000E+00  9.000E+00
#rwgt            1           1   4.5465903497329617E-002           6       51695           0
</event>
<event>
      5   9999  3.79277E-02  1.33339E+01 -1.00000E+00  1.82340E-01
      21    -1     0     0   502   501  0.000000000E+00  0.000000000E+00  1.075944193E+02  1.075944193E+02  0.000000000E+00  0.00000E+00  9.000E+00
      21    -1     0     0   501   512  0.000000000E+00  0.000000000E+00 -4.678546199E+02  4.678546199E+02  0.000000000E+00  0.00000E+00  9.000E+00
      25     1     1     2     0     0  7.833472082E+01  9.099783901E+01 -1.056344543E+01  1.736476938E+02  1.250000000E+02  0.00000E+00  9.000E+00
      25     1     1     2     0     0 -7.896960257E+01 -1.043166022E+02 -3.000026265E+02  3.503494364E+02  1.250000000E+02  0.00000E+00  9.000E+00
      21     1     1     2   502   512  6.348817493E-01  1.331876320E+01 -4.969412857E+01  5.145190902E+01  0.000000000E+00  0.00000E+00  9.000E+00
#rwgt            1           1   4.8792273108454458E-002           6       51885           0
</event>
<event>
      5   9999  3.79277E-02  4.59650E+01 -1.00000E+00  1.41193E-01
      21    -1     0     0   502   501  0.000000000E+00  0.000000000E+00  6.300402576E+01  6.300402576E+01  0.000000000E+00  0.00000E+00  9.000E+00
      21    -1     0     0   511   502  0.000000000E+00  0.000000000E+00 -1.193467291E+03  1.193467291E+03  0.000000000E+00  0.00000E+00  9.000E+00
      25     1     1     2     0     0 -1.274466016E+02  3.603875347E+01 -4.604576468E+02  4.951642883E+02  1.250000000E+02  0.00000E+00  9.000E+00
      25     1     1     2     0     0  1.529380145E+02 -7.428747536E+01 -2.055821155E+02  2.946144455E+02  1.250000000E+02  0.00000E+00  9.000E+00
      21     1     1     2   511   501 -2.549141290E+01  3.824872189E+01 -4.644235028E+02  4.666925827E+02  7.629394531E-06  0.00000E+00  9.000E+00
#rwgt            1           1   3.7897864143839173E-002           6       52235           0
</event>
<event>
      5   9999  3.79277E-02  7.47625E+01 -1.00000E+00  1.29789E-01
      21    -1     0     0   512   501  0.000000000E+00  0.000000000E+00  5.704596646E+02  5.704596646E+02  0.000000000E+00  0.00000E+00  9.000E+00
      21    -1     0     0   501   502  0.000000000E+00  0.000000000E+00 -3.977798621E+02  3.977798621E+02  0.000000000E+00  0.00000E+00  9.000E+00
      25     1     1     2     0     0  1.435799698E+02  3.359865734E+02 -1.915979199E+02  4.310880979E+02  1.250000000E+02  0.00000E+00  9.000E+00
      25     1     1     2     0     0 -1.350650484E+02 -2.617105547E+02  2.916543220E+02  4.329228861E+02  1.250000000E+02  0.00000E+00  9.000E+00
      21     1     1     2   512   502 -8.514921366E+00 -7.427601869E+01  7.262340040E+01  1.042285428E+02  9.536743164E-07  0.00000E+00  9.000E+00
#rwgt            1           1   3.1692166657608309E-002           6       52380           0
</event>
<event>
      5   9999  3.79277E-02  1.85943E+01 -1.00000E+00  1.69024E-01
      21    -1     0     0   502   511  0.000000000E+00  0.000000000E+00  2.762472223E+02  2.762472223E+02  0.000000000E+00  0.00000E+00  9.000E+00
      21    -1     0     0   501   502  0.000000000E+00  0.000000000E+00 -2.563258830E+02  2.563258830E+02  0.000000000E+00  0.00000E+00  9.000E+00
      25     1     1     2     0     0  1.313436135E+02 -1.156698358E+02 -1.060701090E+02  2.398051787E+02  1.250000000E+02  0.00000E+00  9.000E+00
      25     1     1     2     0     0 -1.162447454E+02  1.048175929E+02  3.933213087E+01  2.041361926E+02  1.250000000E+02  0.00000E+00  9.000E+00
      21     1     1     2   501   511 -1.509886807E+01  1.085224289E+01  8.665931736E+01  8.863173403E+01  1.348699152E-06  0.00000E+00  9.000E+00
#rwgt            1           1   3.9210329043571780E-002           6       52529           0
</event>
<event>
      5   9999  3.79277E-02  1.50648E+02 -1.00000E+00  1.16320E-01
      21    -1     0     0   502   501  0.000000000E+00  0.000000000E+00  1.675034331E+02  1.675034331E+02  0.000000000E+00  0.00000E+00  9.000E+00
       1    -1     0     0   501     0  0.000000000E+00  0.000000000E+00 -3.662701991E+03  3.662701991E+03  0.000000000E+00  0.00000E+00  9.000E+00
      25     1     1     2     0     0 -3.718193339E+02  2.238024789E+02 -5.232324891E+02  6.911833362E+02  1.250000000E+02  0.00000E+00  9.000E+00
      25     1     1     2     0     0  3.029445312E+02 -3.577837308E+02 -6.446495786E+02  8.068349684E+02  1.250000000E+02  0.00000E+00  9.000E+00
       1     1     1     2   502     0  6.887480267E+01  1.339812518E+02 -2.327316490E+03  2.332187119E+03  0.000000000E+00  0.00000E+00  9.000E+00
#rwgt            2          12   2.1028912854570371E-004           6       52821           0
</event>
<event>
      5   9999  3.79277E-02  3.59990E+01 -1.00000E+00  1.47737E-01
      21    -1     0     0   511   501  0.000000000E+00  0.000000000E+00  2.059512303E+02  2.059512303E+02  0.000000000E+00  0.00000E+00  9.000E+00
      21    -1     0     0   501   502  0.000000000E+00  0.000000000E+00 -8.820291825E+02  8.820291825E+02  0.000000000E+00  0.00000E+00  9.000E+00
      25     1     1     2     0     0  1.611397890E+02 -3.323857196E+02 -5.166332953E+02  6.472876177E+02  1.250000000E+02  0.00000E+00  9.000E+00
      25     1     1     2     0     0 -1.817990497E+02  3.029048251E+02 -1.482209095E+02  4.029846964E+02  1.250000000E+02  0.00000E+00  9.000E+00
      21     1     1     2   511   502  2.065926076E+01  2.948089452E+01 -1.122374746E+01  3.770809865E+01  1.192092896E-07  0.00000E+00  9.000E+00
#rwgt            1           1   5.0978140242410742E-002           6       52915           0
</event>
<event>
      5   9999  3.79277E-02  3.62039E+01 -1.00000E+00  1.47578E-01
      21    -1     0     0   512   501  0.000000000E+00  0.000000000E+00  5.975549395E+02  5.975549395E+02  0.000000000E+00  0.00000E+00  9.000E+00
      21    -1     0     0   501   502  0.000000000E+00  0.000000000E+00 -1.709760014E+03  1.709760014E+03  0.000000000E+00  0.00000E+00  9.000E+00
      25     1     1     2     0     0 -7.838472935E+01 -7.089891917E+01 -3.296392683E+02  3.680460158E+02  1.250000000E+02  0.00000E+00  9.000E+00
      25     1     1     2     0     0  4.643273496E+01  5.387557214E+01 -1.356545888E+03  1.364148204E+03  1.250000000E+02  0.00000E+00  9.000E+00
      21     1     1     2   512   502  3.195199439E+01  1.702334704E+01  5.739800817E+02  5.751207338E+02  0.000000000E+00  0.00000E+00  9.000E+00
#rwgt            1           1   3.3573126526805247E-002           6       53124           0
</event>
<event>
      5   9999  3.79277E-02  3.29249E+01 -1.00000E+00  1.50286E-01
      21    -1     0     0   502   501  0.000000000E+00  0.000000000E+00  4.799426623E+02  4.799426623E+02  0.000000000E+00  0.00000E+00  9.000E+00
      21    -1     0     0   501   511  0.000000000E+00  0.000000000E+00 -1.229356185E+02  1.229356185E+02  0.000000000E+00  0.00000E+00  9.000E+00
      25     1     1     2     0     0  4.196174826E+01  5.770785139E+01  3.477625626E+02  3.763705413E+02  1.250000000E+02  0.00000E+00  9.000E+00
      25     1     1     2     0     0 -7.201740973E+01 -7.115056586E+01  5.512376643E+01  1.700368782E+02  1.250000000E+02  0.00000E+00  9.000E+00
      21     1     1     2   502   511  3.005566147E+01  1.344271447E+01 -4.587928518E+01  5.647086122E+01  1.348699152E-06  0.00000E+00  9.000E+00
#rwgt            1           1   4.4529612218681451E-002           6       53255           0
</event>
<event>
      5   9999  3.92262E-02  1.11064E+02 -1.00000E+00  1.21812E-01
      21    -1     0     0   502   501  0.000000000E+00  0.000000000E+00  3.306158780E+02  3.306158780E+02  0.000000000E+00  0.00000E+00  9.000E+00
      21    -1     0     0   501   512  0.000000000E+00  0.000000000E+00 -5.773723961E+02  5.773723961E+02  0.000000000E+00  0.00000E+00  9.000E+00
      25     1     1     2     0     0  1.004121109E+02 -1.201828714E+02  1.422157504E+02  2.457169800E+02  1.250000000E+02  0.00000E+00  9.000E+00
      25     1     1     2     0     0 -1.379905459E+02  1.566946442E+01  6.274466173E+01  1.971010285E+02  1.250000000E+02  0.00000E+00  9.000E+00
      21     1     1     2   502   512  3.757843496E+01  1.045134069E+02 -4.517169302E+02  4.651702656E+02  5.394796609E-06  0.00000E+00  9.000E+00
#rwgt            1           1  0.27426464954639829                6       53357           0
</event>
<event>
      5   9999  3.79277E-02  8.54791E+00 -1.00000E+00  2.03979E-01
      21    -1     0     0   502   501  0.000000000E+00  0.000000000E+00  3.428028904E+01  3.428028904E+01  0.000000000E+00  0.00000E+00  9.000E+00
      21    -1     0     0   511   502  0.000000000E+00  0.000000000E+00 -2.298950352E+03  2.298950352E+03  0.000000000E+00  0.00000E+00  9.000E+00
      25     1     1     2     0     0 -1.098336743E+02 -4.126833903E+01 -1.406977421E+03  1.417383849E+03  1.250000000E+02  0.00000E+00  9.000E+00
      25     1     1     2     0     0  1.068313154E+02  3.326504974E+01 -2.131691580E+02  2.712666278E+02  1.250000000E+02  0.00000E+00  9.000E+00
      21     1     1     2   511   501  3.002358879E+00  8.003289288E+00 -6.445234842E+02  6.445801646E+02  0.000000000E+00  0.00000E+00  9.000E+00
#rwgt            1           1   4.4475210752936860E-002           6       53524           0
</event>
<event>
      5   9999  3.79277E-02  6.50250E+01 -1.00000E+00  1.32863E-01
      21    -1     0     0   502   512  0.000000000E+00  0.000000000E+00  1.238215358E+03  1.238215358E+03  0.000000000E+00  0.00000E+00  9.000E+00
      21    -1     0     0   501   502  0.000000000E+00  0.000000000E+00 -5.830486133E+01  5.830486133E+01  0.000000000E+00  0.00000E+00  9.000E+00
      25     1     1     2     0     0 -1.483074395E+02  1.258908534E+02  4.892781850E+02  5.411670222E+02  1.250000000E+02  0.00000E+00  9.000E+00
      25     1     1     2     0     0  8.349184968E+01 -1.311054008E+02  3.060310921E+02  3.652937782E+02  1.250000000E+02  0.00000E+00  9.000E+00
      21     1     1     2   501   512  6.481558981E+01  5.214547446E+00  3.846012199E+02  3.900594193E+02  5.394796609E-06  0.00000E+00  9.000E+00
#rwgt            1           1   2.6010784969255390E-002           6       53889           0
</event>
<event>
      5   9999  3.79277E-02  2.09625E+02 -1.00000E+00  1.10910E-01
      21    -1     0     0   511   501  0.000000000E+00  0.000000000E+00  8.996178951E+02  8.996178951E+02  0.000000000E+00  0.00000E+00  9.000E+00
      21    -1     0     0   501   502  0.000000000E+00  0.000000000E+00 -3.188143638E+02  3.188143638E+02  0.000000000E+00  0.00000E+00  9.000E+00
      25     1     1     2     0     0 -2.538390457E+02  2.451425062E+02  2.550300710E+02  4.529839364E+02  1.250000000E+02  0.00000E+00  9.000E+00
      25     1     1     2     0     0  1.604995318E+02 -4.328395427E+02  1.842677358E+02  5.125326994E+02  1.250000000E+02  0.00000E+00  9.000E+00
      21     1     1     2   511   502  9.333951386E+01  1.876970365E+02  1.415057245E+02  2.529156232E+02  3.303624740E-06  0.00000E+00  9.000E+00
#rwgt            1           1  0.10540356545934253                6       54125           0
</event>
<event>
      5   9999  3.79277E-02  9.87803E+01 -1.00000E+00  1.24068E-01
      21    -1     0     0   502   501  0.000000000E+00  0.000000000E+00  2.305628528E+02  2.305628528E+02  0.000000000E+00  0.00000E+00  9.000E+00
      21    -1     0     0   501   512  0.000000000E+00  0.000000000E+00 -3.979052923E+02  3.979052923E+02  0.000000000E+00  0.00000E+00  9.000E+00
      25     1     1     2     0     0  9.298519040E+01  1.457318609E+02 -6.080601208E+00  2.134150759E+02  1.250000000E+02  0.00000E+00  9.000E+00
      25     1     1     2     0     0 -1.527479886E+02 -6.708101196E+01  1.917909648E+01  2.093433732E+02  1.250000000E+02  0.00000E+00  9.000E+00
      21     1     1     2   502   512  5.976279816E+01 -7.865084894E+01 -1.804409347E+02  2.057096960E+02  4.264961200E-06  0.00000E+00  9.000E+00
#rwgt            1           1   3.9998673370645624E-002           6       54217           0
</event>
<event>
      5   9999  3.79277E-02  7.01352E+01 -1.00000E+00  1.31178E-01
      21    -1     0     0   502   501  0.000000000E+00  0.000000000E+00  3.238688417E+02  3.238688417E+02  0.000000000E+00  0.00000E+00  9.000E+00
       1    -1     0     0   501     0  0.000000000E+00  0.000000000E+00 -4.458097179E+02  4.458097179E+02  0.000000000E+00  0.00000E+00  9.000E+00
      25     1     1     2     0     0 -7.799415136E+01 -5.469727650E+01  2.575988603E+02  3.017566114E+02  1.250000000E+02  0.00000E+00  9.000E+00
      25     1     1     2     0     0  6.388088623E+01  1.233977731E+02 -1.931540096E+02  2.687773232E+02  1.250000000E+02  0.00000E+00  9.000E+00
       1     1     1     2   502     0  1.411326513E+01 -6.870049660E+01 -1.863857269E+02  1.991446250E+02  2.697398305E-06  0.00000E+00  9.000E+00
#rwgt            1           1   3.6363475863211127E-002           6       54273           0
</event>
<event>
      5   9999  3.79277E-02  6.68421E+01 -1.00000E+00  1.32244E-01
       2    -1     0     0   502     0  0.000000000E+00  0.000000000E+00  1.512483533E+03  1.512483533E+03  0.000000000E+00  0.00000E+00  9.000E+00
      21    -1     0     0   501   502  0.000000000E+00  0.000000000E+00 -4.605049663E+01  4.605049663E+01  0.000000000E+00  0.00000E+00  9.000E+00
      25     1     1     2     0     0  1.820164063E+00 -1.263922951E+02  3.568278609E+02  3.986595635E+02  1.250000000E+02  0.00000E+00  9.000E+00
      25     1     1     2     0     0 -5.098490840E+01  1.716769366E+02  4.874558848E+02  5.341448035E+02  1.250000000E+02  0.00000E+00  9.000E+00
       2     1     1     2   501     0  4.916474434E+01 -4.528464146E+01  6.221492911E+02  6.257296631E+02  1.078959322E-05  0.00000E+00  9.000E+00
#rwgt            1           1   3.6319443100907477E-002           6       54370           0
</event>
<event>
      5   9999  3.79277E-02  3.21048E+01 -1.00000E+00  1.51022E-01
       3    -1     0     0   502     0  0.000000000E+00  0.000000000E+00  1.090414070E+02  1.090414070E+02  0.000000000E+00  0.00000E+00  9.000E+00
      21    -1     0     0   501   502  0.000000000E+00  0.000000000E+00 -6.324253165E+02  6.324253165E+02  0.000000000E+00  0.00000E+00  9.000E+00
      25     1     1     2     0     0 -6.485122873E+01  1.236878387E+02 -4.054297473E+02  4.466571877E+02  1.250000000E+02  0.00000E+00  9.000E+00
      25     1     1     2     0     0  9.615630885E+01 -1.165667114E+02 -1.519218064E+02  2.480706940E+02  1.250000000E+02  0.00000E+00  9.000E+00
       3     1     1     2   501     0 -3.130508012E+01 -7.121127245E+00  3.396764416E+01  4.673884192E+01  8.259061849E-07  0.00000E+00  9.000E+00
#rwgt            1           1   4.8237278903809168E-002           6       54521           0
</event>
<event>
      5   9999  3.79277E-02  3.57478E+01 -1.00000E+00  1.47934E-01
      21    -1     0     0   502   501  0.000000000E+00  0.000000000E+00  2.319756527E+03  2.319756527E+03  0.000000000E+00  0.00000E+00  9.000E+00
      21    -1     0     0   501   511  0.000000000E+00  0.000000000E+00 -4.658281718E+01  4.658281718E+01  0.000000000E+00  0.00000E+00  9.000E+00
      25     1     1     2     0     0 -1.561043346E+02 -2.009683285E+02  8.661275572E+02  9.113499754E+02  1.250000000E+02  0.00000E+00  9.000E+00
      25     1     1     2     0     0  1.915320517E+02  2.057410720E+02  1.367521324E+03  1.401696646E+03  1.250000000E+02  0.00000E+00  9.000E+00
      21     1     1     2   502   511 -3.542771708E+01 -4.772743452E+00  3.952482802E+01  5.329272228E+01  8.259061849E-07  0.00000E+00  9.000E+00
#rwgt            1           1   9.5035520685721769E-002           6       54741           0
</event>
<event>
      5   9999  3.79277E-02  4.25672E+01 -1.00000E+00  1.43184E-01
      21    -1     0     0   502   501  0.000000000E+00  0.000000000E+00  2.599611999E+02  2.599611999E+02  0.000000000E+00  0.00000E+00  9.000E+00
      21    -1     0     0   512   502  0.000000000E+00  0.000000000E+00 -4.696855868E+02  4.696855868E+02  0.000000000E+00  0.00000E+00  9.000E+00
      25     1     1     2     0     0 -1.834315329E+00  1.488262082E+02 -3.586262131E+02  4.079097519E+02  1.250000000E+02  0.00000E+00  9.000E+00
      25     1     1     2     0     0  4.183901184E+01 -1.633725035E+02  1.737062848E+02  2.724700923E+02  1.250000000E+02  0.00000E+00  9.000E+00
      21     1     1     2   512   501 -4.000469652E+01  1.454629528E+01 -2.480445861E+01  4.926694243E+01  4.768371582E-07  0.00000E+00  9.000E+00
#rwgt            1           1   5.2291402478247664E-002           6       54887           0
</event>
<event>
      5   9999  3.79277E-02  4.76943E+01 -1.00000E+00  1.40256E-01
      21    -1     0     0   502   501  0.000000000E+00  0.000000000E+00  1.035828078E+03  1.035828078E+03  0.000000000E+00  0.00000E+00  9.000E+00
      21    -1     0     0   511   502  0.000000000E+00  0.000000000E+00 -6.376627665E+01  6.376627665E+01  0.000000000E+00  0.00000E+00  9.000E+00
      25     1     1     2     0     0  8.684473122E+01  4.203261386E+01  2.657899800E+02  3.091570175E+02  1.250000000E+02  0.00000E+00  9.000E+00
      25     1     1     2     0     0 -1.114242321E+02 -8.290547299E+01  7.175068767E+02  7.414376542E+02  1.250000000E+02  0.00000E+00  9.000E+00
      21     1     1     2   511   501  2.457950093E+01  4.087285913E+01 -1.123505524E+01  4.899968312E+01  1.395308961E-06  0.00000E+00  9.000E+00
#rwgt            1           1   4.9464807685869250E-002           6       55014           0
</event>
<event>
      5   9999  3.79277E-02  2.24446E+01 -1.00000E+00  1.62340E-01
      21    -1     0     0   502   501  0.000000000E+00  0.000000000E+00  2.401019228E+02  2.401019228E+02  0.000000000E+00  0.00000E+00  9.000E+00
      21    -1     0     0   512   502  0.000000000E+00  0.000000000E+00 -7.444968716E+02  7.444968716E+02  0.000000000E+00  0.00000E+00  9.000E+00
      25     1     1     2     0     0  6.357200183E+01  2.893677460E+02 -7.201801538E+01  3.295249405E+02  1.250000000E+02  0.00000E+00  9.000E+00
      25     1     1     2     0     0 -7.098914425E+01 -3.105513926E+02 -1.530974449E+02  3.748939232E+02  1.250000000E+02  0.00000E+00  9.000E+00
      21     1     1     2   512   501  7.417142418E+00  2.118364653E+01 -2.792794885E+02  2.801799307E+02  3.814697266E-06  0.00000E+00  9.000E+00
#rwgt            1           1   5.6533171012499502E-002           6       55088           0
</event>
<event>
      5   9999  3.79277E-02  3.15254E+01 -1.00000E+00  1.51559E-01
      21    -1     0     0   511   501  0.000000000E+00  0.000000000E+00  7.505684662E+02  7.505684662E+02  0.000000000E+00  0.00000E+00  9.000E+00
      21    -1     0     0   501   502  0.000000000E+00  0.000000000E+00 -6.706805425E+02  6.706805425E+02  0.000000000E+00  0.00000E+00  9.000E+00
      25     1     1     2     0     0  1.581091074E+02  2.370463673E+02 -3.100971987E+02  4.392889058E+02  1.250000000E+02  0.00000E+00  9.000E+00
      25     1     1     2     0     0 -1.522385375E+02 -2.680203663E+02 -2.019885328E+02  3.891476024E+02  1.250000000E+02  0.00000E+00  9.000E+00
      21     1     1     2   511   502 -5.870569928E+00  3.097399903E+01  5.919736553E+02  5.928125005E+02  7.629394531E-06  0.00000E+00  9.000E+00
#rwgt            1           1   3.5038689601429023E-002           6       55205           0
</event>
<event>
      5   9999  3.79277E-02  3.71976E+01 -1.00000E+00  1.46824E-01
      21    -1     0     0   502   512  0.000000000E+00  0.000000000E+00  2.852488871E+02  2.852488871E+02  0.000000000E+00  0.00000E+00  9.000E+00
      21    -1     0     0   501   502  0.000000000E+00  0.000000000E+00 -1.889237355E+02  1.889237355E+02  0.000000000E+00  0.00000E+00  9.000E+00
      25     1     1     2     0     0 -1.088735366E+02 -4.304424750E+01 -7.887044893E+01  1.885518547E+02  1.250000000E+02  0.00000E+00  9.000E+00
      25     1     1     2     0     0  7.188571765E+01  4.698911788E+01  5.751125628E+01  1.621976516E+02  1.250000000E+02  0.00000E+00  9.000E+00
      21     1     1     2   501   512  3.698781891E+01 -3.944870383E+00  1.176843442E+02  1.234231162E+02  1.348699152E-06  0.00000E+00  9.000E+00
#rwgt            1           1   3.7069039403868347E-002           6       55377           0
</event>
<event>
      5   9999  3.79277E-02  2.36170E+01 -1.00000E+00  1.60625E-01
      21    -1     0     0   502   511  0.000000000E+00  0.000000000E+00  9.295604437E+02  9.295604437E+02  0.000000000E+00  0.00000E+00  9.000E+00
      21    -1     0     0   501   502  0.000000000E+00  0.000000000E+00 -2.590233129E+02  2.590233129E+02  0.000000000E+00  0.00000E+00  9.000E+00
      25     1     1     2     0     0 -6.390116525E+01 -3.932623573E+01 -2.275530300E+02  2.702504269E+02  1.250000000E+02  0.00000E+00  9.000E+00
      25     1     1     2     0     0  7.410449868E+01  6.062544317E+01  6.367699661E+02  6.559481007E+02  1.250000000E+02  0.00000E+00  9.000E+00
      21     1     1     2   501   511 -1.020333343E+01 -2.129920744E+01  2.613201947E+02  2.623852290E+02  3.814697266E-06  0.00000E+00  9.000E+00
#rwgt            1           1   4.5961766803617882E-002           6       55530           0
</event>
<event>
      5   9999  3.79277E-02  2.29603E+01 -1.00000E+00  1.61570E-01
      21    -1     0     0   502   501  0.000000000E+00  0.000000000E+00  4.973694093E+02  4.973694093E+02  0.000000000E+00  0.00000E+00  9.000E+00
      21    -1     0     0   512   502  0.000000000E+00  0.000000000E+00 -1.288591234E+02  1.288591234E+02  0.000000000E+00  0.00000E+00  9.000E+00
      25     1     1     2     0     0  4.625785491E+01  9.139105008E+01  3.908715943E+02  4.229630201E+02  1.250000000E+02  0.00000E+00  9.000E+00
      25     1     1     2     0     0 -3.326972996E+01 -1.103247129E+02  1.684396004E+00  1.700183943E+02  1.250000000E+02  0.00000E+00  9.000E+00
      21     1     1     2   512   501 -1.298812495E+01  1.893366283E+01 -2.404570438E+01  3.324711832E+01  5.840038640E-07  0.00000E+00  9.000E+00
#rwgt            1           1   3.4838149102989970E-002           6       55722           0
</event>
<event>
      5   9999  3.79277E-02  9.65625E+01 -1.00000E+00  1.24515E-01
      21    -1     0     0   502   501  0.000000000E+00  0.000000000E+00  1.453882445E+02  1.453882445E+02  0.000000000E+00  0.00000E+00  9.000E+00
      21    -1     0     0   501   511  0.000000000E+00  0.000000000E+00 -1.094651719E+03  1.094651719E+03  0.000000000E+00  0.00000E+00  9.000E+00
      25     1     1     2     0     0  6.082705610E+00  2.605451599E+01  9.571295890E+01  1.596928540E+02  1.250000000E+02  0.00000E+00  9.000E+00
      25     1     1     2     0     0 -9.165173101E+01 -7.080109521E+01 -7.780326712E+02  7.964751549E+02  1.250000000E+02  0.00000E+00  9.000E+00
      21     1     1     2   502   511  8.556902540E+01  4.474657922E+01 -2.669437618E+02  2.838719543E+02  5.394796609E-06  0.00000E+00  9.000E+00
#rwgt            1           1   2.9541880872139981E-002           6       55903           0
</event>
<event>
      5   9999  3.79277E-02  4.05291E+01 -1.00000E+00  1.44487E-01
      21    -1     0     0   502   501  0.000000000E+00  0.000000000E+00  6.782351526E+01  6.782351526E+01  0.000000000E+00  0.00000E+00  9.000E+00
      21    -1     0     0   501   512  0.000000000E+00  0.000000000E+00 -1.605519133E+03  1.605519133E+03  0.000000000E+00  0.00000E+00  9.000E+00
      25     1     1     2     0     0 -1.004027093E+02  2.289242708E+02 -3.520136502E+02  4.494726195E+02  1.250000000E+02  0.00000E+00  9.000E+00
      25     1     1     2     0     0  6.458942802E+01 -2.099502520E+02 -8.820342725E+02  9.175294875E+02  1.250000000E+02  0.00000E+00  9.000E+00
      21     1     1     2   502   512  3.581328129E+01 -1.897401876E+01 -3.036476951E+02  3.063405413E+02  0.000000000E+00  0.00000E+00  9.000E+00
#rwgt            1           1   3.7938595962693313E-002           6       56013           0
</event>
<event>
      5   9999  3.79277E-02  2.15320E+01 -1.00000E+00  1.63767E-01
      21    -1     0     0   502   511  0.000000000E+00  0.000000000E+00  8.067577639E+02  8.067577639E+02  0.000000000E+00  0.00000E+00  9.000E+00
      21    -1     0     0   501   502  0.000000000E+00  0.000000000E+00 -1.049856930E+02  1.049856930E+02  0.000000000E+00  0.00000E+00  9.000E+00
      25     1     1     2     0     0 -1.731694054E+02  8.875583911E+01  1.038719275E+02  2.535342566E+02  1.250000000E+02  0.00000E+00  9.000E+00
      25     1     1     2     0     0  1.598089411E+02 -1.056415360E+02  4.134725480E+02  4.725289194E+02  1.250000000E+02  0.00000E+00  9.000E+00
      21     1     1     2   501   511  1.336046431E+01  1.688569690E+01  1.844275954E+02  1.856802809E+02  0.000000000E+00  0.00000E+00  9.000E+00
#rwgt            1           1   2.9976895472550287E-002           6       56161           0
</event>
<event>
      5   9999  3.79277E-02  9.16867E+01 -1.00000E+00  1.25547E-01
      21    -1     0     0   502   501  0.000000000E+00  0.000000000E+00  1.553509280E+02  1.553509280E+02  0.000000000E+00  0.00000E+00  9.000E+00
      21    -1     0     0   501   512  0.000000000E+00  0.000000000E+00 -7.900674806E+02  7.900674806E+02  0.000000000E+00  0.00000E+00  9.000E+00
      25     1     1     2     0     0  6.391757369E+01 -2.431623081E+02 -4.100137457E+02  4.969402741E+02  1.250000000E+02  0.00000E+00  9.000E+00
      25     1     1     2     0     0  2.671152139E+01  2.292765631E+02 -7.512942175E+01  2.730397000E+02  1.250000000E+02  0.00000E+00  9.000E+00
      21     1     1     2   502   512 -9.062909509E+01  1.388574508E+01 -1.495733852E+02  1.754384346E+02  0.000000000E+00  0.00000E+00  9.000E+00
#rwgt            1           1   3.7260977010382904E-002           6       56347           0
</event>
<event>
      5   9999  3.79277E-02  3.49240E+01 -1.00000E+00  1.48593E-01
      21    -1     0     0   502   501  0.000000000E+00  0.000000000E+00  1.133989498E+02  1.133989498E+02  0.000000000E+00  0.00000E+00  9.000E+00
      21    -1     0     0   511   502  0.000000000E+00  0.000000000E+00 -4.893711232E+02  4.893711232E+02  0.000000000E+00  0.00000E+00  9.000E+00
      25     1     1     2     0     0 -4.376419485E+00 -1.681495700E+02 -1.958155486E+02  2.868138072E+02  1.250000000E+02  0.00000E+00  9.000E+00
      25     1     1     2     0     0 -2.843884567E+01  1.801013263E+02 -1.355886474E+02  2.593347971E+02  1.250000000E+02  0.00000E+00  9.000E+00
      21     1     1     2   511   501  3.281526516E+01 -1.195175629E+01 -4.456797746E+01  5.662146873E+01  4.768371582E-07  0.00000E+00  9.000E+00
#rwgt            1           1   3.4803528088853779E-002           6       56436           0
</event>
<event>
      5   9999  3.79277E-02  4.56635E+01 -1.00000E+00  1.41361E-01
      21    -1     0     0   502   501  0.000000000E+00  0.000000000E+00  5.761175041E+01  5.761175041E+01  0.000000000E+00  0.00000E+00  9.000E+00
      21    -1     0     0   512   502  0.000000000E+00  0.000000000E+00 -7.197361332E+02  7.197361332E+02  0.000000000E+00  0.00000E+00  9.000E+00
      25     1     1     2     0     0  6.786962042E+00  1.059019118E+02 -3.695203140E+02  4.042666697E+02  1.250000000E+02  0.00000E+00  9.000E+00
      25     1     1     2     0     0 -4.909109062E+01 -1.230925447E+02 -2.046936471E+02  2.740186105E+02  1.250000000E+02  0.00000E+00  9.000E+00
      21     1     1     2   512   501  4.230412858E+01  1.719063282E+01 -8.791042172E+01  9.906260343E+01  1.651812370E-06  0.00000E+00  9.000E+00
#rwgt            1           1   2.3190242972536374E-002           6       56544           0
</event>
<event>
      5   9999  3.79277E-02  3.76858E+01 -1.00000E+00  1.46464E-01
      21    -1     0     0   502   511  0.000000000E+00  0.000000000E+00  7.543513713E+02  7.543513713E+02  0.000000000E+00  0.00000E+00  9.000E+00
      21    -1     0     0   501   502  0.000000000E+00  0.000000000E+00 -2.986470705E+02  2.986470705E+02  0.000000000E+00  0.00000E+00  9.000E+00
      25     1     1     2     0     0 -3.814394172E+01  7.523963601E+01 -2.361871726E+02  2.802237385E+02  1.250000000E+02  0.00000E+00  9.000E+00
      25     1     1     2     0     0  1.682417078E+01 -1.063151646E+02  1.310743282E+02  2.106927774E+02  1.250000000E+02  0.00000E+00  9.000E+00
      21     1     1     2   501   511  2.131977094E+01  3.107552857E+01  5.608171452E+02  5.620819259E+02  0.000000000E+00  0.00000E+00  9.000E+00
#rwgt            1           1   3.7420193159087969E-002           6       56745           0
</event>
<event>
      5   9999  3.79277E-02  1.62761E+02 -1.00000E+00  1.15005E-01
      21    -1     0     0   512   501  0.000000000E+00  0.000000000E+00  3.208064205E+03  3.208064205E+03  0.000000000E+00  0.00000E+00  9.000E+00
      21    -1     0     0   501   502  0.000000000E+00  0.000000000E+00 -2.224024007E+02  2.224024007E+02  0.000000000E+00  0.00000E+00  9.000E+00
      25     1     1     2     0     0  2.813622455E+02  1.657209008E+02  1.407807347E+02  3.769248538E+02  1.250000000E+02  0.00000E+00  9.000E+00
      25     1     1     2     0     0 -3.078705267E+02 -5.133190582E+00  1.691968574E+02  3.729117690E+02  1.250000000E+02  0.00000E+00  9.000E+00
      21     1     1     2   512   502  2.650828123E+01 -1.605877102E+02  2.675684212E+03  2.680629983E+03  3.051757812E-05  0.00000E+00  9.000E+00
#rwgt            2          11   5.1387626051320739E-004           6       56866           0
</event>
<event>
      5   9999  3.79277E-02  2.92225E+01 -1.00000E+00  1.53836E-01
      21    -1     0     0   511   501  0.000000000E+00  0.000000000E+00  1.839909683E+02  1.839909683E+02  0.000000000E+00  0.00000E+00  9.000E+00
      21    -1     0     0   501   502  0.000000000E+00  0.000000000E+00 -1.493910035E+03  1.493910035E+03  0.000000000E+00  0.00000E+00  9.000E+00
      25     1     1     2     0     0 -4.628558566E+02  1.585709473E+02 -7.834731789E+02  9.321134648E+02  1.250000000E+02  0.00000E+00  9.000E+00
      25     1     1     2     0     0  4.568187591E+02 -1.299788903E+02 -5.211288292E+02  7.160852932E+02  1.250000000E+02  0.00000E+00  9.000E+00
      21     1     1     2   511   502  6.037097489E+00 -2.859205700E+01 -5.317058780E+00  2.970224543E+01  2.308477966E-07  0.00000E+00  9.000E+00
#rwgt            1           1   4.7277345386045770E-002           6       56886           0
</event>
<event>
      5   9999  3.79277E-02  2.78336E+01 -1.00000E+00  1.55336E-01
      21    -1     0     0   512   501  0.000000000E+00  0.000000000E+00  5.003203764E+02  5.003203764E+02  0.000000000E+00  0.00000E+00  9.000E+00
      21    -1     0     0   501   502  0.000000000E+00  0.000000000E+00 -7.258842614E+01  7.258842614E+01  0.000000000E+00  0.00000E+00  9.000E+00
      25     1     1     2     0     0 -3.184182936E+01  9.782849824E+01  2.636675382E+02  3.094024691E+02  1.250000000E+02  0.00000E+00  9.000E+00
      25     1     1     2     0     0  1.193761299E+01 -1.172844274E+02  1.139276694E+02  2.061617263E+02  1.250000000E+02  0.00000E+00  9.000E+00
      21     1     1     2   512   502  1.990421637E+01  1.945592920E+01  5.013674264E+01  5.734460718E+01  9.536743164E-07  0.00000E+00  9.000E+00
#rwgt            1           1   4.3100668655855379E-002           6       57051           0
</event>
<event>
      5   9999  3.79277E-02  1.78296E+01 -1.00000E+00  1.70593E-01
      21    -1     0     0   502   501  0.000000000E+00  0.000000000E+00  2.542646162E+02  2.542646162E+02  0.000000000E+00  0.00000E+00  9.000E+00
      21    -1     0     0   511   502  0.000000000E+00  0.000000000E+00 -1.679320008E+02  1.679320008E+02  0.000000000E+00  0.00000E+00  9.000E+00
      25     1     1     2     0     0 -9.098026184E+01  8.356732910E+01 -3.044796347E+01  1.783619495E+02  1.250000000E+02  0.00000E+00  9.000E+00
      25     1     1     2     0     0  7.318027425E+01 -8.459479713E+01  1.372165424E+02  2.167141245E+02  1.250000000E+02  0.00000E+00  9.000E+00
      21     1     1     2   511   501  1.779998759E+01  1.027468031E+00 -2.043596354E+01  2.712054304E+01  4.129530925E-07  0.00000E+00  9.000E+00
#rwgt            1           1   4.0509031004212298E-002           6       57363           0
</event>
<event>
      5   9999  3.79277E-02  8.10608E+01 -1.00000E+00  1.28073E-01
      21    -1     0     0   502   501  0.000000000E+00  0.000000000E+00  3.698339391E+02  3.698339391E+02  0.000000000E+00  0.00000E+00  9.000E+00
       2    -1     0     0   501     0  0.000000000E+00  0.000000000E+00 -1.419589256E+03  1.419589256E+03  0.000000000E+00  0.00000E+00  9.000E+00
      25     1     1     2     0     0  1.073953633E+02 -3.459513086E+01 -3.267231454E+02  3.675644173E+02  1.250000000E+02  0.00000E+00  9.000E+00
      25     1     1     2     0     0 -1.684460585E+02 -1.873095089E+01  3.159589109E+02  3.797103587E+02  1.250000000E+02  0.00000E+00  9.000E+00
       2     1     1     2   502     0  6.105069528E+01  5.332608175E+01 -1.038991083E+03  1.042148419E+03  0.000000000E+00  0.00000E+00  9.000E+00
#rwgt            1           1   4.1102232391547713E-002           6       57517           0
</event>
<event>
      5   9999  3.79277E-02  3.70864E+01 -1.00000E+00  1.46907E-01
      21    -1     0     0   511   501  0.000000000E+00  0.000000000E+00  2.047910731E+02  2.047910731E+02  0.000000000E+00  0.00000E+00  9.000E+00
      21    -1     0     0   501   502  0.000000000E+00  0.000000000E+00 -2.830589903E+02  2.830589903E+02  0.000000000E+00  0.00000E+00  9.000E+00
      25     1     1     2     0     0  7.323084752E+01 -1.329015466E+02  8.677959261E+01  2.148982918E+02  1.250000000E+02  0.00000E+00  9.000E+00
      25     1     1     2     0     0 -4.983081165E+01  1.041293624E+02 -1.632840458E+02  2.358234796E+02  1.250000000E+02  0.00000E+00  9.000E+00
      21     1     1     2   511   502 -2.340003588E+01  2.877218420E+01 -1.763463941E+00  3.712829202E+01  9.518098487E-07  0.00000E+00  9.000E+00
#rwgt            1           1   4.1724920372020739E-002           6       57608           0
</event>
<event>
      5   9999  3.79277E-02  4.24752E+01 -1.00000E+00  1.43241E-01
      21    -1     0     0   502   512  0.000000000E+00  0.000000000E+00  3.843396711E+02  3.843396711E+02  0.000000000E+00  0.00000E+00  9.000E+00
      21    -1     0     0   501   502  0.000000000E+00  0.000000000E+00 -1.419677125E+02  1.419677125E+02  0.000000000E+00  0.00000E+00  9.000E+00
      25     1     1     2     0     0 -7.081826960E+01  2.702112558E+01  1.821521101E+02  2.335589000E+02  1.250000000E+02  0.00000E+00  9.000E+00
      25     1     1     2     0     0  4.717956319E+01 -6.231072434E+01 -6.455844191E+01  1.609389014E+02  1.250000000E+02  0.00000E+00  9.000E+00
      21     1     1     2   501   512  2.363870641E+01  3.528959876E+01  1.247782904E+02  1.318095823E+02  1.907348633E-06  0.00000E+00  9.000E+00
#rwgt            1           1   3.8212947287268068E-002           6       57790           0
</event>
<event>
      5   9999  3.79277E-02  6.08981E+01 -1.00000E+00  1.34359E-01
      21    -1     0     0   511   501  0.000000000E+00  0.000000000E+00  3.576909969E+02  3.576909969E+02  0.000000000E+00  0.00000E+00  9.000E+00
      21    -1     0     0   501   502  0.000000000E+00  0.000000000E+00 -1.748250869E+02  1.748250869E+02  0.000000000E+00  0.00000E+00  9.000E+00
      25     1     1     2     0     0  1.063033061E+02  1.723245819E+02  6.125177588E+01  2.457090443E+02  1.250000000E+02  0.00000E+00  9.000E+00
      25     1     1     2     0     0 -8.443723623E+01 -1.154875023E+02  5.775144294E+01  1.985629351E+02  1.250000000E+02  0.00000E+00  9.000E+00
      21     1     1     2   511   502 -2.186606991E+01 -5.683707959E+01  6.386269121E+01  8.824410439E+01  6.743495762E-07  0.00000E+00  9.000E+00
#rwgt            1           1   3.6821011586795488E-002           6       57891           0
</event>
<event>
      5   9999  3.79277E-02  1.33760E+01 -1.00000E+00  1.82204E-01
      21    -1     0     0   502   512  0.000000000E+00  0.000000000E+00  1.546183944E+03  1.546183944E+03  0.000000000E+00  0.00000E+00  9.000E+00
      21    -1     0     0   501   502  0.000000000E+00  0.000000000E+00 -8.789849941E+01  8.789849941E+01  0.000000000E+00  0.00000E+00  9.000E+00
      25     1     1     2     0     0  9.829947853E+01  4.993793296E+01  1.711481557E+02  2.389001378E+02  1.250000000E+02  0.00000E+00  9.000E+00
      25     1     1     2     0     0 -1.078018484E+02 -5.935192279E+01  8.850244096E+01  1.964728259E+02  1.250000000E+02  0.00000E+00  9.000E+00
      21     1     1     2   501   512  9.502369827E+00  9.413989833E+00  1.198634848E+03  1.198709480E+03  0.000000000E+00  0.00000E+00  9.000E+00
#rwgt            1           1   4.7125188382427657E-002           6       57994           0
</event>
<event>
      5   9999  3.79277E-02  1.22784E+01 -1.00000E+00  1.85987E-01
      21    -1     0     0   502   501  0.000000000E+00  0.000000000E+00  5.469950380E+02  5.469950380E+02  0.000000000E+00  0.00000E+00  9.000E+00
      21    -1     0     0   501   511  0.000000000E+00  0.000000000E+00 -1.880025380E+02  1.880025380E+02  0.000000000E+00  0.00000E+00  9.000E+00
      25     1     1     2     0     0 -1.357904504E+02  6.958845695E+01  3.617219430E+02  4.120065094E+02  1.250000000E+02  0.00000E+00  9.000E+00
      25     1     1     2     0     0  1.268045788E+02 -7.795584917E+01  1.006479797E+02  2.188870289E+02  1.250000000E+02  0.00000E+00  9.000E+00
      21     1     1     2   502   511  8.985871645E+00  8.367392219E+00 -1.033774226E+02  1.041040376E+02  1.348699152E-06  0.00000E+00  9.000E+00
#rwgt            1           1   3.6545998929182692E-002           6       58192           0
</event>
<event>
      5   9999  3.79277E-02  1.01786E+01 -1.00000E+00  1.94872E-01
      21    -1     0     0   502   512  0.000000000E+00  0.000000000E+00  6.812203569E+02  6.812203569E+02  0.000000000E+00  0.00000E+00  9.000E+00
      21    -1     0     0   501   502  0.000000000E+00  0.000000000E+00 -3.008022354E+02  3.008022354E+02  0.000000000E+00  0.00000E+00  9.000E+00
      25     1     1     2     0     0  2.777569378E+01  2.290074663E+02  3.030871183E-01  2.623756861E+02  1.250000000E+02  0.00000E+00  9.000E+00
      25     1     1     2     0     0 -1.798676111E+01 -2.262179589E+02 -7.082853437E+01  2.685884767E+02  1.250000000E+02  0.00000E+00  9.000E+00
      21     1     1     2   501   512 -9.788932677E+00 -2.789507377E+00  4.509435688E+02  4.510584294E+02  5.394796609E-06  0.00000E+00  9.000E+00
#rwgt            1           1   3.5800568869924540E-002           6       58462           0
</event>
<event>
      5   9999  3.79277E-02  7.38057E+00 -1.00000E+00  2.12355E-01
      21    -1     0     0   511   501  0.000000000E+00  0.000000000E+00  4.723025124E+02  4.723025124E+02  0.000000000E+00  0.00000E+00  9.000E+00
      21    -1     0     0   501   502  0.000000000E+00  0.000000000E+00 -1.840356069E+02  1.840356069E+02  0.000000000E+00  0.00000E+00  9.000E+00
      25     1     1     2     0     0  6.967977883E+01 -9.322603839E+01  3.987399785E+02  4.337798247E+02  1.250000000E+02  0.00000E+00  9.000E+00
      25     1     1     2     0     0 -7.414007589E+01  9.910639297E+01 -1.181539915E+02  2.119060964E+02  1.250000000E+02  0.00000E+00  9.000E+00
      21     1     1     2   511   502  4.460297054E+00 -5.880354577E+00  7.680918428E+00  1.065219825E+01  8.429369702E-08  0.00000E+00  9.000E+00
#rwgt            1           1   2.3639577982305246E-002           6       58737           0
</event>
<event>
      5   9999  3.79277E-02  1.31609E+01 -1.00000E+00  1.82908E-01
      21    -1     0     0   502   501  0.000000000E+00  0.000000000E+00  2.598455952E+02  2.598455952E+02  0.000000000E+00  0.00000E+00  9.000E+00
      21    -1     0     0   512   502  0.000000000E+00  0.000000000E+00 -5.625663868E+02  5.625663868E+02  0.000000000E+00  0.00000E+00  9.000E+00
      25     1     1     2     0     0  1.037047058E+02 -3.177753795E+02 -2.707069013E+02  4.479320085E+02  1.250000000E+02  0.00000E+00  9.000E+00
      25     1     1     2     0     0 -1.166918015E+02  3.156434953E+02 -2.576803199E+01  3.599121895E+02  1.250000000E+02  0.00000E+00  9.000E+00
      21     1     1     2   512   501  1.298709570E+01  2.131884166E+00 -6.245858309E+00  1.456778401E+01  1.192092896E-07  0.00000E+00  9.000E+00
#rwgt            1           1   3.5213857834638804E-002           6       59035           0
</event>
<event>
      5   9999  3.79277E-02  1.02807E+02 -1.00000E+00  1.23289E-01
      21    -1     0     0   502   501  0.000000000E+00  0.000000000E+00  7.212320734E+02  7.212320734E+02  0.000000000E+00  0.00000E+00  9.000E+00
      21    -1     0     0   511   502  0.000000000E+00  0.000000000E+00 -5.767761873E+02  5.767761873E+02  0.000000000E+00  0.00000E+00  9.000E+00
      25     1     1     2     0     0  2.442922632E+01 -2.219709252E+02  4.229384779E+02  4.943377740E+02  1.250000000E+02  0.00000E+00  9.000E+00
      25     1     1     2     0     0 -1.243922234E+02  1.979548669E+02  1.886350539E+02  3.253732290E+02  1.250000000E+02  0.00000E+00  9.000E+00
      21     1     1     2   511   501  9.996299711E+01  2.401605838E+01 -4.671176457E+02  4.782972577E+02  5.394796609E-06  0.00000E+00  9.000E+00
#rwgt            1           1   4.1888162341308599E-002           6       59330           0
</event>
<event>
      5   9999  3.79277E-02  7.29014E+01 -1.00000E+00  1.30334E-01
      21    -1     0     0   502   512  0.000000000E+00  0.000000000E+00  1.335801801E+03  1.335801801E+03  0.000000000E+00  0.00000E+00  9.000E+00
      21    -1     0     0   501   502  0.000000000E+00  0.000000000E+00 -7.539194593E+01  7.539194593E+01  0.000000000E+00  0.00000E+00  9.000E+00
      25     1     1     2     0     0  8.774373809E+01 -1.432918214E+02  6.402572530E+02  6.736362963E+02  1.250000000E+02  0.00000E+00  9.000E+00
      25     1     1     2     0     0 -1.901035895E+01  1.675888071E+02  1.409985519E+02  2.528892913E+02  1.250000000E+02  0.00000E+00  9.000E+00
      21     1     1     2   501   512 -6.873337913E+01 -2.429698572E+01  4.791540506E+02  4.846681598E+02  0.000000000E+00  0.00000E+00  9.000E+00
#rwgt            1           1   2.8563428051436059E-002           6       59420           0
</event>
<event>
      5   9999  3.79277E-02  9.59996E+01 -1.00000E+00  1.24631E-01
       2    -1     0     0   502     0  0.000000000E+00  0.000000000E+00  2.824499885E+03  2.824499885E+03  0.000000000E+00  0.00000E+00  9.000E+00
      21    -1     0     0   501   502  0.000000000E+00  0.000000000E+00 -6.021492714E+01  6.021492714E+01  0.000000000E+00  0.00000E+00  9.000E+00
      25     1     1     2     0     0  8.277019821E+01  5.400413386E+01  4.901758603E+02  5.154267418E+02  1.250000000E+02  0.00000E+00  9.000E+00
      25     1     1     2     0     0 -9.421406197E+01  4.131090200E+01  9.426945833E+01  1.873355569E+02  1.250000000E+02  0.00000E+00  9.000E+00
       2     1     1     2   501     0  1.144386376E+01 -9.531503585E+01  2.179839639E+03  2.181952513E+03  0.000000000E+00  0.00000E+00  9.000E+00
#rwgt            1           1   5.3228276150806129E-002           6       59525           0
</event>
<event>
      5   9999  3.79277E-02  5.35631E+01 -1.00000E+00  1.37391E-01
      21    -1     0     0   502   501  0.000000000E+00  0.000000000E+00  2.782345588E+02  2.782345588E+02  0.000000000E+00  0.00000E+00  9.000E+00
      21    -1     0     0   501   511  0.000000000E+00  0.000000000E+00 -2.657023421E+02  2.657023421E+02  0.000000000E+00  0.00000E+00  9.000E+00
      25     1     1     2     0     0 -1.668644989E+02  4.815654587E+01  1.271892344E+02  2.489275301E+02  1.250000000E+02  0.00000E+00  9.000E+00
      25     1     1     2     0     0  1.759974743E+02  4.622186934E+00 -7.580903205E+01  2.288416153E+02  1.250000000E+02  0.00000E+00  9.000E+00
      21     1     1     2   502   511 -9.132975354E+00 -5.277873280E+01 -3.884798565E+01  6.616775547E+01  4.768371582E-07  0.00000E+00  9.000E+00
#rwgt            1           1   3.6705928808487699E-002           6       59693           0
</event>
<event>
      5   9999  3.79277E-02  1.02349E+02 -1.00000E+00  1.23376E-01
       2    -1     0     0   502     0  0.000000000E+00  0.000000000E+00  3.139525917E+03  3.139525917E+03  0.000000000E+00  0.00000E+00  9.000E+00
      21    -1     0     0   501   502  0.000000000E+00  0.000000000E+00 -8.851196100E+01  8.851196100E+01  0.000000000E+00  0.00000E+00  9.000E+00
      25     1     1     2     0     0  1.121230255E+01 -1.264811296E+02  4.728578399E+02  5.053144849E+02  1.250000000E+02  0.00000E+00  9.000E+00
      25     1     1     2     0     0  4.498315047E+01  4.093953979E+01 -3.482945154E+00  1.390563219E+02  1.250000000E+02  0.00000E+00  9.000E+00
       2     1     1     2   501     0 -5.619545302E+01  8.554158982E+01  2.581639061E+03  2.583667071E+03  4.315837288E-05  0.00000E+00  9.000E+00
#rwgt            1           1   2.8373629923207574E-002           6       59888           0
</event>
<event>
      5   9999  3.79277E-02  1.68620E+01 -1.00000E+00  1.72726E-01
      21    -1     0     0   502   511  0.000000000E+00  0.000000000E+00  2.955419164E+02  2.955419164E+02  0.000000000E+00  0.00000E+00  9.000E+00
      21    -1     0     0   501   502  0.000000000E+00  0.000000000E+00 -2.663306075E+02  2.663306075E+02  0.000000000E+00  0.00000E+00  9.000E+00
      25     1     1     2     0     0  1.276905359E+02  1.061957489E+02 -3.930229649E+01  2.115468756E+02  1.250000000E+02  0.00000E+00  9.000E+00
      25     1     1     2     0     0 -1.172282432E+02 -9.297197399E+01 -7.272284948E+01  2.080861884E+02  1.250000000E+02  0.00000E+00  9.000E+00
      21     1     1     2   501   511 -1.046229269E+01 -1.322377491E+01  1.412364548E+02  1.422394600E+02  1.907348633E-06  0.00000E+00  9.000E+00
#rwgt            1           1   2.8480264709263303E-002           6       60077           0
</event>
<event>
      5   9999  3.79277E-02  1.94390E+01 -1.00000E+00  1.67395E-01
      -2    -1     0     0     0   501  0.000000000E+00  0.000000000E+00  1.112919914E+03  1.112919914E+03  0.000000000E+00  0.00000E+00  9.000E+00
      21    -1     0     0   501   502  0.000000000E+00  0.000000000E+00 -6.446300072E+01  6.446300072E+01  0.000000000E+00  0.00000E+00  9.000E+00
      25     1     1     2     0     0  1.196969601E+02  1.362143296E+02  2.619125046E+02  3.422058824E+02  1.250000000E+02  0.00000E+00  9.000E+00
      25     1     1     2     0     0 -1.058425251E+02 -1.498498663E+02  4.893888047E+02  5.373862900E+02  1.250000000E+02  0.00000E+00  9.000E+00
      -2     1     1     2     0   502 -1.385443500E+01  1.363553678E+01  2.971556040E+02  2.977907423E+02  3.814697266E-06  0.00000E+00  9.000E+00
#rwgt            1           1   9.7966214963023393E-002           6       60441           0
</event>
<event>
      5   9999  3.79277E-02  1.89545E+02 -1.00000E+00  1.12504E-01
      21    -1     0     0   502   501  0.000000000E+00  0.000000000E+00  5.295693440E+02  5.295693440E+02  0.000000000E+00  0.00000E+00  9.000E+00
      -1    -1     0     0     0   502  0.000000000E+00  0.000000000E+00 -5.977849713E+02  5.977849713E+02  0.000000000E+00  0.00000E+00  9.000E+00
      25     1     1     2     0     0 -2.743564037E+02 -8.214084877E+00 -2.477859949E+01  3.026183842E+02  1.250000000E+02  0.00000E+00  9.000E+00
      25     1     1     2     0     0  3.358651112E+02  1.875017664E+02  2.499398093E+02  4.754547230E+02  1.250000000E+02  0.00000E+00  9.000E+00
      -1     1     1     2     0   501 -6.150870747E+01 -1.792876815E+02 -2.933768371E+02  3.492812082E+02  5.394796609E-06  0.00000E+00  9.000E+00
#rwgt            1           1   4.2135418197010589E-002           6       60781           0
</event>
<event>
      5   9999  3.79277E-02  3.50101E+01 -1.00000E+00  1.48523E-01
      21    -1     0     0   502   511  0.000000000E+00  0.000000000E+00  2.188101630E+03  2.188101630E+03  0.000000000E+00  0.00000E+00  9.000E+00
      21    -1     0     0   501   502  0.000000000E+00  0.000000000E+00 -6.155034853E+01  6.155034853E+01  0.000000000E+00  0.00000E+00  9.000E+00
      25     1     1     2     0     0 -8.250215508E+01  6.569433908E+01  4.255536731E+02  4.558983225E+02  1.250000000E+02  0.00000E+00  9.000E+00
      25     1     1     2     0     0  6.001421870E+01 -9.252711339E+01  1.042267906E+02  1.965990769E+02  1.250000000E+02  0.00000E+00  9.000E+00
      21     1     1     2   501   511  2.248793637E+01  2.683277431E+01  1.596770818E+03  1.597154579E+03  2.157918644E-05  0.00000E+00  9.000E+00
#rwgt            1           1   3.2851970606269938E-002           6       60864           0
</event>
<event>
      5   9999  3.79277E-02  2.31513E+01 -1.00000E+00  1.61291E-01
      21    -1     0     0   502   512  0.000000000E+00  0.000000000E+00  2.357499661E+02  2.357499661E+02  0.000000000E+00  0.00000E+00  9.000E+00
      21    -1     0     0   501   502  0.000000000E+00  0.000000000E+00 -2.473567286E+02  2.473567286E+02  0.000000000E+00  0.00000E+00  9.000E+00
      25     1     1     2     0     0 -1.676740625E+02 -1.070974702E+02  2.575299010E+00  2.349810450E+02  1.250000000E+02  0.00000E+00  9.000E+00
      25     1     1     2     0     0  1.645917749E+02  8.415229880E+01 -2.059970658E+01  2.241013379E+02  1.250000000E+02  0.00000E+00  9.000E+00
      21     1     1     2   501   512  3.082287607E+00  2.294517136E+01  6.417645045E+00  2.402431172E+01  3.264680848E-07  0.00000E+00  9.000E+00
#rwgt            1           1   3.1418413664008438E-002           6       60982           0
</event>
<event>
      5   9999  3.79277E-02  8.92501E+01 -1.00000E+00  1.26091E-01
      21    -1     0     0   502   501  0.000000000E+00  0.000000000E+00  4.268309136E+02  4.268309136E+02  0.000000000E+00  0.00000E+00  9.000E+00
      21    -1     0     0   501   511  0.000000000E+00  0.000000000E+00 -2.692120939E+02  2.692120939E+02  0.000000000E+00  0.00000E+00  9.000E+00
      25     1     1     2     0     0  1.886262932E+02 -1.316452862E+02  5.699289932E+01  2.679245238E+02  1.250000000E+02  0.00000E+00  9.000E+00
      25     1     1     2     0     0 -1.149778393E+02  8.123212886E+01  2.132208831E+02  2.844410436E+02  1.250000000E+02  0.00000E+00  9.000E+00
      21     1     1     2   502   511 -7.364845388E+01  5.041315733E+01 -1.125949627E+02  1.436774402E+02  2.697398305E-06  0.00000E+00  9.000E+00
#rwgt            1           1   3.2271491147934504E-002           6       61214           0
</event>
<event>
      5   9999  3.79277E-02  6.96214E+01 -1.00000E+00  1.31340E-01
      21    -1     0     0   502   501  0.000000000E+00  0.000000000E+00  6.490768220E+02  6.490768220E+02  0.000000000E+00  0.00000E+00  9.000E+00
      21    -1     0     0   501   512  0.000000000E+00  0.000000000E+00 -9.448049339E+01  9.448049339E+01  0.000000000E+00  0.00000E+00  9.000E+00
      25     1     1     2     0     0 -1.027014126E+02 -8.844848231E+01  1.338127408E+02  2.278191471E+02  1.250000000E+02  0.00000E+00  9.000E+00
      25     1     1     2     0     0  1.411388963E+02  3.039939887E+01  3.997269879E+02  4.430022306E+02  1.250000000E+02  0.00000E+00  9.000E+00
      21     1     1     2   502   512 -3.843748365E+01  5.804908343E+01  2.105660002E+01  7.273593775E+01  9.233911863E-07  0.00000E+00  9.000E+00
#rwgt            2          11   2.3540058537062209E-003           6       61287           0
</event>
<event>
      5   9999  3.79277E-02  3.25514E+01 -1.00000E+00  1.50618E-01
      21    -1     0     0   502   511  0.000000000E+00  0.000000000E+00  3.334168137E+01  3.334168137E+01  0.000000000E+00  0.00000E+00  9.000E+00
      21    -1     0     0   501   502  0.000000000E+00  0.000000000E+00 -1.630193667E+03  1.630193667E+03  0.000000000E+00  0.00000E+00  9.000E+00
      25     1     1     2     0     0  1.431092322E+02 -6.811670632E+01 -4.700831673E+02  5.115890169E+02  1.250000000E+02  0.00000E+00  9.000E+00
      25     1     1     2     0     0 -1.308678313E+02  3.795473428E+01 -1.075048153E+03  1.090834764E+03  1.250000000E+02  0.00000E+00  9.000E+00
      21     1     1     2   501   511 -1.224140088E+01  3.016197204E+01 -5.172066510E+01  6.111156724E+01  0.000000000E+00  0.00000E+00  9.000E+00
#rwgt            1           1   4.2244173927149659E-002           6       61322           0
</event>
<event>
      5   9999  3.79277E-02  2.36817E+01 -1.00000E+00  1.60533E-01
      21    -1     0     0   502   501  0.000000000E+00  0.000000000E+00  3.021496446E+02  3.021496446E+02  0.000000000E+00  0.00000E+00  9.000E+00
       2    -1     0     0   501     0  0.000000000E+00  0.000000000E+00 -8.753057517E+02  8.753057517E+02  0.000000000E+00  0.00000E+00  9.000E+00
      25     1     1     2     0     0  1.096447933E+01 -1.765915853E+02  1.416373281E+02  2.588260816E+02  1.250000000E+02  0.00000E+00  9.000E+00
      25     1     1     2     0     0  1.036674682E+01  1.868776652E+02 -2.278821444E+01  2.262189955E+02  1.250000000E+02  0.00000E+00  9.000E+00
       2     1     1     2   502     0 -2.133122615E+01 -1.028607988E+01 -6.920052208E+02  6.924103193E+02  1.321449896E-05  0.00000E+00  9.000E+00
#rwgt            1           1   2.4797602883476880E-002           6       61457           0
</event>
<event>
      5   9999  3.79277E-02  1.11102E+02 -1.00000E+00  1.21806E-01
      21    -1     0     0   502   501  0.000000000E+00  0.000000000E+00  7.420080504E+02  7.420080504E+02  0.000000000E+00  0.00000E+00  9.000E+00
       2    -1     0     0   501     0  0.000000000E+00  0.000000000E+00 -7.014598650E+02  7.014598650E+02  0.000000000E+00  0.00000E+00  9.000E+00
      25     1     1     2     0     0  2.202807198E+02 -1.048589274E+01  4.408395861E+02  5.085254076E+02  1.250000000E+02  0.00000E+00  9.000E+00
      25     1     1     2     0     0 -1.527525049E+02 -7.773826450E+01  2.195088287E+02  3.052633148E+02  1.250000000E+02  0.00000E+00  9.000E+00
       2     1     1     2   502     0 -6.752821493E+01  8.822415724E+01 -6.198002294E+02  6.296791930E+02  7.629394531E-06  0.00000E+00  9.000E+00
#rwgt            1           1   2.6731239158160367E-002           6       61608           0
</event>
<event>
      5   9999  3.79277E-02  3.44522E+01 -1.00000E+00  1.48980E-01
      21    -1     0     0   502   501  0.000000000E+00  0.000000000E+00  6.317922246E+02  6.317922246E+02  0.000000000E+00  0.00000E+00  9.000E+00
      21    -1     0     0   501   511  0.000000000E+00  0.000000000E+00 -1.235944814E+02  1.235944814E+02  0.000000000E+00  0.00000E+00  9.000E+00
      25     1     1     2     0     0 -1.671155610E+00 -2.236491549E+02  2.727253047E+02  3.742002526E+02  1.250000000E+02  0.00000E+00  9.000E+00
      25     1     1     2     0     0 -3.196424447E+01  2.311064479E+02  2.158516251E+02  3.415389103E+02  1.250000000E+02  0.00000E+00  9.000E+00
      21     1     1     2   502   511  3.363540008E+01 -7.457293034E+00  1.962081333E+01  3.964754309E+01  3.371747881E-07  0.00000E+00  9.000E+00
#rwgt            1           1   4.4390280050953884E-002           6       61715           0
</event>
<event>
      5   9999  3.79277E-02  3.41955E+01 -1.00000E+00  1.49193E-01
      21    -1     0     0   502   501  0.000000000E+00  0.000000000E+00  9.690201855E+02  9.690201855E+02  0.000000000E+00  0.00000E+00  9.000E+00
      21    -1     0     0   512   502  0.000000000E+00  0.000000000E+00 -1.417229340E+02  1.417229340E+02  0.000000000E+00  0.00000E+00  9.000E+00
      25     1     1     2     0     0 -8.793195821E+01 -2.248493422E+02  4.558671682E+02  5.307816227E+02  1.250000000E+02  0.00000E+00  9.000E+00
      25     1     1     2     0     0  1.041202371E+02  2.549703285E+02  4.218315486E+02  5.190546672E+02  1.250000000E+02  0.00000E+00  9.000E+00
      21     1     1     2   512   501 -1.618827891E+01 -3.012098624E+01 -5.040146523E+01  6.090682953E+01  9.536743164E-07  0.00000E+00  9.000E+00
#rwgt            1           1   3.8773339194038643E-002           6       61864           0
</event>
<event>
      5   9999  3.79277E-02  2.23909E+01 -1.00000E+00  1.62422E-01
      21    -1     0     0   511   501  0.000000000E+00  0.000000000E+00  1.807038405E+02  1.807038405E+02  0.000000000E+00  0.00000E+00  9.000E+00
      21    -1     0     0   501   502  0.000000000E+00  0.000000000E+00 -2.727153872E+02  2.727153872E+02  0.000000000E+00  0.00000E+00  9.000E+00
      25     1     1     2     0     0  1.160202530E+02 -4.624996609E+01 -1.702693002E+02  2.453902872E+02  1.250000000E+02  0.00000E+00  9.000E+00
      25     1     1     2     0     0 -1.077824081E+02  2.542951787E+01  5.519304214E+01  1.758834266E+02  1.250000000E+02  0.00000E+00  9.000E+00
      21     1     1     2   511   502 -8.237844924E+00  2.082044822E+01  2.306471136E+01  3.214551389E+01  5.840038640E-07  0.00000E+00  9.000E+00
#rwgt            1           1   4.4308924029250803E-002           6       62004           0
</event>
<event>
      5   9999  3.79277E-02  1.53579E+02 -1.00000E+00  1.15989E-01
      21    -1     0     0   502   501  0.000000000E+00  0.000000000E+00  3.519418573E+02  3.519418573E+02  0.000000000E+00  0.00000E+00  9.000E+00
      21    -1     0     0   512   502  0.000000000E+00  0.000000000E+00 -2.447228931E+02  2.447228931E+02  0.000000000E+00  0.00000E+00  9.000E+00
      25     1     1     2     0     0  1.994633093E+02  2.371519996E+01  1.480467256E+02  2.790893323E+02  1.250000000E+02  0.00000E+00  9.000E+00
      25     1     1     2     0     0 -5.387816385E+01 -7.261906380E+01  1.303009395E+01  1.548262520E+02  1.250000000E+02  0.00000E+00  9.000E+00
      21     1     1     2   512   501 -1.455851455E+02  4.890386384E+01 -5.385785526E+01  1.627491661E+02  3.015782986E-06  0.00000E+00  9.000E+00
#rwgt            1           1   3.6382169525806168E-002           6       62165           0
</event>
<event>
      5   9999  3.79277E-02  3.66795E+01 -1.00000E+00  1.47214E-01
      21    -1     0     0   502   511  0.000000000E+00  0.000000000E+00  1.474003838E+02  1.474003838E+02  0.000000000E+00  0.00000E+00  9.000E+00
      21    -1     0     0   501   502  0.000000000E+00  0.000000000E+00 -5.949652715E+02  5.949652715E+02  0.000000000E+00  0.00000E+00  9.000E+00
      25     1     1     2     0     0  2.122738544E+00 -1.446514449E+02 -4.565927397E+02  4.950055317E+02  1.250000000E+02  0.00000E+00  9.000E+00
      25     1     1     2     0     0 -3.765353458E+01  1.355439565E+02 -3.355633177E+01  1.911569518E+02  1.250000000E+02  0.00000E+00  9.000E+00
      21     1     1     2   501   511  3.553079603E+01  9.107488382E+00  4.258418377E+01  5.620317179E+01  1.348699152E-06  0.00000E+00  9.000E+00
#rwgt            1           1   4.1382289566155930E-002           6       62226           0
</event>
<event>
      5   9999  3.79277E-02  5.80091E+01 -1.00000E+00  1.35491E-01
      21    -1     0     0   512   501  0.000000000E+00  0.000000000E+00  1.749991920E+02  1.749991920E+02  0.000000000E+00  0.00000E+00  9.000E+00
      21    -1     0     0   501   502  0.000000000E+00  0.000000000E+00 -4.146735983E+02  4.146735983E+02  0.000000000E+00  0.00000E+00  9.000E+00
      25     1     1     2     0     0 -5.819830803E+01  9.972581614E+01 -2.507850192E+02  3.030683212E+02  1.250000000E+02  0.00000E+00  9.000E+00
      25     1     1     2     0     0  1.154690005E+02 -1.089519422E+02 -4.377166365E+01  2.067476102E+02  1.250000000E+02  0.00000E+00  9.000E+00
      21     1     1     2   512   502 -5.727069248E+01  9.226126058E+00  5.488227665E+01  7.985685888E+01  9.536743164E-07  0.00000E+00  9.000E+00
#rwgt            1           1   4.6066675602512153E-002           6       62403           0
</event>
<event>
      5   9999  3.79277E-02  2.79895E+01 -1.00000E+00  1.55162E-01
      21    -1     0     0   502   511  0.000000000E+00  0.000000000E+00  6.488929057E+02  6.488929057E+02  0.000000000E+00  0.00000E+00  9.000E+00
      21    -1     0     0   501   502  0.000000000E+00  0.000000000E+00 -3.961754946E+01  3.961754946E+01  0.000000000E+00  0.00000E+00  9.000E+00
      25     1     1     2     0     0 -1.807153323E+01 -4.131076883E+00  1.239398388E+02  1.770020614E+02  1.250000000E+02  0.00000E+00  9.000E+00
      25     1     1     2     0     0  3.096145668E+01  2.897588547E+01  3.704947167E+02  3.933059227E+02  1.250000000E+02  0.00000E+00  9.000E+00
      21     1     1     2   501   511 -1.288992345E+01 -2.484480859E+01  1.148408008E+02  1.182024710E+02  1.348699152E-06  0.00000E+00  9.000E+00
#rwgt            1           1   4.9606294926292253E-002           6       62479           0
</event>
<event>
      5   9999  3.79277E-02  3.75873E+01 -1.00000E+00  1.46536E-01
      21    -1     0     0   502   512  0.000000000E+00  0.000000000E+00  5.080240719E+02  5.080240719E+02  0.000000000E+00  0.00000E+00  9.000E+00
      21    -1     0     0   501   502  0.000000000E+00  0.000000000E+00 -4.470526695E+02  4.470526695E+02  0.000000000E+00  0.00000E+00  9.000E+00
      25     1     1     2     0     0 -1.900461654E+02  1.525173211E+01 -2.634271304E+02  3.483805582E+02  1.250000000E+02  0.00000E+00  9.000E+00
      25     1     1     2     0     0  1.939366098E+02  2.213372841E+01 -4.438616979E+01  2.360009377E+02  1.250000000E+02  0.00000E+00  9.000E+00
      21     1     1     2   501   512 -3.890444364E+00 -3.738546052E+01  3.687847025E+02  3.706952455E+02  5.394796609E-06  0.00000E+00  9.000E+00
#rwgt            1           1   4.1977942388847604E-002           6       62624           0
</event>
<event>
      5   9999  3.79277E-02  3.74694E+01 -1.00000E+00  1.46623E-01
      21    -1     0     0   502   501  0.000000000E+00  0.000000000E+00  4.355554857E+02  4.355554857E+02  0.000000000E+00  0.00000E+00  9.000E+00
      21    -1     0     0   501   511  0.000000000E+00  0.000000000E+00 -3.714717735E+02  3.714717735E+02  0.000000000E+00  0.00000E+00  9.000E+00
      25     1     1     2     0     0  1.029114337E+02  1.953454762E+02  3.076351427E+02  3.987668483E+02  1.250000000E+02  0.00000E+00  9.000E+00
      25     1     1     2     0     0 -1.173038854E+02 -2.299404754E+02 -1.945087587E+02  3.465421778E+02  1.250000000E+02  0.00000E+00  9.000E+00
      21     1     1     2   502   511  1.439245170E+01  3.459499926E+01 -4.904267179E+01  6.171823309E+01  6.743495762E-07  0.00000E+00  9.000E+00
#rwgt            1           1   7.6557964718439661E-002           6       62754           0
</event>
<event>
      5   9999  3.79277E-02  8.05137E+01 -1.00000E+00  1.28215E-01
      21    -1     0     0   512   501  0.000000000E+00  0.000000000E+00  2.639052771E+01  2.639052771E+01  0.000000000E+00  0.00000E+00  9.000E+00
      21    -1     0     0   501   502  0.000000000E+00  0.000000000E+00 -2.758621699E+03  2.758621699E+03  0.000000000E+00  0.00000E+00  9.000E+00
      25     1     1     2     0     0 -7.060866602E+01 -1.440690798E+02 -1.785586499E+03  1.797132613E+03  1.250000000E+02  0.00000E+00  9.000E+00
      25     1     1     2     0     0 -9.888397534E+00  1.424334753E+02 -7.807350144E+02  8.034657665E+02  1.250000000E+02  0.00000E+00  9.000E+00
      21     1     1     2   512   502  8.049706355E+01  1.635604501E+00 -1.659096583E+02  1.844138475E+02  5.722045898E-06  0.00000E+00  9.000E+00
#rwgt            1           1   7.7062419512350776E-003           6       63010           0
</event>
<event>
      5   9999  3.79277E-02  4.14018E+01 -1.00000E+00  1.43918E-01
      21    -1     0     0   502   511  0.000000000E+00  0.000000000E+00  2.196216770E+02  2.196216770E+02  0.000000000E+00  0.00000E+00  9.000E+00
      21    -1     0     0   501   502  0.000000000E+00  0.000000000E+00 -3.667869874E+02  3.667869874E+02  0.000000000E+00  0.00000E+00  9.000E+00
      25     1     1     2     0     0 -1.361106763E+01 -1.577297884E+02  1.012282582E+02  2.256902913E+02  1.250000000E+02  0.00000E+00  9.000E+00
      25     1     1     2     0     0 -2.018104644E+01  1.338089584E+02 -2.591371878E+02  3.179452691E+02  1.250000000E+02  0.00000E+00  9.000E+00
      21     1     1     2   501   511  3.379211407E+01  2.392082999E+01  1.074361923E+01  4.277310411E+01  3.769728732E-07  0.00000E+00  9.000E+00
#rwgt            1           1   3.8596429814339500E-002           6       63106           0
</event>
<event>
      5   9999  3.79277E-02  1.16412E+01 -1.00000E+00  1.88425E-01
      21    -1     0     0   512   501  0.000000000E+00  0.000000000E+00  8.800857493E+02  8.800857493E+02  0.000000000E+00  0.00000E+00  9.000E+00
      21    -1     0     0   501   502  0.000000000E+00  0.000000000E+00 -1.020170199E+02  1.020170199E+02  0.000000000E+00  0.00000E+00  9.000E+00
      25     1     1     2     0     0  6.496059135E+01 -9.307066937E+01  9.122295165E+00  1.690864992E+02  1.250000000E+02  0.00000E+00  9.000E+00
      25     1     1     2     0     0 -6.346292816E+01  8.152621553E+01  2.773494583E+02  3.212814795E+02  1.250000000E+02  0.00000E+00  9.000E+00
      21     1     1     2   512   502 -1.497663190E+00  1.154445385E+01  4.915969760E+02  4.917347905E+02  7.629394531E-06  0.00000E+00  9.000E+00
#rwgt            1           1   4.8333816469000868E-002           6       63301           0
</event>
<event>
      5   9999  3.79277E-02  9.69539E+01 -1.00000E+00  1.24435E-01
      21    -1     0     0   502   511  0.000000000E+00  0.000000000E+00  1.377159504E+02  1.377159504E+02  0.000000000E+00  0.00000E+00  9.000E+00
      21    -1     0     0   501   502  0.000000000E+00  0.000000000E+00 -4.786357050E+02  4.786357050E+02  0.000000000E+00  0.00000E+00  9.000E+00
      25     1     1     2     0     0 -1.640847819E+02 -9.758627791E+01 -2.339851039E+02  3.268347077E+02  1.250000000E+02  0.00000E+00  9.000E+00
      25     1     1     2     0     0  7.987555435E+01  4.953563051E+01 -1.121093965E+02  1.924250494E+02  1.250000000E+02  0.00000E+00  9.000E+00
      21     1     1     2   501   511  8.420922759E+01  4.805064740E+01  5.174745781E+00  9.709189833E+01  2.854807380E-06  0.00000E+00  9.000E+00
#rwgt            1           1   2.0880289020209913E-002           6       63597           0
</event>
<event>
      5   9999  3.79277E-02  1.81370E+02 -1.00000E+00  1.13216E-01
      21    -1     0     0   502   512  0.000000000E+00  0.000000000E+00  4.582124394E+02  4.582124394E+02  0.000000000E+00  0.00000E+00  9.000E+00
      21    -1     0     0   501   502  0.000000000E+00  0.000000000E+00 -3.005823840E+02  3.005823840E+02  0.000000000E+00  0.00000E+00  9.000E+00
      25     1     1     2     0     0 -2.609272650E+01  6.808897586E+01  2.396556573E+02  2.799585203E+02  1.250000000E+02  0.00000E+00  9.000E+00
      25     1     1     2     0     0  1.556667472E+02  5.881938761E+01 -1.777989390E+02  2.737322035E+02  1.250000000E+02  0.00000E+00  9.000E+00
      21     1     1     2   501   512 -1.295740207E+02 -1.269083635E+02  9.577333702E+01  2.051040996E+02  1.907348633E-06  0.00000E+00  9.000E+00
#rwgt            1           1   4.7020998591838684E-002           6       63635           0
</event>
<event>
      5   9999 -3.79277E-02  1.10218E+01 -1.00000E+00  1.90996E-01
      21    -1     0     0   502   501  0.000000000E+00  0.000000000E+00  3.774992065E+02  3.774992065E+02  0.000000000E+00  0.00000E+00  9.000E+00
      21    -1     0     0   511   502  0.000000000E+00  0.000000000E+00 -6.550684098E+02  6.550684098E+02  0.000000000E+00  0.00000E+00  9.000E+00
      25     1     1     2     0     0 -2.509770318E+02  1.221623162E+02  7.653283175E+01  3.152703226E+02  1.250000000E+02  0.00000E+00  9.000E+00
      25     1     1     2     0     0  2.506995618E+02 -1.331806728E+02  4.901467418E+01  3.140299351E+02  1.250000000E+02  0.00000E+00  9.000E+00
      21     1     1     2   511   501  2.774699646E-01  1.101835661E+01 -4.031167093E+02  4.032673586E+02  5.394796609E-06  0.00000E+00  9.000E+00
#rwgt            1           1 -0.10328401935645748                6       63673           0
</event>
<event>
      5   9999  3.79277E-02  6.51761E+01 -1.00000E+00  1.32811E-01
      21    -1     0     0   502   512  0.000000000E+00  0.000000000E+00  8.817305046E+01  8.817305046E+01  0.000000000E+00  0.00000E+00  9.000E+00
      21    -1     0     0   501   502  0.000000000E+00  0.000000000E+00 -5.366359104E+02  5.366359104E+02  0.000000000E+00  0.00000E+00  9.000E+00
      25     1     1     2     0     0  1.020040914E+02 -3.925186121E+01 -2.516011411E+02  3.014526123E+02  1.250000000E+02  0.00000E+00  9.000E+00
      25     1     1     2     0     0 -1.402758355E+02 -1.350415606E+01 -1.666883781E+02  2.515346649E+02  1.250000000E+02  0.00000E+00  9.000E+00
      21     1     1     2   501   512  3.827174405E+01  5.275601727E+01 -3.017334080E+01  7.182168367E+01  1.907348633E-06  0.00000E+00  9.000E+00
#rwgt            1           1   4.0309549329652417E-002           6       63935           0
</event>
<event>
      5   9999  3.79277E-02  9.86067E+01 -1.00000E+00  1.24103E-01
      21    -1     0     0   502   501  0.000000000E+00  0.000000000E+00  8.612994004E+01  8.612994004E+01  0.000000000E+00  0.00000E+00  9.000E+00
      21    -1     0     0   501   511  0.000000000E+00  0.000000000E+00 -1.055021373E+03  1.055021373E+03  0.000000000E+00  0.00000E+00  9.000E+00
      25     1     1     2     0     0 -9.272424648E+01  1.397821509E+02 -8.793807344E+01  2.269249664E+02  1.250000000E+02  0.00000E+00  9.000E+00
      25     1     1     2     0     0  4.319423843E+01 -5.451755869E+01 -4.525075805E+02  4.745798319E+02  1.250000000E+02  0.00000E+00  9.000E+00
      21     1     1     2   502   511  4.953000805E+01 -8.526459223E+01 -4.284457789E+02  4.396465146E+02  7.629394531E-06  0.00000E+00  9.000E+00
#rwgt            1           1   4.4516076229694640E-002           6       64120           0
</event>
<event>
      5   9999  3.79277E-02  4.11348E+01 -1.00000E+00  1.44091E-01
      21    -1     0     0   502   512  0.000000000E+00  0.000000000E+00  4.052464376E+02  4.052464376E+02  0.000000000E+00  0.00000E+00  9.000E+00
      21    -1     0     0   501   502  0.000000000E+00  0.000000000E+00 -1.551027106E+02  1.551027106E+02  0.000000000E+00  0.00000E+00  9.000E+00
      25     1     1     2     0     0 -1.334133381E+02 -1.575239970E+02  8.776731194E+01  2.567898546E+02  1.250000000E+02  0.00000E+00  9.000E+00
      25     1     1     2     0     0  9.963095767E+01  1.340543544E+02  1.066613170E+02  2.343043624E+02  1.250000000E+02  0.00000E+00  9.000E+00
      21     1     1     2   501   512  3.378238040E+01  2.346964254E+01  5.571509803E+01  6.925493119E+01  6.743495762E-07  0.00000E+00  9.000E+00
#rwgt            1           1   4.0190017063853632E-002           6       64193           0
</event>
<event>
      5   9999  3.79277E-02  1.49319E+02 -1.00000E+00  1.16472E-01
      21    -1     0     0   502   511  0.000000000E+00  0.000000000E+00  8.500444994E+01  8.500444994E+01  0.000000000E+00  0.00000E+00  9.000E+00
      21    -1     0     0   501   502  0.000000000E+00  0.000000000E+00 -3.424377808E+03  3.424377808E+03  0.000000000E+00  0.00000E+00  9.000E+00
      25     1     1     2     0     0 -2.250040820E+02  4.030676141E+01 -1.299724659E+03  1.325579368E+03  1.250000000E+02  0.00000E+00  9.000E+00
      25     1     1     2     0     0  3.275223871E+02  6.825678899E+01 -1.996756997E+03  2.028446057E+03  1.250000000E+02  0.00000E+00  9.000E+00
      21     1     1     2   501   511 -1.025183051E+02 -1.085635504E+02 -4.289170262E+01  1.553568328E+02  6.325959759E-06  0.00000E+00  9.000E+00
#rwgt            1           1   2.5422971630873020E-002           6       64269           0
</event>
<event>
      5   9999  3.79277E-02  4.39775E+01 -1.00000E+00  1.42332E-01
      21    -1     0     0   502   501  0.000000000E+00  0.000000000E+00  4.606771195E+02  4.606771195E+02  0.000000000E+00  0.00000E+00  9.000E+00
      21    -1     0     0   512   502  0.000000000E+00  0.000000000E+00 -1.870589212E+02  1.870589212E+02  0.000000000E+00  0.00000E+00  9.000E+00
      25     1     1     2     0     0 -1.075329863E+02 -1.102235182E+01  3.021782332E+02  3.444147500E+02  1.250000000E+02  0.00000E+00  9.000E+00
      25     1     1     2     0     0  9.037673109E+01  5.151537824E+01  8.359511298E+01  1.828522098E+02  1.250000000E+02  0.00000E+00  9.000E+00
      21     1     1     2   512   501  1.715625520E+01 -4.049302641E+01 -1.121551478E+02  1.204690809E+02  1.907348633E-06  0.00000E+00  9.000E+00
#rwgt            1           1   2.0504095393249988E-002           6       64424           0
</event>
<event>
      5   9999 -4.64138E-02  1.08132E+02 -1.00000E+00  1.22320E-01
      21    -1     0     0   502   511  0.000000000E+00  0.000000000E+00  2.620079863E+02  2.620079863E+02  0.000000000E+00  0.00000E+00  9.000E+00
      21    -1     0     0   501   502  0.000000000E+00  0.000000000E+00 -6.268920873E+02  6.268920873E+02  0.000000000E+00  0.00000E+00  9.000E+00
      25     1     1     2     0     0 -2.677671590E+02  1.249342176E+02 -6.919297620E+01  3.282079800E+02  1.250000000E+02  0.00000E+00  9.000E+00
      25     1     1     2     0     0  1.869550629E+02 -1.967815515E+02 -3.319483397E+02  4.466428941E+02  1.250000000E+02  0.00000E+00  9.000E+00
      21     1     1     2   501   511  8.081209616E+01  7.184733390E+01  3.625721490E+01  1.140491995E+02  8.259061849E-07  0.00000E+00  9.000E+00
#rwgt            1           1 -0.44828548865618789                6       64592           0
</event>
<event>
      5   9999  3.79277E-02  2.41418E+01 -1.00000E+00  1.59896E-01
      21    -1     0     0   502   501  0.000000000E+00  0.000000000E+00  1.387768426E+02  1.387768426E+02  0.000000000E+00  0.00000E+00  9.000E+00
      21    -1     0     0   501   512  0.000000000E+00  0.000000000E+00 -1.437364133E+03  1.437364133E+03  0.000000000E+00  0.00000E+00  9.000E+00
      25     1     1     2     0     0 -7.887358118E+01 -1.870191055E+02 -1.566428862E+02  2.852353089E+02  1.250000000E+02  0.00000E+00  9.000E+00
      25     1     1     2     0     0  5.487963576E+01  1.896871034E+02 -1.093378371E+02  2.580169262E+02  1.250000000E+02  0.00000E+00  9.000E+00
      21     1     1     2   502   512  2.399394542E+01 -2.667997877E+00 -1.032606567E+03  1.032888741E+03  2.157918644E-05  0.00000E+00  9.000E+00
#rwgt            1           1   4.8843654102159961E-002           6       64750           0
</event>
<event>
      5   9999 -3.79277E-02  3.08047E+01 -1.00000E+00  1.52246E-01
      21    -1     0     0   511   501  0.000000000E+00  0.000000000E+00  1.756361048E+02  1.756361048E+02  0.000000000E+00  0.00000E+00  9.000E+00
      21    -1     0     0   501   502  0.000000000E+00  0.000000000E+00 -5.663764738E+02  5.663764738E+02  0.000000000E+00  0.00000E+00  9.000E+00
      25     1     1     2     0     0 -2.207695673E+02  1.479753095E+01 -1.053747729E+01  2.543505596E+02  1.250000000E+02  0.00000E+00  9.000E+00
      25     1     1     2     0     0  2.120592127E+02 -4.434509241E+01 -3.822268234E+02  4.567909165E+02  1.250000000E+02  0.00000E+00  9.000E+00
      21     1     1     2   511   502  8.710354593E+00  2.954756146E+01  2.023931734E+00  3.087110243E+01  2.827296549E-07  0.00000E+00  9.000E+00
#rwgt            1           1 -0.15097411696266655                6       64970           0
</event>
<event>
      5   9999  3.79277E-02  1.80057E+02 -1.00000E+00  1.13334E-01
       3    -1     0     0   502     0  0.000000000E+00  0.000000000E+00  1.526311762E+03  1.526311762E+03  0.000000000E+00  0.00000E+00  9.000E+00
      21    -1     0     0   501   502  0.000000000E+00  0.000000000E+00 -1.404542864E+02  1.404542864E+02  0.000000000E+00  0.00000E+00  9.000E+00
      25     1     1     2     0     0  1.967756980E+02  1.640745087E+02  3.206097380E+02  4.290183257E+02  1.250000000E+02  0.00000E+00  9.000E+00
      25     1     1     2     0     0 -1.223653194E+02 -1.120960499E-01  1.881004116E+01  1.759320938E+02  1.250000000E+02  0.00000E+00  9.000E+00
       3     1     1     2   501     0 -7.441037853E+01 -1.639624126E+02  1.046437697E+03  1.061815629E+03  1.525878906E-05  0.00000E+00  9.000E+00
#rwgt            1           1   4.3390120758985441E-002           6       65150           0
</event>
<event>
      5   9999  3.79277E-02  2.77508E+01 -1.00000E+00  1.55428E-01
      21    -1     0     0   511   501  0.000000000E+00  0.000000000E+00  9.048280075E+02  9.048280075E+02  0.000000000E+00  0.00000E+00  9.000E+00
      21    -1     0     0   501   502  0.000000000E+00  0.000000000E+00 -1.047623531E+02  1.047623531E+02  0.000000000E+00  0.00000E+00  9.000E+00
      25     1     1     2     0     0  2.271535145E+02  5.374201701E+01  3.151242068E+02  4.116007644E+02  1.250000000E+02  0.00000E+00  9.000E+00
      25     1     1     2     0     0 -2.003783822E+02 -4.644830364E+01  2.035257388E+02  3.152089264E+02  1.250000000E+02  0.00000E+00  9.000E+00
      21     1     1     2   511   502 -2.677513238E+01 -7.293713378E+00  2.814157089E+02  2.827806698E+02  3.814697266E-06  0.00000E+00  9.000E+00
#rwgt            1           1   3.7053861518373095E-002           6       65250           0
</event>
<event>
      5   9999  3.79277E-02  4.47728E+01 -1.00000E+00  1.41868E-01
      21    -1     0     0   502   512  0.000000000E+00  0.000000000E+00  5.227221631E+02  5.227221631E+02  0.000000000E+00  0.00000E+00  9.000E+00
      21    -1     0     0   501   502  0.000000000E+00  0.000000000E+00 -1.500842172E+02  1.500842172E+02  0.000000000E+00  0.00000E+00  9.000E+00
      25     1     1     2     0     0  5.092049206E+01  9.430266919E+01  2.854046936E+02  3.294946571E+02  1.250000000E+02  0.00000E+00  9.000E+00
      25     1     1     2     0     0 -2.123292143E+01 -1.278176046E+02 -5.972489287E+01  1.896845798E+02  1.250000000E+02  0.00000E+00  9.000E+00
      21     1     1     2   501   512 -2.968757064E+01  3.351493537E+01  1.469581452E+02  1.536271434E+02  1.907348633E-06  0.00000E+00  9.000E+00
#rwgt            1           1   3.6489916201841874E-002           6       65434           0
</event>
<event>
      5   9999  3.79277E-02  3.58730E+02 -1.00000E+00  1.03129E-01
      21    -1     0     0   502   511  0.000000000E+00  0.000000000E+00  5.876390194E+02  5.876390194E+02  0.000000000E+00  0.00000E+00  9.000E+00
      21    -1     0     0   501   502  0.000000000E+00  0.000000000E+00 -8.766592183E+02  8.766592183E+02  0.000000000E+00  0.00000E+00  9.000E+00
      25     1     1     2     0     0 -2.675209925E+02 -6.257310899E+00 -6.030238027E+02  6.714680499E+02  1.250000000E+02  0.00000E+00  9.000E+00
      25     1     1     2     0     0 -3.172549074E+00 -2.291402695E+02  3.451558394E+02  4.327503688E+02  1.250000000E+02  0.00000E+00  9.000E+00
      21     1     1     2   501   511  2.706935416E+02  2.353975804E+02 -3.115223561E+01  3.600798190E+02  6.143617023E-06  0.00000E+00  9.000E+00
#rwgt            2          11   7.6420728568689237E-003           6       65549           0
</event>
<event>
      5   9999  3.79277E-02  1.42118E+01 -1.00000E+00  1.79621E-01
      21    -1     0     0   502   512  0.000000000E+00  0.000000000E+00  3.329132556E+02  3.329132556E+02  0.000000000E+00  0.00000E+00  9.000E+00
      21    -1     0     0   501   502  0.000000000E+00  0.000000000E+00 -1.574681950E+02  1.574681950E+02  0.000000000E+00  0.00000E+00  9.000E+00
      25     1     1     2     0     0 -1.435499319E+01 -8.330410594E+01  1.550855610E+02  2.163843135E+02  1.250000000E+02  0.00000E+00  9.000E+00
      25     1     1     2     0     0  2.772569691E+01  8.812081723E+01 -7.849400916E+01  1.741272586E+02  1.250000000E+02  0.00000E+00  9.000E+00
      21     1     1     2   501   512 -1.337070372E+01 -4.816711290E+00  9.885350883E+01  9.986987851E+01  1.907348633E-06  0.00000E+00  9.000E+00
#rwgt            1           1   2.6605566954394717E-002           6       65569           0
</event>
<event>
      5   9999  3.79277E-02  2.20786E+01 -1.00000E+00  1.62902E-01
      21    -1     0     0   502   511  0.000000000E+00  0.000000000E+00  2.235539627E+02  2.235539627E+02  0.000000000E+00  0.00000E+00  9.000E+00
      21    -1     0     0   501   502  0.000000000E+00  0.000000000E+00 -3.496593100E+02  3.496593100E+02  0.000000000E+00  0.00000E+00  9.000E+00
      25     1     1     2     0     0 -2.203703125E+02  6.120399667E+01 -1.392611813E+02  2.955125724E+02  1.250000000E+02  0.00000E+00  9.000E+00
      25     1     1     2     0     0  2.058714416E+02 -7.785479311E+01  2.374946682E+00  2.531305190E+02  1.250000000E+02  0.00000E+00  9.000E+00
      21     1     1     2   501   511  1.449887084E+01  1.665079644E+01  1.078088728E+01  2.457018129E+01  1.192092896E-07  0.00000E+00  9.000E+00
#rwgt            1           1  0.16127291394982884                6       65820           0
</event>
<event>
      5   9999  3.79277E-02  1.85122E+01 -1.00000E+00  1.69187E-01
      21    -1     0     0   502   501  0.000000000E+00  0.000000000E+00  8.697880205E+01  8.697880205E+01  0.000000000E+00  0.00000E+00  9.000E+00
      21    -1     0     0   512   502  0.000000000E+00  0.000000000E+00 -8.478966907E+02  8.478966907E+02  0.000000000E+00  0.00000E+00  9.000E+00
      25     1     1     2     0     0  1.483009247E+02  9.320518194E+01 -3.829235283E+02  4.392445773E+02  1.250000000E+02  0.00000E+00  9.000E+00
      25     1     1     2     0     0 -1.305759175E+02 -9.854626509E+01 -1.227078157E+02  2.396740383E+02  1.250000000E+02  0.00000E+00  9.000E+00
      21     1     1     2   512   501 -1.772500716E+01  5.341083153E+00 -2.552865447E+02  2.559568772E+02  0.000000000E+00  0.00000E+00  9.000E+00
#rwgt            1           1   4.9072978443641009E-002           6       66016           0
</event>
<event>
      5   9999  3.79277E-02  3.58077E+01 -1.00000E+00  1.47887E-01
      21    -1     0     0   502   501  0.000000000E+00  0.000000000E+00  2.436189286E+02  2.436189286E+02  0.000000000E+00  0.00000E+00  9.000E+00
      21    -1     0     0   501   511  0.000000000E+00  0.000000000E+00 -9.103837164E+02  9.103837164E+02  0.000000000E+00  0.00000E+00  9.000E+00
      25     1     1     2     0     0  1.702092874E+02 -6.800430419E+01  1.596730325E+01  2.224314314E+02  1.250000000E+02  0.00000E+00  9.000E+00
      25     1     1     2     0     0 -1.344379795E+02  6.639051111E+01  4.714148970E+01  2.008197957E+02  1.250000000E+02  0.00000E+00  9.000E+00
      21     1     1     2   502   511 -3.577130789E+01  1.613793076E+00 -7.298735808E+02  7.307514179E+02  1.525878906E-05  0.00000E+00  9.000E+00
#rwgt            1           1   3.6216132012374544E-002           6       66272           0
</event>
<event>
      5   9999  3.79277E-02  3.20397E+01 -1.00000E+00  1.51082E-01
      21    -1     0     0   502   512  0.000000000E+00  0.000000000E+00  2.010729235E+02  2.010729235E+02  0.000000000E+00  0.00000E+00  9.000E+00
      21    -1     0     0   501   502  0.000000000E+00  0.000000000E+00 -1.044834569E+03  1.044834569E+03  0.000000000E+00  0.00000E+00  9.000E+00
      25     1     1     2     0     0 -6.056431979E+01 -5.235199776E+01 -2.131181006E+02  2.597173335E+02  1.250000000E+02  0.00000E+00  9.000E+00
      25     1     1     2     0     0  7.637845017E+01  2.448699667E+01 -8.000813851E+02  8.137496565E+02  1.250000000E+02  0.00000E+00  9.000E+00
      21     1     1     2   501   512 -1.581413038E+01  2.786500109E+01  1.694378406E+02  1.724405023E+02  3.814697266E-06  0.00000E+00  9.000E+00
#rwgt            1           1   3.9781448736765000E-002           6       66585           0
</event>
<event>
      5   9999  3.79277E-02  3.42547E+01 -1.00000E+00  1.49144E-01
      21    -1     0     0   502   501  0.000000000E+00  0.000000000E+00  5.242113345E+02  5.242113345E+02  0.000000000E+00  0.00000E+00  9.000E+00
      21    -1     0     0   511   502  0.000000000E+00  0.000000000E+00 -1.151621406E+02  1.151621406E+02  0.000000000E+00  0.00000E+00  9.000E+00
      25     1     1     2     0     0  4.199698368E+01  5.884778995E+01  4.127999466E+02  4.373278003E+02  1.250000000E+02  0.00000E+00  9.000E+00
      25     1     1     2     0     0 -6.499837654E+01 -8.423120006E+01 -1.761679244E+01  1.650909912E+02  1.250000000E+02  0.00000E+00  9.000E+00
      21     1     1     2   511   501  2.300139286E+01  2.538341010E+01  1.386603971E+01  3.695468359E+01  4.460403188E-07  0.00000E+00  9.000E+00
#rwgt            1           1   1.4329529429293383E-002           6       66658           0
</event>
<event>
      5   9999  3.79277E-02  2.72435E+01 -1.00000E+00  1.56005E-01
      21    -1     0     0   502   501  0.000000000E+00  0.000000000E+00  1.152105230E+02  1.152105230E+02  0.000000000E+00  0.00000E+00  9.000E+00
      21    -1     0     0   501   512  0.000000000E+00  0.000000000E+00 -4.781387888E+02  4.781387888E+02  0.000000000E+00  0.00000E+00  9.000E+00
      25     1     1     2     0     0 -4.478110148E+01  1.237700966E+02 -1.861491665E+01  1.824716388E+02  1.250000000E+02  0.00000E+00  9.000E+00
      25     1     1     2     0     0  6.941631599E+01 -1.354024781E+02 -3.050656745E+02  3.631012555E+02  1.250000000E+02  0.00000E+00  9.000E+00
      21     1     1     2   502   512 -2.463521451E+01  1.163238153E+01 -3.924767463E+01  4.777641738E+01  4.768371582E-07  0.00000E+00  9.000E+00
#rwgt            1           1   2.0480865480700310E-002           6       66833           0
</event>
<event>
      5   9999  3.79277E-02  8.79730E+01 -1.00000E+00  1.26384E-01
      21    -1     0     0   502   501  0.000000000E+00  0.000000000E+00  4.456901618E+02  4.456901618E+02  0.000000000E+00  0.00000E+00  9.000E+00
      21    -1     0     0   501   511  0.000000000E+00  0.000000000E+00 -6.418439015E+02  6.418439015E+02  0.000000000E+00  0.00000E+00  9.000E+00
      25     1     1     2     0     0 -1.770042277E+02 -9.372756079E+00  3.386459491E+02  4.021497532E+02  1.250000000E+02  0.00000E+00  9.000E+00
      25     1     1     2     0     0  1.826865484E+02  9.716199965E+01 -1.367758688E+02  2.777543293E+02  1.250000000E+02  0.00000E+00  9.000E+00
      21     1     1     2   502   511 -5.682320693E+00 -8.778924357E+01 -3.980238199E+02  4.076299808E+02  5.394796609E-06  0.00000E+00  9.000E+00
#rwgt            1           1   4.2806164502599622E-002           6       66980           0
</event>
<event>
      5   9999  3.79277E-02  1.06484E+02 -1.00000E+00  1.22613E-01
      21    -1     0     0   502   512  0.000000000E+00  0.000000000E+00  4.701302904E+02  4.701302904E+02  0.000000000E+00  0.00000E+00  9.000E+00
      21    -1     0     0   501   502  0.000000000E+00  0.000000000E+00 -1.793797358E+02  1.793797358E+02  0.000000000E+00  0.00000E+00  9.000E+00
      25     1     1     2     0     0 -1.753127292E+01 -1.212294019E+02  7.419985107E+01  1.900908501E+02  1.250000000E+02  0.00000E+00  9.000E+00
      25     1     1     2     0     0  1.029555440E+02  1.848024252E+02  3.396763122E+01  2.480535836E+02  1.250000000E+02  0.00000E+00  9.000E+00
      21     1     1     2   501   512 -8.542427104E+01 -6.357302331E+01  1.825830723E+02  2.113655924E+02  3.814697266E-06  0.00000E+00  9.000E+00
#rwgt            1           1   3.2928357603519469E-002           6       67111           0
</event>
<event>
      5   9999  3.79277E-02  7.89148E+01 -1.00000E+00  1.28637E-01
      21    -1     0     0   502   501  0.000000000E+00  0.000000000E+00  6.392439619E+02  6.392439619E+02  0.000000000E+00  0.00000E+00  9.000E+00
      21    -1     0     0   511   502  0.000000000E+00  0.000000000E+00 -9.946616426E+01  9.946616426E+01  0.000000000E+00  0.00000E+00  9.000E+00
      25     1     1     2     0     0  7.362924430E+01 -9.450106656E+01  2.461361319E+02  3.009314085E+02  1.250000000E+02  0.00000E+00  9.000E+00
      25     1     1     2     0     0 -1.052730981E+02  1.667936161E+02  2.664924708E+02  3.543243888E+02  1.250000000E+02  0.00000E+00  9.000E+00
      21     1     1     2   511   501  3.164385378E+01 -7.229254956E+01  2.714919492E+01  8.345432876E+01  8.259061849E-07  0.00000E+00  9.000E+00
#rwgt            1           1   4.3739856601065351E-002           6       67215           0
</event>
<event>
      5   9999  3.79277E-02  4.56105E+01 -1.00000E+00  1.41391E-01
      21    -1     0     0   502   512  0.000000000E+00  0.000000000E+00  3.462065897E+02  3.462065897E+02  0.000000000E+00  0.00000E+00  9.000E+00
      21    -1     0     0   501   502  0.000000000E+00  0.000000000E+00 -3.182975873E+02  3.182975873E+02  0.000000000E+00  0.00000E+00  9.000E+00
      25     1     1     2     0     0  2.293190397E+01 -3.989924822E+01 -2.261914641E+02  2.624983822E+02  1.250000000E+02  0.00000E+00  9.000E+00
      25     1     1     2     0     0 -2.758615903E+01  8.527163666E+01  1.049446441E+01  1.541667343E+02  1.250000000E+02  0.00000E+00  9.000E+00
      21     1     1     2   501   512  4.654255061E+00 -4.537238844E+01  2.436060020E+02  2.478390605E+02  2.697398305E-06  0.00000E+00  9.000E+00
#rwgt            1           1   3.6541610843244247E-002           6       67340           0
</event>
<event>
      5   9999  3.79277E-02  4.92666E+01 -1.00000E+00  1.39443E-01
      21    -1     0     0   502   511  0.000000000E+00  0.000000000E+00  2.043900481E+02  2.043900481E+02  0.000000000E+00  0.00000E+00  9.000E+00
      21    -1     0     0   501   502  0.000000000E+00  0.000000000E+00 -3.004276857E+02  3.004276857E+02  0.000000000E+00  0.00000E+00  9.000E+00
      25     1     1     2     0     0  1.136813275E+02  2.298116283E+01 -2.022596658E+02  2.645478227E+02  1.250000000E+02  0.00000E+00  9.000E+00
      25     1     1     2     0     0 -7.426352866E+01 -5.253505353E+01  1.116603970E+02  1.907040844E+02  1.250000000E+02  0.00000E+00  9.000E+00
      21     1     1     2   501   511 -3.941779888E+01  2.955389071E+01 -5.438368907E+00  4.956582674E+01  7.300048300E-07  0.00000E+00  9.000E+00
#rwgt            1           1   3.6433940452100230E-002           6       67510           0
</event>
<event>
      5   9999  3.79277E-02  8.06986E+01 -1.00000E+00  1.28167E-01
      21    -1     0     0   502   501  0.000000000E+00  0.000000000E+00  1.083519504E+02  1.083519504E+02  0.000000000E+00  0.00000E+00  9.000E+00
      21    -1     0     0   512   502  0.000000000E+00  0.000000000E+00 -1.296752755E+03  1.296752755E+03  0.000000000E+00  0.00000E+00  9.000E+00
      25     1     1     2     0     0 -1.996236341E+02  2.151825513E+02 -5.706308775E+02  6.537566244E+02  1.250000000E+02  0.00000E+00  9.000E+00
      25     1     1     2     0     0  1.539198805E+02 -2.816914402E+02 -4.665668319E+02  5.799577620E+02  1.250000000E+02  0.00000E+00  9.000E+00
      21     1     1     2   512   501  4.570375356E+01  6.650888888E+01 -1.512030951E+02  1.713903187E+02  1.907348633E-06  0.00000E+00  9.000E+00
#rwgt            1           1  0.23367491517818523                6       67642           0
</event>
<event>
      5   9999  3.79277E-02  7.34287E+00 -1.00000E+00  2.12660E-01
      21    -1     0     0   502   501  0.000000000E+00  0.000000000E+00  6.718596185E+01  6.718596185E+01  0.000000000E+00  0.00000E+00  9.000E+00
      21    -1     0     0   501   511  0.000000000E+00  0.000000000E+00 -1.192713010E+03  1.192713010E+03  0.000000000E+00  0.00000E+00  9.000E+00
      25     1     1     2     0     0  1.895280655E+02  2.907908942E+01 -2.385650070E+02  3.306126792E+02  1.250000000E+02  0.00000E+00  9.000E+00
      25     1     1     2     0     0 -1.856667146E+02 -3.532470541E+01 -5.867389215E+02  6.289733903E+02  1.250000000E+02  0.00000E+00  9.000E+00
      21     1     1     2   502   511 -3.861350930E+00  6.245615992E+00 -3.002231192E+02  3.003129020E+02  5.394796609E-06  0.00000E+00  9.000E+00
#rwgt            1           1   3.8241272655783115E-002           6       67782           0
</event>
<event>
      5   9999  3.79277E-02  1.28787E+02 -1.00000E+00  1.19080E-01
      21    -1     0     0   502   501  0.000000000E+00  0.000000000E+00  1.389519427E+03  1.389519427E+03  0.000000000E+00  0.00000E+00  9.000E+00
      21    -1     0     0   512   502  0.000000000E+00  0.000000000E+00 -3.813888962E+02  3.813888962E+02  0.000000000E+00  0.00000E+00  9.000E+00
      25     1     1     2     0     0  1.820070961E+02 -2.625225692E+01  2.502338846E+02  3.347502965E+02  1.250000000E+02  0.00000E+00  9.000E+00
      25     1     1     2     0     0 -3.062804115E+02  6.004741410E+01  1.057707136E+03  1.109857093E+03  1.250000000E+02  0.00000E+00  9.000E+00
      21     1     1     2   512   501  1.242733154E+02 -3.379515718E+01 -2.998104895E+02  3.263009334E+02  5.394796609E-06  0.00000E+00  9.000E+00
#rwgt            1           1   2.8925662790186445E-002           6       68126           0
</event>
<event>
      5   9999  3.79277E-02  6.99396E+01 -1.00000E+00  1.31240E-01
      21    -1     0     0   502   511  0.000000000E+00  0.000000000E+00  2.273537211E+02  2.273537211E+02  0.000000000E+00  0.00000E+00  9.000E+00
      21    -1     0     0   501   502  0.000000000E+00  0.000000000E+00 -6.392654024E+02  6.392654024E+02  0.000000000E+00  0.00000E+00  9.000E+00
      25     1     1     2     0     0 -7.156541199E+01 -1.247217987E+02 -1.724442152E+02  2.569808215E+02  1.250000000E+02  0.00000E+00  9.000E+00
      25     1     1     2     0     0  1.390037451E+02  1.432586222E+02 -3.832007940E+02  4.497920881E+02  1.250000000E+02  0.00000E+00  9.000E+00
      21     1     1     2   501   511 -6.743833312E+01 -1.853682348E+01  1.437333278E+02  1.598462140E+02  1.907348633E-06  0.00000E+00  9.000E+00
#rwgt            1           1   4.1834660498479559E-002           6       68279           0
</event>
<event>
      5   9999  3.79277E-02  1.21165E+02 -1.00000E+00  1.20190E-01
      21    -1     0     0   512   501  0.000000000E+00  0.000000000E+00  8.701589413E+01  8.701589413E+01  0.000000000E+00  0.00000E+00  9.000E+00
      21    -1     0     0   501   502  0.000000000E+00  0.000000000E+00 -6.090186821E+02  6.090186821E+02  0.000000000E+00  0.00000E+00  9.000E+00
      25     1     1     2     0     0 -1.889656417E+01  2.713487364E+00 -8.087044751E+01  1.500982093E+02  1.250000000E+02  0.00000E+00  9.000E+00
      25     1     1     2     0     0  1.361892246E+02  2.767577059E+01 -3.404996339E+02  3.884307581E+02  1.250000000E+02  0.00000E+00  9.000E+00
      21     1     1     2   512   502 -1.172926604E+02 -3.038925795E+01 -1.006327066E+02  1.575056089E+02  2.697398305E-06  0.00000E+00  9.000E+00
#rwgt            1           1   1.8292143191821778E-002           6       68363           0
</event>
<event>
      5   9999  3.79277E-02  6.45863E+01 -1.00000E+00  1.33016E-01
       3    -1     0     0   502     0  0.000000000E+00  0.000000000E+00  2.335490661E+03  2.335490661E+03  0.000000000E+00  0.00000E+00  9.000E+00
      21    -1     0     0   501   502  0.000000000E+00  0.000000000E+00 -4.153576714E+02  4.153576714E+02  0.000000000E+00  0.00000E+00  9.000E+00
      25     1     1     2     0     0 -1.282642128E+02  4.784273385E+02 -6.959677148E+01  5.155706907E+02  1.250000000E+02  0.00000E+00  9.000E+00
      25     1     1     2     0     0  6.383503349E+01 -4.739247642E+02  3.779756861E+02  6.222300322E+02  1.250000000E+02  0.00000E+00  9.000E+00
       3     1     1     2   501     0  6.442917931E+01 -4.502574278E+00  1.611754075E+03  1.613047610E+03  0.000000000E+00  0.00000E+00  9.000E+00
#rwgt            1           1   6.4174394344683985E-002           6       68401           0
</event>
<event>
      5   9999  3.79277E-02  6.05267E+01 -1.00000E+00  1.34501E-01
      21    -1     0     0   502   501  0.000000000E+00  0.000000000E+00  3.040535942E+02  3.040535942E+02  0.000000000E+00  0.00000E+00  9.000E+00
      21    -1     0     0   511   502  0.000000000E+00  0.000000000E+00 -1.881936817E+03  1.881936817E+03  0.000000000E+00  0.00000E+00  9.000E+00
      25     1     1     2     0     0 -1.102330959E+01 -4.643748661E+01  2.592441836E+02  2.917370395E+02  1.250000000E+02  0.00000E+00  9.000E+00
      25     1     1     2     0     0  5.646614535E+01  8.641779749E+01 -2.066422060E+02  2.626451267E+02  1.250000000E+02  0.00000E+00  9.000E+00
      21     1     1     2   511   501 -4.544283576E+01 -3.998031088E+01 -1.630485201E+03  1.631608245E+03  0.000000000E+00  0.00000E+00  9.000E+00
#rwgt            1           1   2.9594810150630160E-002           6       68548           0
</event>
<event>
      5   9999  3.79277E-02  1.96922E+02 -1.00000E+00  1.11894E-01
      21    -1     0     0   502   501  0.000000000E+00  0.000000000E+00  3.083142631E+02  3.083142631E+02  0.000000000E+00  0.00000E+00  9.000E+00
       3    -1     0     0   501     0  0.000000000E+00  0.000000000E+00 -1.290765862E+03  1.290765862E+03  0.000000000E+00  0.00000E+00  9.000E+00
      25     1     1     2     0     0 -1.814766867E+02  1.520818957E+02 -2.427956040E+02  3.614379562E+02  1.250000000E+02  0.00000E+00  9.000E+00
      25     1     1     2     0     0  2.821173061E+02  1.718067620E+01  1.377879178E+02  3.383723693E+02  1.250000000E+02  0.00000E+00  9.000E+00
       3     1     1     2   502     0 -1.006406193E+02 -1.692625719E+02 -8.774439128E+02  8.992697997E+02  1.525878906E-05  0.00000E+00  9.000E+00
#rwgt            1           1   3.8868776790024852E-002           6       68642           0
</event>
<event>
      5   9999 -3.79277E-02  3.38090E+01 -1.00000E+00  1.49520E-01
      21    -1     0     0   502   501  0.000000000E+00  0.000000000E+00  5.597096603E+02  5.597096603E+02  0.000000000E+00  0.00000E+00  9.000E+00
       2    -1     0     0   501     0  0.000000000E+00  0.000000000E+00 -3.825115719E+02  3.825115719E+02  0.000000000E+00  0.00000E+00  9.000E+00
      25     1     1     2     0     0 -3.003098472E+01  1.546662831E+02  2.222952455E+02  2.997727395E+02  1.250000000E+02  0.00000E+00  9.000E+00
      25     1     1     2     0     0  6.057535330E+01 -1.691608112E+02  2.575056267E+02  3.379628697E+02  1.250000000E+02  0.00000E+00  9.000E+00
       2     1     1     2   502     0 -3.054436858E+01  1.449452815E+01 -3.026027839E+02  3.044856231E+02  3.814697266E-06  0.00000E+00  9.000E+00
#rwgt            1           1 -0.10624880446778170                6       68752           0
</event>
<event>
      5   9999  3.79277E-02  1.09239E+02 -1.00000E+00  1.22126E-01
      21    -1     0     0   502   501  0.000000000E+00  0.000000000E+00  3.994184375E+02  3.994184375E+02  0.000000000E+00  0.00000E+00  9.000E+00
      21    -1     0     0   511   502  0.000000000E+00  0.000000000E+00 -2.157603688E+02  2.157603688E+02  0.000000000E+00  0.00000E+00  9.000E+00
      25     1     1     2     0     0 -4.625472908E+01 -1.046515183E+02 -5.370329528E+00  1.695443325E+02  1.250000000E+02  0.00000E+00  9.000E+00
      25     1     1     2     0     0 -6.136996358E+00  2.005074158E+02  2.292034218E+02  3.292416970E+02  1.250000000E+02  0.00000E+00  9.000E+00
      21     1     1     2   511   501  5.239172544E+01 -9.585589750E+01 -4.017502360E+01  1.163927768E+02  1.348699152E-06  0.00000E+00  9.000E+00
#rwgt            2          11   2.3865125806552703E-003           6       69038           0
</event>
<event>
      5   9999  3.79277E-02  2.28887E+01 -1.00000E+00  1.61676E-01
      21    -1     0     0   502   501  0.000000000E+00  0.000000000E+00  2.886443501E+02  2.886443501E+02  0.000000000E+00  0.00000E+00  9.000E+00
      21    -1     0     0   512   502  0.000000000E+00  0.000000000E+00 -1.326999291E+03  1.326999291E+03  0.000000000E+00  0.00000E+00  9.000E+00
      25     1     1     2     0     0  2.499116755E+01 -1.826218738E+01 -2.102251586E+02  2.465313028E+02  1.250000000E+02  0.00000E+00  9.000E+00
      25     1     1     2     0     0 -5.905336257E+00  3.089634065E+01  2.550076892E+02  2.857330544E+02  1.250000000E+02  0.00000E+00  9.000E+00
      21     1     1     2   512   501 -1.908583129E+01 -1.263415327E+01 -1.083137471E+03  1.083379283E+03  2.157918644E-05  0.00000E+00  9.000E+00
#rwgt            1           1   2.7696243182019426E-002           6       69058           0
</event>
<event>
      5   9999  3.79277E-02  1.51251E+01 -1.00000E+00  1.77044E-01
      21    -1     0     0   511   501  0.000000000E+00  0.000000000E+00  4.191559526E+02  4.191559526E+02  0.000000000E+00  0.00000E+00  9.000E+00
      21    -1     0     0   501   502  0.000000000E+00  0.000000000E+00 -2.156897981E+02  2.156897981E+02  0.000000000E+00  0.00000E+00  9.000E+00
      25     1     1     2     0     0 -1.076651392E+02  1.643995590E+02  2.635661810E+02  3.517259287E+02  1.250000000E+02  0.00000E+00  9.000E+00
      25     1     1     2     0     0  1.224900840E+02 -1.673977573E+02 -8.271316978E+01  2.559146308E+02  1.250000000E+02  0.00000E+00  9.000E+00
      21     1     1     2   511   502 -1.482494476E+01  2.998198302E+00  2.261314326E+01  2.720519121E+01  4.129530925E-07  0.00000E+00  9.000E+00
#rwgt            1           1   4.1725227092188434E-002           6       69247           0
</event>
<event>
      5   9999  3.79277E-02  9.12734E+00 -1.00000E+00  2.00456E-01
      21    -1     0     0   502   501  0.000000000E+00  0.000000000E+00  1.245811549E+02  1.245811549E+02  0.000000000E+00  0.00000E+00  9.000E+00
      21    -1     0     0   501   512  0.000000000E+00  0.000000000E+00 -7.306582535E+02  7.306582535E+02  0.000000000E+00  0.00000E+00  9.000E+00
      25     1     1     2     0     0  1.204284822E+00  2.315516665E+02 -9.926544825E+01  2.812405621E+02  1.250000000E+02  0.00000E+00  9.000E+00
      25     1     1     2     0     0 -4.393893173E+00 -2.229997846E+02 -4.597841079E+02  5.260937522E+02  1.250000000E+02  0.00000E+00  9.000E+00
      21     1     1     2   502   512  3.189608351E+00 -8.551881932E+00 -4.702754241E+01  4.790509400E+01  6.743495762E-07  0.00000E+00  9.000E+00
#rwgt            1           1   3.2593918730332752E-002           6       69473           0
</event>
<event>
      5   9999  3.79277E-02  1.08250E+02 -1.00000E+00  1.22299E-01
      21    -1     0     0   502   511  0.000000000E+00  0.000000000E+00  1.838349726E+02  1.838349726E+02  0.000000000E+00  0.00000E+00  9.000E+00
      21    -1     0     0   501   502  0.000000000E+00  0.000000000E+00 -5.368076755E+02  5.368076755E+02  0.000000000E+00  0.00000E+00  9.000E+00
      25     1     1     2     0     0  1.120887800E+02 -2.374458723E+01 -4.008388954E+02  4.352292730E+02  1.250000000E+02  0.00000E+00  9.000E+00
      25     1     1     2     0     0 -4.620368181E+01  1.096346911E+02  3.810653791E+01  1.767247972E+02  1.250000000E+02  0.00000E+00  9.000E+00
      21     1     1     2   501   511 -6.588509822E+01 -8.589010389E+01  9.759654514E+00  1.086885779E+02  1.332800375E-06  0.00000E+00  9.000E+00
#rwgt            1           1   3.0509657727668997E-002           6       69747           0
</event>
<event>
      5   9999  3.79277E-02  2.88582E+01 -1.00000E+00  1.54220E-01
      21    -1     0     0   502   512  0.000000000E+00  0.000000000E+00  1.217081811E+02  1.217081811E+02  0.000000000E+00  0.00000E+00  9.000E+00
      21    -1     0     0   501   502  0.000000000E+00  0.000000000E+00 -1.290535129E+03  1.290535129E+03  0.000000000E+00  0.00000E+00  9.000E+00
      25     1     1     2     0     0 -8.458865489E+01 -2.021991351E+02 -5.039410176E+02  5.635789918E+02  1.250000000E+02  0.00000E+00  9.000E+00
      25     1     1     2     0     0  5.601643646E+01  2.062517065E+02 -7.335362660E+02  7.741951053E+02  1.250000000E+02  0.00000E+00  9.000E+00
      21     1     1     2   501   512  2.857221844E+01 -4.052571374E+00  6.865033601E+01  7.446921267E+01  3.693564745E-06  0.00000E+00  9.000E+00
#rwgt            1           1   2.6964044714928182E-002           6       69825           0
</event>
<event>
      5   9999  3.79277E-02  3.82818E+01 -1.00000E+00  1.46033E-01
      21    -1     0     0   502   501  0.000000000E+00  0.000000000E+00  1.547586684E+02  1.547586684E+02  0.000000000E+00  0.00000E+00  9.000E+00
      21    -1     0     0   501   511  0.000000000E+00  0.000000000E+00 -3.177961998E+02  3.177961998E+02  0.000000000E+00  0.00000E+00  9.000E+00
      25     1     1     2     0     0 -6.803900203E+01  1.620565368E+02 -8.874377444E+01  2.332211063E+02  1.250000000E+02  0.00000E+00  9.000E+00
      25     1     1     2     0     0  5.851425411E+01 -1.249785944E+02 -4.617602673E+01  1.918353264E+02  1.250000000E+02  0.00000E+00  9.000E+00
      21     1     1     2   502   511  9.524747913E+00 -3.707794236E+01 -2.811773021E+01  4.749843560E+01  9.536743164E-07  0.00000E+00  9.000E+00
#rwgt            1           1   4.1151882683839937E-002           6       69955           0
</event>
<event>
      5   9999  3.79277E-02  3.21206E+01 -1.00000E+00  1.51008E-01
      -5    -1     0     0     0   501  0.000000000E+00  0.000000000E+00  3.793944179E+02  3.793944179E+02  0.000000000E+00  0.00000E+00  9.000E+00
      21    -1     0     0   501   502  0.000000000E+00  0.000000000E+00 -3.162393149E+02  3.162393149E+02  0.000000000E+00  0.00000E+00  9.000E+00
      25     1     1     2     0     0  2.366118873E+01  6.531395454E+01  2.036423588E+01  1.444488374E+02  1.250000000E+02  0.00000E+00  9.000E+00
      25     1     1     2     0     0 -4.507648504E+01 -8.925381378E+01 -2.279531205E+02  2.785422013E+02  1.250000000E+02  0.00000E+00  9.000E+00
      -5     1     1     2     0   502  2.141529631E+01  2.393985924E+01  2.707439877E+02  2.726426941E+02  0.000000000E+00  0.00000E+00  9.000E+00
#rwgt            1           1   5.1426120205338717E-002           6       70073           0
</event>
<event>
      5   9999  3.79277E-02  1.23185E+02 -1.00000E+00  1.19887E-01
      21    -1     0     0   502   511  0.000000000E+00  0.000000000E+00  4.196347601E+02  4.196347601E+02  0.000000000E+00  0.00000E+00  9.000E+00
      21    -1     0     0   501   502  0.000000000E+00  0.000000000E+00 -4.323171960E+02  4.323171960E+02  0.000000000E+00  0.00000E+00  9.000E+00
      25     1     1     2     0     0 -2.802556519E+02  1.812743336E+01 -2.715189561E+02  4.101455568E+02  1.250000000E+02  0.00000E+00  9.000E+00
      25     1     1     2     0     0  1.594068279E+02  5.747923092E+00  2.448403082E+02  3.178291238E+02  1.250000000E+02  0.00000E+00  9.000E+00
      21     1     1     2   501   511  1.208488239E+02 -2.387535646E+01  1.399621198E+01  1.239772755E+02  1.092571186E-06  0.00000E+00  9.000E+00
#rwgt            1           1   4.7560298862790173E-002           6       70317           0
</event>
<event>
      5   9999  3.79277E-02  5.62218E+01 -1.00000E+00  1.36230E-01
      21    -1     0     0   512   501  0.000000000E+00  0.000000000E+00  5.247755780E+02  5.247755780E+02  0.000000000E+00  0.00000E+00  9.000E+00
      21    -1     0     0   501   502  0.000000000E+00  0.000000000E+00 -1.561281590E+02  1.561281590E+02  0.000000000E+00  0.00000E+00  9.000E+00
      25     1     1     2     0     0 -2.017273473E+01  1.718417137E+02  2.281997391E+02  3.124686140E+02  1.250000000E+02  0.00000E+00  9.000E+00
      25     1     1     2     0     0  6.539534725E+00 -1.172979065E+02 -4.276349994E+01  1.767916325E+02  1.250000000E+02  0.00000E+00  9.000E+00
      21     1     1     2   512   502  1.363320001E+01 -5.454380713E+01  1.832111798E+02  1.916434905E+02  0.000000000E+00  0.00000E+00  9.000E+00
#rwgt            1           1   4.1848862544992850E-002           6       70400           0
</event>
<event>
      5   9999  3.79277E-02  3.55093E+01 -1.00000E+00  1.48122E-01
      21    -1     0     0   511   501  0.000000000E+00  0.000000000E+00  4.983390268E+02  4.983390268E+02  0.000000000E+00  0.00000E+00  9.000E+00
      21    -1     0     0   501   502  0.000000000E+00  0.000000000E+00 -1.426878402E+02  1.426878402E+02  0.000000000E+00  0.00000E+00  9.000E+00
      25     1     1     2     0     0  1.276759400E+02 -6.100866115E+01 -3.476720001E+01  1.919816673E+02  1.250000000E+02  0.00000E+00  9.000E+00
      25     1     1     2     0     0 -1.049050350E+02  8.825558296E+01  3.125944253E+02  3.635029422E+02  1.250000000E+02  0.00000E+00  9.000E+00
      21     1     1     2   511   502 -2.277090504E+01 -2.724692180E+01  7.782396127E+01  8.554225746E+01  9.536743164E-07  0.00000E+00  9.000E+00
#rwgt            1           1   4.7004751569600794E-002           6       70577           0
</event>
<event>
      5   9999  3.79277E-02  8.04290E+01 -1.00000E+00  1.28237E-01
      21    -1     0     0   512   501  0.000000000E+00  0.000000000E+00  1.153029167E+02  1.153029167E+02  0.000000000E+00  0.00000E+00  9.000E+00
      21    -1     0     0   501   502  0.000000000E+00  0.000000000E+00 -3.373737406E+02  3.373737406E+02  0.000000000E+00  0.00000E+00  9.000E+00
      25     1     1     2     0     0 -8.291706224E+00  2.349392323E+01 -8.486367127E+01  1.531259597E+02  1.250000000E+02  0.00000E+00  9.000E+00
      25     1     1     2     0     0 -2.921411397E+01  4.765479825E+01 -1.650351420E+02  2.144435645E+02  1.250000000E+02  0.00000E+00  9.000E+00
      21     1     1     2   512   502  3.750582019E+01 -7.114872149E+01  2.782798938E+01  8.510713313E+01  1.617033478E-06  0.00000E+00  9.000E+00
#rwgt            1           1   7.9810505350364509E-003           6       70753           0
</event>
<event>
      5   9999  3.79277E-02  2.51496E+01 -1.00000E+00  1.58557E-01
      21    -1     0     0   502   511  0.000000000E+00  0.000000000E+00  4.302898364E+02  4.302898364E+02  0.000000000E+00  0.00000E+00  9.000E+00
      21    -1     0     0   501   502  0.000000000E+00  0.000000000E+00 -6.330342700E+01  6.330342700E+01  0.000000000E+00  0.00000E+00  9.000E+00
      25     1     1     2     0     0 -2.186058636E+01  8.984159788E+00  2.753147350E+02  3.032850205E+02  1.250000000E+02  0.00000E+00  9.000E+00
      25     1     1     2     0     0 -4.572993109E-01 -2.057787894E+01  4.001184119E+01  1.328518184E+02  1.250000000E+02  0.00000E+00  9.000E+00
      21     1     1     2   501   511  2.231788567E+01  1.159371915E+01  5.165983320E+01  5.745642445E+01  9.536743164E-07  0.00000E+00  9.000E+00
#rwgt            1           1   7.7467873443040638E-002           6       70832           0
</event>
<event>
      5   9999  3.79277E-02  1.77286E+01 -1.00000E+00  1.70808E-01
      21    -1     0     0   502   501  0.000000000E+00  0.000000000E+00  4.115675949E+02  4.115675949E+02  0.000000000E+00  0.00000E+00  9.000E+00
      21    -1     0     0   512   502  0.000000000E+00  0.000000000E+00 -1.386068658E+02  1.386068658E+02  0.000000000E+00  0.00000E+00  9.000E+00
      25     1     1     2     0     0 -9.936229423E+01 -1.089341704E+02  6.148728595E+01  2.028428094E+02  1.250000000E+02  0.00000E+00  9.000E+00
      25     1     1     2     0     0  8.448587581E+01  9.929071984E+01  2.479597149E+02  3.067662473E+02  1.250000000E+02  0.00000E+00  9.000E+00
      21     1     1     2   512   501  1.487641842E+01  9.643450597E+00 -3.648627179E+01  4.056540390E+01  9.536743164E-07  0.00000E+00  9.000E+00
#rwgt            1           1   3.3323917828058491E-002           6       70977           0
</event>
<event>
      5   9999  3.79277E-02  3.31161E+01 -1.00000E+00  1.50117E-01
      21    -1     0     0   502   501  0.000000000E+00  0.000000000E+00  1.094343846E+02  1.094343846E+02  0.000000000E+00  0.00000E+00  9.000E+00
      21    -1     0     0   511   502  0.000000000E+00  0.000000000E+00 -3.727463314E+02  3.727463314E+02  0.000000000E+00  0.00000E+00  9.000E+00
      25     1     1     2     0     0  2.594771340E+01 -5.480130001E+01 -2.557766222E+02  2.910724081E+02  1.250000000E+02  0.00000E+00  9.000E+00
      25     1     1     2     0     0 -5.109150232E+01  3.324975766E+01  2.871893087E+01  1.420058625E+02  1.250000000E+02  0.00000E+00  9.000E+00
      21     1     1     2   511   501  2.514378891E+01  2.155154235E+01 -3.625425546E+01  4.910244533E+01  4.768371582E-07  0.00000E+00  9.000E+00
#rwgt            1           1   5.1483527884911881E-002           6       71166           0
</event>
<event>
      5   9999  3.79277E-02  3.98775E+01 -1.00000E+00  1.44923E-01
      21    -1     0     0   502   501  0.000000000E+00  0.000000000E+00  8.827086444E+01  8.827086444E+01  0.000000000E+00  0.00000E+00  9.000E+00
       2    -1     0     0   501     0  0.000000000E+00  0.000000000E+00 -3.945034109E+03  3.945034109E+03  0.000000000E+00  0.00000E+00  9.000E+00
      25     1     1     2     0     0  2.985196413E+02  9.094649188E+01 -4.911504750E+02  5.951798297E+02  1.250000000E+02  0.00000E+00  9.000E+00
      25     1     1     2     0     0 -2.896433350E+02 -1.298235355E+02 -7.697320348E+02  8.419381315E+02  1.250000000E+02  0.00000E+00  9.000E+00
       2     1     1     2   502     0 -8.876306304E+00  3.887704358E+01 -2.595880735E+03  2.596187013E+03  0.000000000E+00  0.00000E+00  9.000E+00
#rwgt            1           1   4.0781822836520064E-002           6       71363           0
</event>
<event>
      5   9999  3.79277E-02  5.01935E+01 -1.00000E+00  1.38980E-01
       2    -1     0     0   502     0  0.000000000E+00  0.000000000E+00  4.698298553E+03  4.698298553E+03  0.000000000E+00  0.00000E+00  9.000E+00
      21    -1     0     0   501   502  0.000000000E+00  0.000000000E+00 -2.879715349E+01  2.879715349E+01  0.000000000E+00  0.00000E+00  9.000E+00
      25     1     1     2     0     0  5.633083293E+01 -1.315143315E+02  6.228886806E+02  6.512176983E+02  1.250000000E+02  0.00000E+00  9.000E+00
      25     1     1     2     0     0 -1.474748613E+01  1.596250963E+02  7.007572668E+02  7.296460832E+02  1.250000000E+02  0.00000E+00  9.000E+00
       2     1     1     2   501     0 -4.158334680E+01 -2.811076473E+01  3.345855452E+03  3.346231925E+03  4.315837288E-05  0.00000E+00  9.000E+00
#rwgt            1           1   5.6127398438032827E-002           6       71529           0
</event>
<event>
      5   9999  3.79277E-02  1.17688E+01 -1.00000E+00  1.87921E-01
      21    -1     0     0   502   501  0.000000000E+00  0.000000000E+00  1.035344031E+03  1.035344031E+03  0.000000000E+00  0.00000E+00  9.000E+00
      21    -1     0     0   511   502  0.000000000E+00  0.000000000E+00 -1.858715427E+02  1.858715427E+02  0.000000000E+00  0.00000E+00  9.000E+00
      25     1     1     2     0     0 -9.492755879E+01 -3.791971377E+01  1.716632194E+02  2.356743664E+02  1.250000000E+02  0.00000E+00  9.000E+00
      25     1     1     2     0     0  9.909136242E+01  4.892735113E+01  8.230668086E+02  8.398076894E+02  1.250000000E+02  0.00000E+00  9.000E+00
      21     1     1     2   511   501 -4.163803630E+00 -1.100763736E+01 -1.452575397E+02  1.457335177E+02  5.046370146E-06  0.00000E+00  9.000E+00
#rwgt            1           1   4.9708113673207266E-002           6       71665           0
</event>
<event>
      5   9999  3.79277E-02  9.23233E+00 -1.00000E+00  1.99854E-01
      21    -1     0     0   502   512  0.000000000E+00  0.000000000E+00  2.116462416E+02  2.116462416E+02  0.000000000E+00  0.00000E+00  9.000E+00
      21    -1     0     0   501   502  0.000000000E+00  0.000000000E+00 -5.563550046E+02  5.563550046E+02  0.000000000E+00  0.00000E+00  9.000E+00
      25     1     1     2     0     0 -9.598896476E+01 -3.485622041E+01 -5.042736174E+02  5.294768348E+02  1.250000000E+02  0.00000E+00  9.000E+00
      25     1     1     2     0     0  1.052212561E+02  3.482804313E+01  1.561666752E+02  2.286865448E+02  1.250000000E+02  0.00000E+00  9.000E+00
      21     1     1     2   501   512 -9.232291304E+00  2.817728327E-02  3.398179243E+00  9.837866580E+00  1.332800375E-07  0.00000E+00  9.000E+00
#rwgt            1           1   5.1612698650662550E-002           6       71849           0
</event>
<event>
      5   9999  3.79277E-02  9.82775E+01 -1.00000E+00  1.24168E-01
      21    -1     0     0   502   511  0.000000000E+00  0.000000000E+00  4.635065406E+02  4.635065406E+02  0.000000000E+00  0.00000E+00  9.000E+00
      21    -1     0     0   501   502  0.000000000E+00  0.000000000E+00 -1.955508346E+02  1.955508346E+02  0.000000000E+00  0.00000E+00  9.000E+00
      25     1     1     2     0     0 -4.134309575E+01 -1.119662022E+02 -8.615868893E+01  1.931165495E+02  1.250000000E+02  0.00000E+00  9.000E+00
      25     1     1     2     0     0 -2.228007320E+00  2.387516378E+01  3.495337556E+01  1.319913858E+02  1.250000000E+02  0.00000E+00  9.000E+00
      21     1     1     2   501   511  4.357110307E+01  8.809103846E+01  3.191610195E+02  3.339494399E+02  3.814697266E-06  0.00000E+00  9.000E+00
#rwgt            1           1   3.4137030277513580E-002           6       72151           0
</event>
<event>
      5   9999  3.79277E-02  4.12744E+01 -1.00000E+00  1.44000E-01
       2    -1     0     0   502     0  0.000000000E+00  0.000000000E+00  1.253110431E+03  1.253110431E+03  0.000000000E+00  0.00000E+00  9.000E+00
      21    -1     0     0   501   502  0.000000000E+00  0.000000000E+00 -1.030038594E+02  1.030038594E+02  0.000000000E+00  0.00000E+00  9.000E+00
      25     1     1     2     0     0  6.102500758E+01  8.146192849E+01  1.912616853E+01  1.623296266E+02  1.250000000E+02  0.00000E+00  9.000E+00
      25     1     1     2     0     0 -1.011981938E+02 -9.093236595E+01  2.450561892E+02  3.068995038E+02  1.250000000E+02  0.00000E+00  9.000E+00
       2     1     1     2   501     0  4.017318623E+01  9.470437469E+00  8.859242144E+02  8.868851604E+02  1.525878906E-05  0.00000E+00  9.000E+00
#rwgt            1           1   4.0769738255458383E-002           6       72187           0
</event>
<event>
      5   9999  3.79277E-02  7.00868E+01 -1.00000E+00  1.31193E-01
      21    -1     0     0   511   501  0.000000000E+00  0.000000000E+00  2.504191875E+02  2.504191875E+02  0.000000000E+00  0.00000E+00  9.000E+00
      21    -1     0     0   501   502  0.000000000E+00  0.000000000E+00 -1.518992347E+02  1.518992347E+02  0.000000000E+00  0.00000E+00  9.000E+00
      25     1     1     2     0     0 -7.386532764E+01 -1.011692140E+01 -3.222792740E+01  1.490707149E+02  1.250000000E+02  0.00000E+00  9.000E+00
      25     1     1     2     0     0  5.890417778E+00  2.719243528E+01  3.172339926E+01  1.319299042E+02  1.250000000E+02  0.00000E+00  9.000E+00
      21     1     1     2   511   502  6.797490986E+01 -1.707551388E+01  9.902448095E+01  1.213178032E+02  1.348699152E-06  0.00000E+00  9.000E+00
#rwgt            1           1   3.1068293600668657E-002           6       72337           0
</event>
<event>
      5   9999  3.79277E-02  1.46890E+01 -1.00000E+00  1.78245E-01
      21    -1     0     0   502   501  0.000000000E+00  0.000000000E+00  7.066582295E+02  7.066582295E+02  0.000000000E+00  0.00000E+00  9.000E+00
      21    -1     0     0   501   512  0.000000000E+00  0.000000000E+00 -9.465691088E+01  9.465691088E+01  0.000000000E+00  0.00000E+00  9.000E+00
      25     1     1     2     0     0 -7.167080071E+01  6.028401815E-01  6.304036794E+02  6.466613225E+02  1.250000000E+02  0.00000E+00  9.000E+00
      25     1     1     2     0     0  5.820355759E+01 -6.467957127E+00 -2.132903595E+01  1.396761123E+02  1.250000000E+02  0.00000E+00  9.000E+00
      21     1     1     2   502   512  1.346724312E+01  5.865116945E+00  2.926675187E+00  1.497770549E+01  1.332800375E-07  0.00000E+00  9.000E+00
#rwgt            1           1   2.2320882166952345E-002           6       72472           0
</event>
<event>
      5   9999  3.79277E-02  5.38816E+01 -1.00000E+00  1.37248E-01
      21    -1     0     0   502   501  0.000000000E+00  0.000000000E+00  1.269172913E+03  1.269172913E+03  0.000000000E+00  0.00000E+00  9.000E+00
      -4    -1     0     0     0   502  0.000000000E+00  0.000000000E+00 -7.380823542E+02  7.380823542E+02  0.000000000E+00  0.00000E+00  9.000E+00
      25     1     1     2     0     0 -3.546205828E+01 -1.628519824E+02  3.175829738E+02  3.798187344E+02  1.250000000E+02  0.00000E+00  9.000E+00
      25     1     1     2     0     0  4.484720224E-01  2.038065181E+02  9.038793355E+02  9.349653208E+02  1.250000000E+02  0.00000E+00  9.000E+00
      -4     1     1     2     0   501  3.501358625E+01 -4.095453571E+01 -6.903717506E+02  6.924712119E+02  7.629394531E-06  0.00000E+00  9.000E+00
#rwgt            1           1   3.9674399198383482E-002           6       72764           0
</event>
<event>
      5   9999  3.79277E-02  2.52193E+01 -1.00000E+00  1.58467E-01
      21    -1     0     0   502   501  0.000000000E+00  0.000000000E+00  2.691707077E+02  2.691707077E+02  0.000000000E+00  0.00000E+00  9.000E+00
      21    -1     0     0   501   511  0.000000000E+00  0.000000000E+00 -3.213499440E+02  3.213499440E+02  0.000000000E+00  0.00000E+00  9.000E+00
      25     1     1     2     0     0  7.572016246E+01 -2.268222461E+02  6.188706334E-02  2.698274970E+02  1.250000000E+02  0.00000E+00  9.000E+00
      25     1     1     2     0     0 -7.507550560E+01  2.520332989E+02 -4.896213402E+01  2.952615889E+02  1.250000000E+02  0.00000E+00  9.000E+00
      21     1     1     2   502   511 -6.446568523E-01 -2.521105286E+01 -3.278989320E+00  2.543156581E+01  4.805480092E-07  0.00000E+00  9.000E+00
#rwgt            1           1   3.1677170327152296E-002           6       72906           0
</event>
<event>
      5   9999  3.79277E-02  7.21236E+01 -1.00000E+00  1.30567E-01
      21    -1     0     0   502   501  0.000000000E+00  0.000000000E+00  1.187322317E+02  1.187322317E+02  0.000000000E+00  0.00000E+00  9.000E+00
      21    -1     0     0   501   512  0.000000000E+00  0.000000000E+00 -6.529110962E+02  6.529110962E+02  0.000000000E+00  0.00000E+00  9.000E+00
      25     1     1     2     0     0  1.168152187E+02 -1.007071997E+02 -2.833114110E+02  3.459452138E+02  1.250000000E+02  0.00000E+00  9.000E+00
      25     1     1     2     0     0 -9.877676825E+01  3.087578397E+01  2.464034271E+00  1.622998319E+02  1.250000000E+02  0.00000E+00  9.000E+00
      21     1     1     2   502   512 -1.803845043E+01  6.983141576E+01 -2.533314878E+02  2.633982822E+02  0.000000000E+00  0.00000E+00  9.000E+00
#rwgt            1           1   4.0552150982695399E-002           6       73053           0
</event>
<event>
      5   9999  3.79277E-02  1.59108E+01 -1.00000E+00  1.75005E-01
      21    -1     0     0   502   501  0.000000000E+00  0.000000000E+00  2.257482846E+03  2.257482846E+03  0.000000000E+00  0.00000E+00  9.000E+00
      21    -1     0     0   511   502  0.000000000E+00  0.000000000E+00 -4.724739051E+01  4.724739051E+01  0.000000000E+00  0.00000E+00  9.000E+00
      25     1     1     2     0     0 -1.430150822E+02 -6.029507154E+01  1.542339449E+03  1.555160695E+03  1.250000000E+02  0.00000E+00  9.000E+00
      25     1     1     2     0     0  1.397257232E+02  7.586216098E+01  6.918544026E+02  7.208091700E+02  1.250000000E+02  0.00000E+00  9.000E+00
      21     1     1     2   511   501  3.289358934E+00 -1.556708944E+01 -2.395839710E+01  2.876037112E+01  9.536743164E-07  0.00000E+00  9.000E+00
#rwgt            1           1   8.0419602450301608E-002           6       73249           0
</event>
<event>
      5   9999  3.79277E-02  8.90332E+01 -1.00000E+00  1.26140E-01
       2    -1     0     0   502     0  0.000000000E+00  0.000000000E+00  2.433130990E+03  2.433130990E+03  0.000000000E+00  0.00000E+00  9.000E+00
      21    -1     0     0   501   502  0.000000000E+00  0.000000000E+00 -1.370615272E+02  1.370615272E+02  0.000000000E+00  0.00000E+00  9.000E+00
      25     1     1     2     0     0 -1.993841661E+01 -1.169748793E+02  2.322846988E+02  2.892435723E+02  1.250000000E+02  0.00000E+00  9.000E+00
      25     1     1     2     0     0 -6.909472533E+01  1.168627101E+02 -2.853504607E+01  1.867357034E+02  1.250000000E+02  0.00000E+00  9.000E+00
       2     1     1     2   501     0  8.903314193E+01  1.121691967E-01  2.092319810E+03  2.094213241E+03  3.051757812E-05  0.00000E+00  9.000E+00
#rwgt            1           1   3.5043832176966341E-002           6       73665           0
</event>
<event>
      5   9999  3.79277E-02  3.50345E+01 -1.00000E+00  1.48503E-01
      21    -1     0     0   502   501  0.000000000E+00  0.000000000E+00  1.315900340E+02  1.315900340E+02  0.000000000E+00  0.00000E+00  9.000E+00
      21    -1     0     0   511   502  0.000000000E+00  0.000000000E+00 -7.022910170E+02  7.022910170E+02  0.000000000E+00  0.00000E+00  9.000E+00
      25     1     1     2     0     0  2.002290422E+02  3.174933532E+01 -8.805915630E+01  2.539273609E+02  1.250000000E+02  0.00000E+00  9.000E+00
      25     1     1     2     0     0 -1.928448584E+02  2.498101056E+00 -2.308937828E+02  3.257795556E+02  1.250000000E+02  0.00000E+00  9.000E+00
      21     1     1     2   511   501 -7.384183754E+00 -3.424743637E+01 -2.517480438E+02  2.541741345E+02  0.000000000E+00  0.00000E+00  9.000E+00
#rwgt            1           1   2.5850836648499197E-002           6       73918           0
</event>
<event>
      5   9999  3.79277E-02  2.24766E+01 -1.00000E+00  1.62292E-01
      21    -1     0     0   502   501  0.000000000E+00  0.000000000E+00  2.989709243E+02  2.989709243E+02  0.000000000E+00  0.00000E+00  9.000E+00
      21    -1     0     0   501   512  0.000000000E+00  0.000000000E+00 -3.102875310E+02  3.102875310E+02  0.000000000E+00  0.00000E+00  9.000E+00
      25     1     1     2     0     0  1.752714392E+02 -1.332722885E+01  1.897439700E+02  2.872724606E+02  1.250000000E+02  0.00000E+00  9.000E+00
      25     1     1     2     0     0 -1.887951901E+02  3.128015868E+01 -1.773026327E+02  2.892806521E+02  1.250000000E+02  0.00000E+00  9.000E+00
      21     1     1     2   502   512  1.352375085E+01 -1.795292983E+01 -2.375794404E+01  3.270534255E+01  7.539457465E-07  0.00000E+00  9.000E+00
#rwgt            1           1   3.4645067176367311E-002           6       74073           0
</event>
<event>
      5   9999  3.79277E-02  1.01917E+01 -1.00000E+00  1.94809E-01
      21    -1     0     0   511   501  0.000000000E+00  0.000000000E+00  2.357793019E+02  2.357793019E+02  0.000000000E+00  0.00000E+00  9.000E+00
      21    -1     0     0   501   502  0.000000000E+00  0.000000000E+00 -3.089963404E+02  3.089963404E+02  0.000000000E+00  0.00000E+00  9.000E+00
      25     1     1     2     0     0 -1.593236327E+02  5.841210674E+01  9.609725786E+01  2.316369511E+02  1.250000000E+02  0.00000E+00  9.000E+00
      25     1     1     2     0     0  1.532647828E+02 -5.021692233E+01 -1.970042436E+02  2.836326937E+02  1.250000000E+02  0.00000E+00  9.000E+00
      21     1     1     2   511   502  6.058849874E+00 -8.195184408E+00  2.768994723E+01  2.950599747E+01  0.000000000E+00  0.00000E+00  9.000E+00
#rwgt            1           1   3.4454114626523737E-002           6       74217           0
</event>
<event>
      5   9999  3.79277E-02  9.27982E+01 -1.00000E+00  1.25306E-01
      21    -1     0     0   502   512  0.000000000E+00  0.000000000E+00  2.660333953E+01  2.660333953E+01  0.000000000E+00  0.00000E+00  9.000E+00
      21    -1     0     0   501   502  0.000000000E+00  0.000000000E+00 -2.552293144E+03  2.552293144E+03  0.000000000E+00  0.00000E+00  9.000E+00
      25     1     1     2     0     0  1.011536042E+02  6.184031486E+01 -4.152948938E+02  4.496121940E+02  1.250000000E+02  0.00000E+00  9.000E+00
      25     1     1     2     0     0 -6.799963569E+01  2.483333522E+01 -1.787276049E+03  1.793103823E+03  1.250000000E+02  0.00000E+00  9.000E+00
      21     1     1     2   501   512 -3.315396852E+01 -8.667365008E+01 -3.231188617E+02  3.361804664E+02  5.394796609E-06  0.00000E+00  9.000E+00
#rwgt            2          11   4.5951902252163611E-003           6       74474           0
</event>
<event>
      5   9999 -4.26537E-02  7.29671E+01 -1.00000E+00  1.30314E-01
      21    -1     0     0   502   501  0.000000000E+00  0.000000000E+00  6.849956801E+01  6.849956801E+01  0.000000000E+00  0.00000E+00  9.000E+00
      -1    -1     0     0     0   502  0.000000000E+00  0.000000000E+00 -1.918306097E+03  1.918306097E+03  0.000000000E+00  0.00000E+00  9.000E+00
      25     1     1     2     0     0 -1.960953226E+02 -5.256002545E+01 -5.244162283E+02  5.760671075E+02  1.250000000E+02  0.00000E+00  9.000E+00
      25     1     1     2     0     0  1.255146170E+02  3.405151926E+01 -1.542936038E+02  2.373708938E+02  1.250000000E+02  0.00000E+00  9.000E+00
      -1     1     1     2     0   501  7.058070561E+01  1.850850619E+01 -1.171096697E+03  1.173367664E+03  0.000000000E+00  0.00000E+00  9.000E+00
#rwgt            1           1 -0.50082259646109373                6       74524           0
</event>
<event>
      5   9999  3.79277E-02  3.40028E+02 -1.00000E+00  1.03854E-01
       2    -1     0     0   502     0  0.000000000E+00  0.000000000E+00  3.146181823E+03  3.146181823E+03  0.000000000E+00  0.00000E+00  9.000E+00
      21    -1     0     0   501   502  0.000000000E+00  0.000000000E+00 -1.365850375E+02  1.365850375E+02  0.000000000E+00  0.00000E+00  9.000E+00
      25     1     1     2     0     0 -4.972449223E+02  1.731311936E+02  7.029531673E+02  8.871274307E+02  1.250000000E+02  0.00000E+00  9.000E+00
      25     1     1     2     0     0  1.948886356E+02 -1.756792830E+01  4.323908988E+02  4.907923204E+02  1.250000000E+02  0.00000E+00  9.000E+00
       2     1     1     2   501     0  3.023562867E+02 -1.555632653E+02  1.874252720E+03  1.904847110E+03  4.315837288E-05  0.00000E+00  9.000E+00
#rwgt            1           1   3.5160699490588358E-002           6       74720           0
</event>
<event>
      5   9999  3.79277E-02  7.94860E+00 -1.00000E+00  2.08037E-01
      21    -1     0     0   502   501  0.000000000E+00  0.000000000E+00  2.870982682E+02  2.870982682E+02  0.000000000E+00  0.00000E+00  9.000E+00
      21    -1     0     0   501   511  0.000000000E+00  0.000000000E+00 -2.133546049E+02  2.133546049E+02  0.000000000E+00  0.00000E+00  9.000E+00
      25     1     1     2     0     0  1.378945173E+02  1.340408850E+02  5.577204365E+01  2.360452872E+02  1.250000000E+02  0.00000E+00  9.000E+00
      25     1     1     2     0     0 -1.357547665E+02 -1.416960621E+02  4.435459386E+01  2.368532470E+02  1.250000000E+02  0.00000E+00  9.000E+00
      21     1     1     2   502   511 -2.139750750E+00  7.655177092E+00 -2.638297418E+01  2.755433898E+01  3.371747881E-07  0.00000E+00  9.000E+00
#rwgt            1           1   3.8993731971657182E-002           6       74903           0
</event>
<event>
      5   9999  3.79277E-02  1.31004E+02 -1.00000E+00  1.18773E-01
      21    -1     0     0   502   501  0.000000000E+00  0.000000000E+00  6.293954589E+02  6.293954589E+02  0.000000000E+00  0.00000E+00  9.000E+00
      21    -1     0     0   512   502  0.000000000E+00  0.000000000E+00 -6.185257826E+02  6.185257826E+02  0.000000000E+00  0.00000E+00  9.000E+00
      25     1     1     2     0     0 -1.565242942E+02  1.208066594E+02 -1.081404846E+02  2.577081062E+02  1.250000000E+02  0.00000E+00  9.000E+00
      25     1     1     2     0     0  2.567166433E+02 -3.640558791E+01  5.057293273E+02  5.819071698E+02  1.250000000E+02  0.00000E+00  9.000E+00
      21     1     1     2   512   501 -1.001923491E+02 -8.440107146E+01 -3.867191664E+02  4.083059654E+02  5.394796609E-06  0.00000E+00  9.000E+00
#rwgt            1           1   2.7982036353578248E-002           6       75283           0
</event>
<event>
      5   9999  3.79277E-02  1.05277E+02 -1.00000E+00  1.22832E-01
      21    -1     0     0   511   501  0.000000000E+00  0.000000000E+00  4.466596440E+02  4.466596440E+02  0.000000000E+00  0.00000E+00  9.000E+00
      21    -1     0     0   501   502  0.000000000E+00  0.000000000E+00 -3.199450654E+02  3.199450654E+02  0.000000000E+00  0.00000E+00  9.000E+00
      25     1     1     2     0     0  9.819859860E+01  2.527618936E+02  2.164677746E+02  3.688018941E+02  1.250000000E+02  0.00000E+00  9.000E+00
      25     1     1     2     0     0 -9.488112081E+01 -1.475376578E+02 -1.625173837E+02  2.698271439E+02  1.250000000E+02  0.00000E+00  9.000E+00
      21     1     1     2   511   502 -3.317477798E+00 -1.052242358E+02  7.276418778E+01  1.279756714E+02  1.348699152E-06  0.00000E+00  9.000E+00
#rwgt            1           1   4.5685088920146250E-002           6       75365           0
</event>
<event>
      5   9999  3.79277E-02  2.51930E+02 -1.00000E+00  1.08116E-01
      21    -1     0     0   512   501  0.000000000E+00  0.000000000E+00  1.341608253E+02  1.341608253E+02  0.000000000E+00  0.00000E+00  9.000E+00
      21    -1     0     0   501   502  0.000000000E+00  0.000000000E+00 -1.130773798E+03  1.130773798E+03  0.000000000E+00  0.00000E+00  9.000E+00
      25     1     1     2     0     0  9.263142466E+01 -1.269606238E+02 -4.110105877E+02  4.574432030E+02  1.250000000E+02  0.00000E+00  9.000E+00
      25     1     1     2     0     0  1.418085638E+02  2.191921584E+02 -4.037521432E+02  4.967853301E+02  1.250000000E+02  0.00000E+00  9.000E+00
      21     1     1     2   512   502 -2.344399884E+02 -9.223153454E+01 -1.818502420E+02  3.107060905E+02  4.672030912E-06  0.00000E+00  9.000E+00
#rwgt            1           1   5.8199347672031429E-002           6       75425           0
</event>
<event>
      5   9999  3.79277E-02  3.27705E+01 -1.00000E+00  1.50422E-01
      21    -1     0     0   511   501  0.000000000E+00  0.000000000E+00  2.197364824E+02  2.197364824E+02  0.000000000E+00  0.00000E+00  9.000E+00
      21    -1     0     0   501   502  0.000000000E+00  0.000000000E+00 -2.357474365E+02  2.357474365E+02  0.000000000E+00  0.00000E+00  9.000E+00
      25     1     1     2     0     0 -9.429706247E+01 -6.716487154E+01 -1.175528249E+02  2.069944990E+02  1.250000000E+02  0.00000E+00  9.000E+00
      25     1     1     2     0     0  1.179263168E+02  8.987094009E+01  8.428680648E+01  2.114537014E+02  1.250000000E+02  0.00000E+00  9.000E+00
      21     1     1     2   511   502 -2.362925434E+01 -2.270606855E+01  1.725506433E+01  3.703571863E+01  5.840038640E-07  0.00000E+00  9.000E+00
#rwgt            1           1   5.1042113506787674E-002           6       75545           0
</event>
<event>
      5   9999  3.79277E-02  2.10991E+01 -1.00000E+00  1.64475E-01
      21    -1     0     0   502   501  0.000000000E+00  0.000000000E+00  7.927559646E+01  7.927559646E+01  0.000000000E+00  0.00000E+00  9.000E+00
      21    -1     0     0   501   512  0.000000000E+00  0.000000000E+00 -5.416820818E+02  5.416820818E+02  0.000000000E+00  0.00000E+00  9.000E+00
      25     1     1     2     0     0  4.731205971E+01  5.978254318E+01 -1.798943574E+01  1.475161119E+02  1.250000000E+02  0.00000E+00  9.000E+00
      25     1     1     2     0     0 -5.093594024E+01 -3.899696267E+01 -3.604675302E+02  3.868812136E+02  1.250000000E+02  0.00000E+00  9.000E+00
      21     1     1     2   502   512  3.623880526E+00 -2.078558052E+01 -8.394951946E+01  8.656035284E+01  9.536743164E-07  0.00000E+00  9.000E+00
#rwgt            1           1   4.3036364906814693E-002           6       76038           0
</event>
<event>
      5   9999  3.79277E-02  2.44367E+01 -1.00000E+00  1.59496E-01
      21    -1     0     0   502   511  0.000000000E+00  0.000000000E+00  1.147529734E+03  1.147529734E+03  0.000000000E+00  0.00000E+00  9.000E+00
      21    -1     0     0   501   502  0.000000000E+00  0.000000000E+00 -6.024943404E+01  6.024943404E+01  0.000000000E+00  0.00000E+00  9.000E+00
      25     1     1     2     0     0  1.569772095E+02 -1.199500567E+02  3.611520366E+02  4.302158225E+02  1.250000000E+02  0.00000E+00  9.000E+00
      25     1     1     2     0     0 -1.597883228E+02  9.567556208E+01  4.755198626E+02  5.257663559E+02  1.250000000E+02  0.00000E+00  9.000E+00
      21     1     1     2   501   511  2.811113229E+00  2.427449463E+01  2.506084006E+02  2.517969895E+02  2.697398305E-06  0.00000E+00  9.000E+00
#rwgt            1           1   2.9760113623710449E-002           6       76216           0
</event>
<event>
      5   9999  3.79277E-02  1.41857E+02 -1.00000E+00  1.17362E-01
      21    -1     0     0   502   512  0.000000000E+00  0.000000000E+00  2.000277739E+02  2.000277739E+02  0.000000000E+00  0.00000E+00  9.000E+00
      21    -1     0     0   501   502  0.000000000E+00  0.000000000E+00 -8.461311112E+02  8.461311112E+02  0.000000000E+00  0.00000E+00  9.000E+00
      25     1     1     2     0     0 -2.566099851E+02  9.233012766E+00 -1.602285890E+02  3.274631791E+02  1.250000000E+02  0.00000E+00  9.000E+00
      25     1     1     2     0     0  2.205909261E+02 -1.464410628E+02 -4.965388901E+02  5.764383844E+02  1.250000000E+02  0.00000E+00  9.000E+00
      21     1     1     2   501   512  3.601905898E+01  1.372080501E+02  1.066414181E+01  1.422573215E+02  3.658773721E-06  0.00000E+00  9.000E+00
#rwgt            1           1   3.0113275881449131E-002           6       76400           0
</event>
<event>
      5   9999  3.79277E-02  2.17656E+01 -1.00000E+00  1.63394E-01
      21    -1     0     0   502   501  0.000000000E+00  0.000000000E+00  6.094773500E+02  6.094773500E+02  0.000000000E+00  0.00000E+00  9.000E+00
      21    -1     0     0   511   502  0.000000000E+00  0.000000000E+00 -2.434149405E+02  2.434149405E+02  0.000000000E+00  0.00000E+00  9.000E+00
      25     1     1     2     0     0 -1.854019117E+02  1.184085804E+02  3.696892075E+02  4.479838958E+02  1.250000000E+02  0.00000E+00  9.000E+00
      25     1     1     2     0     0  2.002106861E+02 -1.343597594E+02  1.071867619E+02  2.919775089E+02  1.250000000E+02  0.00000E+00  9.000E+00
      21     1     1     2   511   501 -1.480877444E+01  1.595117899E+01 -1.108135599E+02  1.129308858E+02  1.348699152E-06  0.00000E+00  9.000E+00
#rwgt            1           1  0.22607004561426131                6       76478           0
</event>
<event>
      5   9999  3.79277E-02  4.01556E+01 -1.00000E+00  1.44736E-01
      21    -1     0     0   502   501  0.000000000E+00  0.000000000E+00  2.052703927E+02  2.052703927E+02  0.000000000E+00  0.00000E+00  9.000E+00
      21    -1     0     0   501   512  0.000000000E+00  0.000000000E+00 -5.848307889E+02  5.848307889E+02  0.000000000E+00  0.00000E+00  9.000E+00
      25     1     1     2     0     0 -3.058589105E+02 -9.488714357E+01 -1.674071693E+02  3.823655365E+02  1.250000000E+02  0.00000E+00  9.000E+00
      25     1     1     2     0     0  2.657512299E+02  9.292689579E+01 -1.884612864E+02  3.611118672E+02  1.250000000E+02  0.00000E+00  9.000E+00
      21     1     1     2   502   512  4.010768060E+01  1.960247788E+00 -2.369194042E+01  4.662377779E+01  3.371747881E-07  0.00000E+00  9.000E+00
#rwgt            1           1   3.9749343507497752E-002           6       76632           0
</event>
<event>
      5   9999  3.79277E-02  6.40034E+01 -1.00000E+00  1.33221E-01
      21    -1     0     0   502   511  0.000000000E+00  0.000000000E+00  3.313653773E+02  3.313653773E+02  0.000000000E+00  0.00000E+00  9.000E+00
      21    -1     0     0   501   502  0.000000000E+00  0.000000000E+00 -1.225871995E+03  1.225871995E+03  0.000000000E+00  0.00000E+00  9.000E+00
      25     1     1     2     0     0  3.402746795E+02  1.918408710E+02 -1.567462797E+02  4.390719456E+02  1.250000000E+02  0.00000E+00  9.000E+00
      25     1     1     2     0     0 -3.792562815E+02 -1.410779763E+02 -8.720237751E+02  9.694270405E+02  1.250000000E+02  0.00000E+00  9.000E+00
      21     1     1     2   501   511  3.898160208E+01 -5.076289463E+01  1.342634374E+02  1.487383858E+02  3.814697266E-06  0.00000E+00  9.000E+00
#rwgt            1           1   9.9075437202232844E-002           6       76818           0
</event>
<event>
      5   9999  3.79277E-02  1.12919E+02 -1.00000E+00  1.21500E-01
      21    -1     0     0   502   512  0.000000000E+00  0.000000000E+00  3.676134037E+02  3.676134037E+02  0.000000000E+00  0.00000E+00  9.000E+00
      21    -1     0     0   501   502  0.000000000E+00  0.000000000E+00 -5.355168276E+02  5.355168276E+02  0.000000000E+00  0.00000E+00  9.000E+00
      25     1     1     2     0     0 -8.891632355E+01 -2.066434152E+02 -2.267759048E+02  3.430159248E+02  1.250000000E+02  0.00000E+00  9.000E+00
      25     1     1     2     0     0  2.117210148E+01  1.163027503E+02 -2.082383003E+02  2.701162293E+02  1.250000000E+02  0.00000E+00  9.000E+00
      21     1     1     2   501   512  6.774422207E+01  9.034066491E+01  2.671107813E+02  2.899980773E+02  0.000000000E+00  0.00000E+00  9.000E+00
#rwgt            1           1   2.7577634049682720E-002           6       77072           0
</event>
<event>
      5   9999  3.79277E-02  3.03255E+01 -1.00000E+00  1.52715E-01
      21    -1     0     0   502   511  0.000000000E+00  0.000000000E+00  4.031418452E+01  4.031418452E+01  0.000000000E+00  0.00000E+00  9.000E+00
      21    -1     0     0   501   502  0.000000000E+00  0.000000000E+00 -1.491597427E+03  1.491597427E+03  0.000000000E+00  0.00000E+00  9.000E+00
      25     1     1     2     0     0 -1.722331977E+02 -4.718400565E+01 -5.135279051E+02  5.578767911E+02  1.250000000E+02  0.00000E+00  9.000E+00
      25     1     1     2     0     0  1.498008957E+02  2.677748221E+01 -9.154422935E+02  9.363850354E+02  1.250000000E+02  0.00000E+00  9.000E+00
      21     1     1     2   501   511  2.243230206E+01  2.040652344E+01 -2.231304382E+01  3.764978485E+01  3.371747881E-07  0.00000E+00  9.000E+00
#rwgt            1           1   4.3553559311029388E-002           6       77128           0
</event>
<event>
      5   9999  3.79277E-02  1.48943E+01 -1.00000E+00  1.77673E-01
      21    -1     0     0   502   501  0.000000000E+00  0.000000000E+00  3.108962032E+01  3.108962032E+01  0.000000000E+00  0.00000E+00  9.000E+00
      21    -1     0     0   501   512  0.000000000E+00  0.000000000E+00 -1.058476146E+03  1.058476146E+03  0.000000000E+00  0.00000E+00  9.000E+00
      25     1     1     2     0     0 -7.227511323E+01  7.544221456E+01 -5.918670534E+02  6.138785130E+02  1.250000000E+02  0.00000E+00  9.000E+00
      25     1     1     2     0     0  6.143149070E+01 -6.523162836E+01 -2.800228776E+02  3.194789592E+02  1.250000000E+02  0.00000E+00  9.000E+00
      21     1     1     2   502   512  1.084362253E+01 -1.021058620E+01 -1.554965947E+02  1.562082942E+02  1.907348633E-06  0.00000E+00  9.000E+00
#rwgt            1           1   4.3490931540624951E-002           6       77322           0
</event>
<event>
      5   9999 -3.79277E-02  2.53142E+01 -1.00000E+00  1.58346E-01
       2    -1     0     0   502     0  0.000000000E+00  0.000000000E+00  2.431103060E+03  2.431103060E+03  0.000000000E+00  0.00000E+00  9.000E+00
      21    -1     0     0   501   502  0.000000000E+00  0.000000000E+00 -7.865408897E+01  7.865408897E+01  0.000000000E+00  0.00000E+00  9.000E+00
      25     1     1     2     0     0  2.219967782E+02 -1.669096926E+02  5.633048605E+02  6.403739383E+02  1.250000000E+02  0.00000E+00  9.000E+00
      25     1     1     2     0     0 -2.394876184E+02  1.852094495E+02  6.308446782E+02  7.108071943E+02  1.250000000E+02  0.00000E+00  9.000E+00
       2     1     1     2   501     0  1.749084011E+01 -1.829975689E+01  1.158299432E+03  1.158576016E+03  1.525878906E-05  0.00000E+00  9.000E+00
#rwgt            1           1 -0.45895629849891112                6       77452           0
</event>
<event>
      5   9999  3.79277E-02  1.40812E+02 -1.00000E+00  1.17492E-01
      21    -1     0     0   502   511  0.000000000E+00  0.000000000E+00  2.881015608E+02  2.881015608E+02  0.000000000E+00  0.00000E+00  9.000E+00
      21    -1     0     0   501   502  0.000000000E+00  0.000000000E+00 -3.492936407E+02  3.492936407E+02  0.000000000E+00  0.00000E+00  9.000E+00
      25     1     1     2     0     0  2.675769011E+01 -8.006241501E+01 -2.142811488E+02  2.620446050E+02  1.250000000E+02  0.00000E+00  9.000E+00
      25     1     1     2     0     0  4.003805988E+01 -4.389906305E+01 -3.271579014E+01  1.422163735E+02  1.250000000E+02  0.00000E+00  9.000E+00
      21     1     1     2   501   511 -6.679574999E+01  1.239614781E+02  1.858048590E+02  2.331342229E+02  2.697398305E-06  0.00000E+00  9.000E+00
#rwgt            2          11   8.7362323010361208E-004           6       77763           0
</event>
<event>
      5   9999  3.79277E-02  3.24850E+01 -1.00000E+00  1.50677E-01
      21    -1     0     0   502   512  0.000000000E+00  0.000000000E+00  1.057496264E+02  1.057496264E+02  0.000000000E+00  0.00000E+00  9.000E+00
      21    -1     0     0   501   502  0.000000000E+00  0.000000000E+00 -5.487640826E+02  5.487640826E+02  0.000000000E+00  0.00000E+00  9.000E+00
      25     1     1     2     0     0 -3.339788862E+00  1.579736771E+01 -4.727443151E+02  4.892574971E+02  1.250000000E+02  0.00000E+00  9.000E+00
      25     1     1     2     0     0  2.238604465E+01  1.051828994E+01  1.134014789E+01  1.279271995E+02  1.250000000E+02  0.00000E+00  9.000E+00
      21     1     1     2   501   512 -1.904625579E+01 -2.631565765E+01  1.838971099E+01  3.732901240E+01  4.768371582E-07  0.00000E+00  9.000E+00
#rwgt            1           1   3.6577501768470765E-002           6       77798           0
</event>
<event>
      5   9999  3.79277E-02  2.33654E+02 -1.00000E+00  1.09243E-01
       2    -1     0     0   502     0  0.000000000E+00  0.000000000E+00  1.938126551E+03  1.938126551E+03  0.000000000E+00  0.00000E+00  9.000E+00
      21    -1     0     0   501   502  0.000000000E+00  0.000000000E+00 -5.334601012E+02  5.334601012E+02  0.000000000E+00  0.00000E+00  9.000E+00
      25     1     1     2     0     0 -3.060132865E+01  2.440523549E+02 -4.436796073E+02  5.224696998E+02  1.250000000E+02  0.00000E+00  9.000E+00
      25     1     1     2     0     0  4.224977627E+01 -1.068917755E+01  5.960401457E+01  1.451789953E+02  1.250000000E+02  0.00000E+00  9.000E+00
       2     1     1     2   501     0 -1.164844762E+01 -2.333631774E+02  1.788742042E+03  1.803937957E+03  0.000000000E+00  0.00000E+00  9.000E+00
#rwgt            1           1   3.6226308715344699E-002           6       77993           0
</event>
<event>
      5   9999  3.79277E-02  1.05436E+02 -1.00000E+00  1.22803E-01
      21    -1     0     0   502   501  0.000000000E+00  0.000000000E+00  1.122316810E+03  1.122316810E+03  0.000000000E+00  0.00000E+00  9.000E+00
       4    -1     0     0   501     0  0.000000000E+00  0.000000000E+00 -1.390651336E+02  1.390651336E+02  0.000000000E+00  0.00000E+00  9.000E+00
      25     1     1     2     0     0  6.669407813E+01 -6.809860649E+01  7.756839194E+02  7.914518704E+02  1.250000000E+02  0.00000E+00  9.000E+00
      25     1     1     2     0     0 -1.342227308E+01  1.590863324E+02  2.772976581E+02  3.435223570E+02  1.250000000E+02  0.00000E+00  9.000E+00
       4     1     1     2   502     0 -5.327180505E+01 -9.098772591E+01 -6.972990153E+01  1.264077159E+02  1.907348633E-06  0.00000E+00  9.000E+00
#rwgt            1           1   4.8008828719360359E-002           6       78032           0
</event>
<event>
      5   9999  3.79277E-02  5.87317E+01 -1.00000E+00  1.35201E-01
      21    -1     0     0   502   501  0.000000000E+00  0.000000000E+00  1.592368649E+03  1.592368649E+03  0.000000000E+00  0.00000E+00  9.000E+00
      21    -1     0     0   501   511  0.000000000E+00  0.000000000E+00 -4.635852310E+01  4.635852310E+01  0.000000000E+00  0.00000E+00  9.000E+00
      25     1     1     2     0     0 -6.722256883E+01 -2.043352287E+02  5.093663183E+02  5.668781224E+02  1.250000000E+02  0.00000E+00  9.000E+00
      25     1     1     2     0     0  6.182834972E+01  1.458517415E+02  9.120434518E+02  9.341004942E+02  1.250000000E+02  0.00000E+00  9.000E+00
      21     1     1     2   502   511  5.394219114E+00  5.848348726E+01  1.246003562E+02  1.377485559E+02  1.907348633E-06  0.00000E+00  9.000E+00
#rwgt            1           1   3.2872609729867115E-002           6       78172           0
</event>
<event>
      5   9999  3.79277E-02  5.85302E+01 -1.00000E+00  1.35282E-01
      21    -1     0     0   502   501  0.000000000E+00  0.000000000E+00  1.170912584E+02  1.170912584E+02  0.000000000E+00  0.00000E+00  9.000E+00
      21    -1     0     0   501   512  0.000000000E+00  0.000000000E+00 -5.321120335E+02  5.321120335E+02  0.000000000E+00  0.00000E+00  9.000E+00
      25     1     1     2     0     0 -8.469552521E+01  2.599632019E+01  9.421626183E+00  1.535021423E+02  1.250000000E+02  0.00000E+00  9.000E+00
      25     1     1     2     0     0  1.199904356E+02  2.069470355E+01 -2.081029242E+02  2.715838774E+02  1.250000000E+02  0.00000E+00  9.000E+00
      21     1     1     2   502   512 -3.529491035E+01 -4.669102374E+01 -2.163394770E+02  2.241172723E+02  2.697398305E-06  0.00000E+00  9.000E+00
#rwgt            1           1   1.0819415510449114E-002           6       78326           0
</event>
<event>
      5   9999  3.79277E-02  3.60956E+01 -1.00000E+00  1.47662E-01
      21    -1     0     0   502   501  0.000000000E+00  0.000000000E+00  8.167536824E+02  8.167536824E+02  0.000000000E+00  0.00000E+00  9.000E+00
      21    -1     0     0   501   511  0.000000000E+00  0.000000000E+00 -2.281016692E+02  2.281016692E+02  0.000000000E+00  0.00000E+00  9.000E+00
      25     1     1     2     0     0 -1.988651322E+02 -5.922348790E+01  6.069457429E+02  6.535004952E+02  1.250000000E+02  0.00000E+00  9.000E+00
      25     1     1     2     0     0  1.701617871E+02  3.733721437E+01  1.218617270E+02  2.466259959E+02  1.250000000E+02  0.00000E+00  9.000E+00
      21     1     1     2   502   511  2.870334512E+01  2.188627354E+01 -1.401554567E+02  1.447288604E+02  2.697398305E-06  0.00000E+00  9.000E+00
#rwgt            1           1  0.22041754325581403                6       78445           0
</event>
<event>
      5   9999  3.79277E-02  3.16748E+01 -1.00000E+00  1.51419E-01
      21    -1     0     0   502   501  0.000000000E+00  0.000000000E+00  8.509098269E+02  8.509098269E+02  0.000000000E+00  0.00000E+00  9.000E+00
      21    -1     0     0   501   512  0.000000000E+00  0.000000000E+00 -1.890542028E+02  1.890542028E+02  0.000000000E+00  0.00000E+00  9.000E+00
      25     1     1     2     0     0 -1.519962279E+02  2.562752671E+02  2.957782137E+02  4.380520717E+02  1.250000000E+02  0.00000E+00  9.000E+00
      25     1     1     2     0     0  1.802762982E+02 -2.705416565E+02  4.161407984E+02  5.426697851E+02  1.250000000E+02  0.00000E+00  9.000E+00
      21     1     1     2   502   512 -2.828007023E+01  1.426638943E+01 -5.006338794E+01  5.924217291E+01  1.507891493E-06  0.00000E+00  9.000E+00
#rwgt            1           1   3.1142839116399028E-002           6       78638           0
</event>
<event>
      5   9999  3.79277E-02  2.75218E+01 -1.00000E+00  1.55687E-01
      21    -1     0     0   511   501  0.000000000E+00  0.000000000E+00  9.138452988E+02  9.138452988E+02  0.000000000E+00  0.00000E+00  9.000E+00
      21    -1     0     0   501   502  0.000000000E+00  0.000000000E+00 -9.357497659E+01  9.357497659E+01  0.000000000E+00  0.00000E+00  9.000E+00
      25     1     1     2     0     0  4.985980214E+01  1.307367317E+02  3.187462988E+01  1.903131233E+02  1.250000000E+02  0.00000E+00  9.000E+00
      25     1     1     2     0     0 -6.822896870E+01 -1.102422571E+02  7.383165576E+02  7.599637403E+02  1.250000000E+02  0.00000E+00  9.000E+00
      21     1     1     2   511   502  1.836916656E+01 -2.049447453E+01  5.007913477E+01  5.714341174E+01  9.536743164E-07  0.00000E+00  9.000E+00
#rwgt            1           1   3.7984700005109645E-002           6       78903           0
</event>
<event>
      5   9999  3.79277E-02  1.02987E+01 -1.00000E+00  1.94291E-01
      21    -1     0     0   502   512  0.000000000E+00  0.000000000E+00  1.353320099E+02  1.353320099E+02  0.000000000E+00  0.00000E+00  9.000E+00
      21    -1     0     0   501   502  0.000000000E+00  0.000000000E+00 -5.153408222E+02  5.153408222E+02  0.000000000E+00  0.00000E+00  9.000E+00
      25     1     1     2     0     0 -1.486238253E+02 -1.346021725E+02 -5.999225797E+01  2.437844485E+02  1.250000000E+02  0.00000E+00  9.000E+00
      25     1     1     2     0     0  1.388466326E+02  1.378377868E+02 -3.214125922E+02  3.964955198E+02  1.250000000E+02  0.00000E+00  9.000E+00
      21     1     1     2   501   512  9.777192664E+00 -3.235614247E+00  1.396037915E+00  1.039286379E+01  7.598131170E-08  0.00000E+00  9.000E+00
#rwgt            1           1   3.4391561898071230E-002           6       78986           0
</event>
<event>
      5   9999  3.79277E-02  2.91183E+01 -1.00000E+00  1.53945E-01
      21    -1     0     0   502   501  0.000000000E+00  0.000000000E+00  4.035112271E+01  4.035112271E+01  0.000000000E+00  0.00000E+00  9.000E+00
       1    -1     0     0   501     0  0.000000000E+00  0.000000000E+00 -2.091572534E+03  2.091572534E+03  0.000000000E+00  0.00000E+00  9.000E+00
      25     1     1     2     0     0 -8.103660375E+01 -1.790690159E+02 -5.381464885E+02  5.863951625E+02  1.250000000E+02  0.00000E+00  9.000E+00
      25     1     1     2     0     0  7.840182632E+01  1.500701244E+02 -6.772619655E+02  7.092084733E+02  1.250000000E+02  0.00000E+00  9.000E+00
       1     1     1     2   502     0  2.634777427E+00  2.899889154E+01 -8.358129573E+02  8.363200209E+02  0.000000000E+00  0.00000E+00  9.000E+00
#rwgt            1           1   4.6505676348686270E-002           6       79382           0
</event>
<event>
      5   9999  3.79277E-02  6.19415E+00 -1.00000E+00  2.23345E-01
      21    -1     0     0   502   501  0.000000000E+00  0.000000000E+00  9.275692067E+01  9.275692067E+01  0.000000000E+00  0.00000E+00  9.000E+00
      21    -1     0     0   511   502  0.000000000E+00  0.000000000E+00 -7.492774672E+02  7.492774672E+02  0.000000000E+00  0.00000E+00  9.000E+00
      25     1     1     2     0     0  4.630009637E+01 -1.972575433E+02 -2.100302559E+02  3.174774728E+02  1.250000000E+02  0.00000E+00  9.000E+00
      25     1     1     2     0     0 -4.463482501E+01  1.912914380E+02 -3.088584475E+02  3.867857578E+02  1.250000000E+02  0.00000E+00  9.000E+00
      21     1     1     2   511   501 -1.665271363E+00  5.966105388E+00 -1.376318431E+02  1.377711573E+02  1.907348633E-06  0.00000E+00  9.000E+00
#rwgt            1           1   2.8194869308495785E-002           6       79604           0
</event>
<event>
      5   9999  3.79277E-02  6.10663E+01 -1.00000E+00  1.34296E-01
      21    -1     0     0   502   501  0.000000000E+00  0.000000000E+00  6.201281643E+02  6.201281643E+02  0.000000000E+00  0.00000E+00  9.000E+00
      21    -1     0     0   512   502  0.000000000E+00  0.000000000E+00 -1.466468863E+02  1.466468863E+02  0.000000000E+00  0.00000E+00  9.000E+00
      25     1     1     2     0     0  2.999550142E+01  1.312553629E+02  7.525719064E+01  1.985355009E+02  1.250000000E+02  0.00000E+00  9.000E+00
      25     1     1     2     0     0 -3.595737964E+01 -7.048078688E+01  4.588988387E+02  4.821551811E+02  1.250000000E+02  0.00000E+00  9.000E+00
      21     1     1     2   512   501  5.961878212E+00 -6.077457598E+01 -6.067475137E+01  8.608436868E+01  1.907348633E-06  0.00000E+00  9.000E+00
#rwgt            1           1   3.6031066146693790E-002           6       79920           0
</event>
<event>
      5   9999  3.79277E-02  1.39921E+02 -1.00000E+00  1.17604E-01
      21    -1     0     0   511   501  0.000000000E+00  0.000000000E+00  6.052488195E+01  6.052488195E+01  0.000000000E+00  0.00000E+00  9.000E+00
      21    -1     0     0   501   502  0.000000000E+00  0.000000000E+00 -1.078480095E+03  1.078480095E+03  0.000000000E+00  0.00000E+00  9.000E+00
      25     1     1     2     0     0 -7.442197748E+01 -1.870200125E+01 -3.263880886E+02  3.578303788E+02  1.250000000E+02  0.00000E+00  9.000E+00
      25     1     1     2     0     0  1.557569769E+02 -9.515101047E+01 -4.639016823E+02  5.139491429E+02  1.250000000E+02  0.00000E+00  9.000E+00
      21     1     1     2   511   502 -8.133499941E+01  1.138530117E+02 -2.276654421E+02  2.672254553E+02  0.000000000E+00  0.00000E+00  9.000E+00
#rwgt            1           1   4.1925537065990406E-002           6       79988           0
</event>
<event>
      5   9999  3.79277E-02  1.71933E+01 -1.00000E+00  1.71976E-01
      21    -1     0     0   502   512  0.000000000E+00  0.000000000E+00  6.394784420E+02  6.394784420E+02  0.000000000E+00  0.00000E+00  9.000E+00
      21    -1     0     0   501   502  0.000000000E+00  0.000000000E+00 -1.728235423E+02  1.728235423E+02  0.000000000E+00  0.00000E+00  9.000E+00
      25     1     1     2     0     0  4.066319027E+01  2.180195636E+02  8.859404008E-01  2.545816373E+02  1.250000000E+02  0.00000E+00  9.000E+00
      25     1     1     2     0     0 -4.320781735E+01 -2.350234950E+02  3.560043957E+02  4.466173848E+02  1.250000000E+02  0.00000E+00  9.000E+00
      21     1     1     2   501   512  2.544627079E+00  1.700393139E+01  1.097645636E+02  1.111029623E+02  1.348699152E-06  0.00000E+00  9.000E+00
#rwgt            1           1   4.1830031679469290E-002           6       80093           0
</event>
<event>
      5   9999  3.79277E-02  3.23632E+01 -1.00000E+00  1.50787E-01
      21    -1     0     0   502   511  0.000000000E+00  0.000000000E+00  2.759107657E+02  2.759107657E+02  0.000000000E+00  0.00000E+00  9.000E+00
      21    -1     0     0   501   502  0.000000000E+00  0.000000000E+00 -4.261694614E+02  4.261694614E+02  0.000000000E+00  0.00000E+00  9.000E+00
      25     1     1     2     0     0 -7.382202998E+01 -1.356368863E+02 -3.264313987E+02  3.821380838E+02  1.250000000E+02  0.00000E+00  9.000E+00
      25     1     1     2     0     0  5.638869830E+01  1.629032344E+02  9.618031547E+01  2.336510264E+02  1.250000000E+02  0.00000E+00  9.000E+00
      21     1     1     2   501   511  1.743333168E+01 -2.726634802E+01  7.999238753E+01  8.629111687E+01  1.651812370E-06  0.00000E+00  9.000E+00
#rwgt            1           1   2.8388948138665240E-002           6       80362           0
</event>
<event>
      5   9999  3.79277E-02  2.36845E+01 -1.00000E+00  1.60530E-01
       1    -1     0     0   502     0  0.000000000E+00  0.000000000E+00  6.166404585E+02  6.166404585E+02  0.000000000E+00  0.00000E+00  9.000E+00
      21    -1     0     0   501   502  0.000000000E+00  0.000000000E+00 -1.424549489E+02  1.424549489E+02  0.000000000E+00  0.00000E+00  9.000E+00
      25     1     1     2     0     0 -4.048329289E+01 -2.197484922E+02  3.229806091E+02  4.121526061E+02  1.250000000E+02  0.00000E+00  9.000E+00
      25     1     1     2     0     0  6.187051662E+01  2.299240615E+02  9.374233866E+01  2.847905563E+02  1.250000000E+02  0.00000E+00  9.000E+00
       1     1     1     2   501     0 -2.138722373E+01 -1.017556933E+01  5.746256179E+01  6.215224499E+01  6.743495762E-07  0.00000E+00  9.000E+00
#rwgt            1           1   3.6476091332385711E-002           6       80570           0
</event>
<event>
      5   9999  3.79277E-02  1.18727E+02 -1.00000E+00  1.20565E-01
      21    -1     0     0   502   501  0.000000000E+00  0.000000000E+00  1.032581687E+02  1.032581687E+02  0.000000000E+00  0.00000E+00  9.000E+00
      21    -1     0     0   501   511  0.000000000E+00  0.000000000E+00 -5.418919763E+02  5.418919763E+02  0.000000000E+00  0.00000E+00  9.000E+00
      25     1     1     2     0     0  9.909426041E+00  6.870675511E+01 -1.387261083E+02  1.992203505E+02  1.250000000E+02  0.00000E+00  9.000E+00
      25     1     1     2     0     0 -1.184424841E+02 -2.057489061E+01 -6.970000885E+01  1.869091742E+02  1.250000000E+02  0.00000E+00  9.000E+00
      21     1     1     2   502   511  1.085330580E+02 -4.813186450E+01 -2.302076904E+02  2.590206204E+02  2.697398305E-06  0.00000E+00  9.000E+00
#rwgt            1           1  0.12365971928156710                6       80763           0
</event>
<event>
      5   9999  3.79277E-02  1.40796E+02 -1.00000E+00  1.17494E-01
       2    -1     0     0   502     0  0.000000000E+00  0.000000000E+00  2.482937801E+03  2.482937801E+03  0.000000000E+00  0.00000E+00  9.000E+00
      21    -1     0     0   501   502  0.000000000E+00  0.000000000E+00 -4.182452368E+01  4.182452368E+01  0.000000000E+00  0.00000E+00  9.000E+00
      25     1     1     2     0     0 -4.309665207E+01  8.735377449E+01  5.014527324E+02  5.258971821E+02  1.250000000E+02  0.00000E+00  9.000E+00
      25     1     1     2     0     0 -9.645328427E+01 -6.866010676E+01  2.511672178E+02  3.045117692E+02  1.250000000E+02  0.00000E+00  9.000E+00
       2     1     1     2   501     0  1.395499363E+02 -1.869366773E+01  1.688493327E+03  1.694353374E+03  2.157918644E-05  0.00000E+00  9.000E+00
#rwgt            1           1   5.0069428811487258E-002           6       80809           0
</event>
<event>
      5   9999  3.79277E-02  6.15440E+00 -1.00000E+00  2.23772E-01
      21    -1     0     0   502   501  0.000000000E+00  0.000000000E+00  5.502160064E+02  5.502160064E+02  0.000000000E+00  0.00000E+00  9.000E+00
      21    -1     0     0   501   511  0.000000000E+00  0.000000000E+00 -1.156336378E+02  1.156336378E+02  0.000000000E+00  0.00000E+00  9.000E+00
      25     1     1     2     0     0  1.509239807E+02  1.282362095E+02  1.114431090E+02  2.593590945E+02  1.250000000E+02  0.00000E+00  9.000E+00
      25     1     1     2     0     0 -1.568398260E+02 -1.265393130E+02  3.225006068E+02  4.003030979E+02  1.250000000E+02  0.00000E+00  9.000E+00
      21     1     1     2   502   511  5.915845301E+00 -1.696896551E+00  6.386527805E-01  6.187451891E+00  1.215152922E-07  0.00000E+00  9.000E+00
#rwgt            1           1   4.6940632624741338E-002           6       80992           0
</event>
<event>
      5   9999  3.79277E-02  2.72056E+01 -1.00000E+00  1.56049E-01
      21    -1     0     0   502   512  0.000000000E+00  0.000000000E+00  1.954938436E+02  1.954938436E+02  0.000000000E+00  0.00000E+00  9.000E+00
      21    -1     0     0   501   502  0.000000000E+00  0.000000000E+00 -4.483680175E+02  4.483680175E+02  0.000000000E+00  0.00000E+00  9.000E+00
      25     1     1     2     0     0  9.456987198E+01 -8.805691334E+01 -1.465960446E+02  2.319760353E+02  1.250000000E+02  0.00000E+00  9.000E+00
      25     1     1     2     0     0 -7.039724929E+01  1.005401630E+02 -2.277915916E+02  2.873640658E+02  1.250000000E+02  0.00000E+00  9.000E+00
      21     1     1     2   501   512 -2.417262269E+01 -1.248324970E+01  1.215134622E+02  1.245217600E+02  2.336015456E-06  0.00000E+00  9.000E+00
#rwgt            1           1   3.0549171929533901E-002           6       81504           0
</event>
<event>
      5   9999  3.79277E-02  1.79280E+01 -1.00000E+00  1.70386E-01
      21    -1     0     0   502   501  0.000000000E+00  0.000000000E+00  3.034795530E+02  3.034795530E+02  0.000000000E+00  0.00000E+00  9.000E+00
      21    -1     0     0   511   502  0.000000000E+00  0.000000000E+00 -2.795175078E+02  2.795175078E+02  0.000000000E+00  0.00000E+00  9.000E+00
      25     1     1     2     0     0 -9.624546385E+01  6.001887547E+00 -8.791975380E+01  1.807044412E+02  1.250000000E+02  0.00000E+00  9.000E+00
      25     1     1     2     0     0  7.926715909E+01 -2.443084776E-01  2.350801109E+02  2.777966896E+02  1.250000000E+02  0.00000E+00  9.000E+00
      21     1     1     2   511   501  1.697830476E+01 -5.757579069E+00 -1.231983119E+02  1.244959301E+02  2.336015456E-06  0.00000E+00  9.000E+00
#rwgt            1           1   5.2399608895294637E-002           6       81714           0
</event>
<event>
      5   9999  3.79277E-02  5.04913E+01 -1.00000E+00  1.38834E-01
      21    -1     0     0   502   501  0.000000000E+00  0.000000000E+00  4.212158446E+02  4.212158446E+02  0.000000000E+00  0.00000E+00  9.000E+00
       1    -1     0     0   501     0  0.000000000E+00  0.000000000E+00 -6.024050314E+02  6.024050314E+02  0.000000000E+00  0.00000E+00  9.000E+00
      25     1     1     2     0     0 -2.870910859E+02  1.199412860E+02  2.338550163E+02  4.088035865E+02  1.250000000E+02  0.00000E+00  9.000E+00
      25     1     1     2     0     0  2.864551082E+02 -1.704285444E+02 -2.319437550E+02  4.248827171E+02  1.250000000E+02  0.00000E+00  9.000E+00
       1     1     1     2   502     0  6.359776696E-01  5.048725833E+01 -1.831004480E+02  1.899345724E+02  0.000000000E+00  0.00000E+00  9.000E+00
#rwgt            1           1   3.7639405997115127E-002           6       81950           0
</event>
<event>
      5   9999  3.79277E-02  2.98519E+01 -1.00000E+00  1.53189E-01
       5    -1     0     0   502     0  0.000000000E+00  0.000000000E+00  1.453398403E+03  1.453398403E+03  0.000000000E+00  0.00000E+00  9.000E+00
      21    -1     0     0   501   502  0.000000000E+00  0.000000000E+00 -6.383447110E+01  6.383447110E+01  0.000000000E+00  0.00000E+00  9.000E+00
      25     1     1     2     0     0  1.048757945E+02 -2.275589169E+01  1.098637470E+02  1.980197106E+02  1.250000000E+02  0.00000E+00  9.000E+00
      25     1     1     2     0     0 -7.850492528E+01  3.674554206E+01  2.765867922E+02  3.156556855E+02  1.250000000E+02  0.00000E+00  9.000E+00
       5     1     1     2   501     0 -2.637086922E+01 -1.398965037E+01  1.003113393E+03  1.003557479E+03  1.078959322E-05  0.00000E+00  9.000E+00
#rwgt            1           1   3.8769934781334933E-002           6       82163           0
</event>
<event>
      5   9999  3.79277E-02  6.09916E+01 -1.00000E+00  1.34324E-01
      21    -1     0     0   502   511  0.000000000E+00  0.000000000E+00  1.029328305E+03  1.029328305E+03  0.000000000E+00  0.00000E+00  9.000E+00
      21    -1     0     0   501   502  0.000000000E+00  0.000000000E+00 -1.042052016E+02  1.042052016E+02  0.000000000E+00  0.00000E+00  9.000E+00
      25     1     1     2     0     0  1.876132390E+02  1.187443780E+02  2.466031898E+02  3.545942582E+02  1.250000000E+02  0.00000E+00  9.000E+00
      25     1     1     2     0     0 -1.427096775E+02 -1.600196440E+02  2.733808657E+02  3.692349337E+02  1.250000000E+02  0.00000E+00  9.000E+00
      21     1     1     2   501   511 -4.490356147E+01  4.127526599E+01  4.051390482E+02  4.097043151E+02  0.000000000E+00  0.00000E+00  9.000E+00
#rwgt            1           1  0.13249965589149773                6       82272           0
</event>
<event>
      5   9999  3.79277E-02  1.19692E+02 -1.00000E+00  1.20416E-01
      21    -1     0     0   502   501  0.000000000E+00  0.000000000E+00  4.347287570E+02  4.347287570E+02  0.000000000E+00  0.00000E+00  9.000E+00
      21    -1     0     0   501   512  0.000000000E+00  0.000000000E+00 -1.858954938E+03  1.858954938E+03  0.000000000E+00  0.00000E+00  9.000E+00
      25     1     1     2     0     0  5.513831378E+02 -4.278687731E+02 -3.041485110E+01  7.096795860E+02  1.250000000E+02  0.00000E+00  9.000E+00
      25     1     1     2     0     0 -4.949320645E+02  3.223251402E+02 -9.605915267E+02  1.134553800E+03  1.250000000E+02  0.00000E+00  9.000E+00
      21     1     1     2   502   512 -5.645107331E+01  1.055436329E+02 -4.332198033E+02  4.494503088E+02  5.394796609E-06  0.00000E+00  9.000E+00
#rwgt            1           1   8.4688284294082740E-003           6       82380           0
</event>
<event>
      5   9999  3.79277E-02  5.64323E+01 -1.00000E+00  1.36142E-01
      21    -1     0     0   511   501  0.000000000E+00  0.000000000E+00  2.207988024E+02  2.207988024E+02  0.000000000E+00  0.00000E+00  9.000E+00
      21    -1     0     0   501   502  0.000000000E+00  0.000000000E+00 -5.372052598E+02  5.372052598E+02  0.000000000E+00  0.00000E+00  9.000E+00
      25     1     1     2     0     0 -5.439585117E+01  2.832868122E+02 -2.811180744E+02  4.217377127E+02  1.250000000E+02  0.00000E+00  9.000E+00
      25     1     1     2     0     0  1.032701980E+01 -2.480370849E+02 -3.105091456E+01  2.796751725E+02  1.250000000E+02  0.00000E+00  9.000E+00
      21     1     1     2   511   502  4.406883137E+01 -3.524972723E+01 -4.237468513E+00  5.659117695E+01  1.293571854E-06  0.00000E+00  9.000E+00
#rwgt            1           1   2.7153604737239552E-002           6       82550           0
</event>
<event>
      5   9999  3.79277E-02  3.76533E+01 -1.00000E+00  1.46488E-01
      21    -1     0     0   512   501  0.000000000E+00  0.000000000E+00  2.751975573E+02  2.751975573E+02  0.000000000E+00  0.00000E+00  9.000E+00
      21    -1     0     0   501   502  0.000000000E+00  0.000000000E+00 -3.166949921E+02  3.166949921E+02  0.000000000E+00  0.00000E+00  9.000E+00
      25     1     1     2     0     0 -2.190190522E+02 -6.005710035E+01  2.705498644E+01  2.606399295E+02  1.250000000E+02  0.00000E+00  9.000E+00
      25     1     1     2     0     0  1.902978347E+02  3.570825451E+01 -1.259290928E+02  2.626242215E+02  1.250000000E+02  0.00000E+00  9.000E+00
      21     1     1     2   512   502  2.872121757E+01  2.434884584E+01  5.737667156E+01  6.862839843E+01  6.743495762E-07  0.00000E+00  9.000E+00
#rwgt            1           1   1.5928820364473947E-002           6       82628           0
</event>
<event>
      5   9999  3.79277E-02  6.42251E+01 -1.00000E+00  1.33143E-01
      21    -1     0     0   502   501  0.000000000E+00  0.000000000E+00  5.719340212E+02  5.719340212E+02  0.000000000E+00  0.00000E+00  9.000E+00
      21    -1     0     0   511   502  0.000000000E+00  0.000000000E+00 -1.059187214E+02  1.059187214E+02  0.000000000E+00  0.00000E+00  9.000E+00
      25     1     1     2     0     0  1.418622644E+02 -8.325930214E+01  1.328828024E+02  2.456417159E+02  1.250000000E+02  0.00000E+00  9.000E+00
      25     1     1     2     0     0 -1.466977088E+02  1.921651201E+01  3.067443047E+02  3.627761852E+02  1.250000000E+02  0.00000E+00  9.000E+00
      21     1     1     2   511   501  4.835444463E+00  6.404279013E+01  2.638819272E+01  6.943484143E+01  1.118282261E-06  0.00000E+00  9.000E+00
#rwgt            1           1   3.7611486610383500E-002           6       82887           0
</event>
<event>
      5   9999  3.79277E-02  5.15586E+01 -1.00000E+00  1.38319E-01
      21    -1     0     0   502   501  0.000000000E+00  0.000000000E+00  1.860130852E+02  1.860130852E+02  0.000000000E+00  0.00000E+00  9.000E+00
      21    -1     0     0   501   512  0.000000000E+00  0.000000000E+00 -3.183021897E+02  3.183021897E+02  0.000000000E+00  0.00000E+00  9.000E+00
      25     1     1     2     0     0 -7.467424335E+00 -1.179457050E+02 -1.314170388E+01  1.725243639E+02  1.250000000E+02  0.00000E+00  9.000E+00
      25     1     1     2     0     0  1.224320659E+01  1.692826797E+02 -9.937309390E+00  2.110219701E+02  1.250000000E+02  0.00000E+00  9.000E+00
      21     1     1     2   502   512 -4.775782255E+00 -5.133697475E+01 -1.092100912E+02  1.207689409E+02  0.000000000E+00  0.00000E+00  9.000E+00
#rwgt            1           1  0.11571635277170600                6       82968           0
</event>
<event>
      5   9999  3.79277E-02  9.15614E+01 -1.00000E+00  1.25575E-01
       1    -1     0     0   502     0  0.000000000E+00  0.000000000E+00  4.785416827E+02  4.785416827E+02  0.000000000E+00  0.00000E+00  9.000E+00
      21    -1     0     0   501   502  0.000000000E+00  0.000000000E+00 -1.431705089E+02  1.431705089E+02  0.000000000E+00  0.00000E+00  9.000E+00
      25     1     1     2     0     0  1.140278385E+02 -5.328647067E+01  1.480464847E+02  2.310509847E+02  1.250000000E+02  0.00000E+00  9.000E+00
      25     1     1     2     0     0 -1.857696205E+02  1.101777223E+02  1.539043912E+02  2.931911391E+02  1.250000000E+02  0.00000E+00  9.000E+00
       1     1     1     2   501     0  7.174178205E+01 -5.689125166E+01  3.342029786E+01  9.747006779E+01  9.536743164E-07  0.00000E+00  9.000E+00
#rwgt            1           1   3.1223654790591773E-002           6       83103           0
</event>
<event>
      5   9999  3.79277E-02  1.61582E+02 -1.00000E+00  1.15128E-01
      21    -1     0     0   502   501  0.000000000E+00  0.000000000E+00  4.446648207E+02  4.446648207E+02  0.000000000E+00  0.00000E+00  9.000E+00
      21    -1     0     0   501   511  0.000000000E+00  0.000000000E+00 -2.605496144E+02  2.605496144E+02  0.000000000E+00  0.00000E+00  9.000E+00
      25     1     1     2     0     0 -3.866586481E+01  1.008538231E+01  3.988485437E+01  1.371589066E+02  1.250000000E+02  0.00000E+00  9.000E+00
      25     1     1     2     0     0 -1.226000594E+02 -2.018911626E+01  2.972130136E+02  3.455415322E+02  1.250000000E+02  0.00000E+00  9.000E+00
      21     1     1     2   502   511  1.612659243E+02  1.010373395E+01 -1.529826617E+02  2.225139963E+02  1.907348633E-06  0.00000E+00  9.000E+00
#rwgt            1           1   1.6916377743552143E-002           6       83192           0
</event>
<event>
      5   9999  3.79277E-02  7.38526E+01 -1.00000E+00  1.30053E-01
      21    -1     0     0   502   501  0.000000000E+00  0.000000000E+00  1.171570397E+02  1.171570397E+02  0.000000000E+00  0.00000E+00  9.000E+00
      21    -1     0     0   501   512  0.000000000E+00  0.000000000E+00 -4.171830297E+02  4.171830297E+02  0.000000000E+00  0.00000E+00  9.000E+00
      25     1     1     2     0     0  1.023572863E+02 -1.089799888E+02 -1.129817836E+02  2.252632581E+02  1.250000000E+02  0.00000E+00  9.000E+00
      25     1     1     2     0     0 -1.126745281E+02  3.585156351E+01 -1.355834347E+02  2.190633507E+02  1.250000000E+02  0.00000E+00  9.000E+00
      21     1     1     2   502   512  1.031724171E+01  7.312842530E+01 -5.146077165E+01  9.001346056E+01  0.000000000E+00  0.00000E+00  9.000E+00
#rwgt            1           1   4.2183208235255586E-002           6       83352           0
</event>
<event>
      5   9999  3.79277E-02  3.72561E+01 -1.00000E+00  1.46781E-01
      21    -1     0     0   502   511  0.000000000E+00  0.000000000E+00  7.429291940E+01  7.429291940E+01  0.000000000E+00  0.00000E+00  9.000E+00
      21    -1     0     0   501   502  0.000000000E+00  0.000000000E+00 -6.309675233E+02  6.309675233E+02  0.000000000E+00  0.00000E+00  9.000E+00
      25     1     1     2     0     0 -1.162741856E+02  8.095360257E+01 -3.250119771E+02  3.759400980E+02  1.250000000E+02  0.00000E+00  9.000E+00
      25     1     1     2     0     0  8.797839354E+01 -1.051891662E+02 -2.247149919E+02  2.914220067E+02  1.250000000E+02  0.00000E+00  9.000E+00
      21     1     1     2   501   511  2.829579205E+01  2.423556362E+01 -6.947634866E+00  3.789833799E+01  3.039252468E-07  0.00000E+00  9.000E+00
#rwgt            1           1   4.0409024753232534E-002           6       83548           0
</event>
<event>
      5   9999  3.79277E-02  9.65623E+01 -1.00000E+00  1.24515E-01
      21    -1     0     0   502   512  0.000000000E+00  0.000000000E+00  5.652024100E+02  5.652024100E+02  0.000000000E+00  0.00000E+00  9.000E+00
      21    -1     0     0   501   502  0.000000000E+00  0.000000000E+00 -2.488426832E+02  2.488426832E+02  0.000000000E+00  0.00000E+00  9.000E+00
      25     1     1     2     0     0  1.377280488E+01  5.661338302E+01  3.667715279E+01  1.427059173E+02  1.250000000E+02  0.00000E+00  9.000E+00
      25     1     1     2     0     0 -4.323336659E+01  3.534508470E+01 -1.660817291E+02  2.152360094E+02  1.250000000E+02  0.00000E+00  9.000E+00
      21     1     1     2   501   512  2.946056170E+01 -9.195846772E+01  4.457643031E+02  4.561031664E+02  7.629394531E-06  0.00000E+00  9.000E+00
#rwgt            1           1   5.4137759248084547E-002           6       83900           0
</event>
<event>
      5   9999  3.79277E-02  9.55603E+01 -1.00000E+00  1.24722E-01
      21    -1     0     0   502   501  0.000000000E+00  0.000000000E+00  5.536185235E+02  5.536185235E+02  0.000000000E+00  0.00000E+00  9.000E+00
      21    -1     0     0   501   511  0.000000000E+00  0.000000000E+00 -2.221852630E+02  2.221852630E+02  0.000000000E+00  0.00000E+00  9.000E+00
      25     1     1     2     0     0 -2.080414320E+02 -5.268022147E+01  2.848959190E+02  3.779512241E+02  1.250000000E+02  0.00000E+00  9.000E+00
      25     1     1     2     0     0  1.130201861E+02  4.254465995E+01  1.690628802E+02  2.424682825E+02  1.250000000E+02  0.00000E+00  9.000E+00
      21     1     1     2   502   511  9.502124586E+01  1.013556152E+01 -1.225255387E+02  1.553842798E+02  2.697398305E-06  0.00000E+00  9.000E+00
#rwgt            1           1   4.0354637517655903E-002           6       84007           0
</event>
<event>
      5   9999  3.79277E-02  4.34252E+01 -1.00000E+00  1.42661E-01
      21    -1     0     0   512   501  0.000000000E+00  0.000000000E+00  2.918475326E+02  2.918475326E+02  0.000000000E+00  0.00000E+00  9.000E+00
      21    -1     0     0   501   502  0.000000000E+00  0.000000000E+00 -1.511794416E+02  1.511794416E+02  0.000000000E+00  0.00000E+00  9.000E+00
      25     1     1     2     0     0 -2.906766208E+01  2.712574942E+00 -8.195112897E+01  1.522933833E+02  1.250000000E+02  0.00000E+00  9.000E+00
      25     1     1     2     0     0  6.515377938E+01 -2.686909409E+01  1.675048985E+02  2.205671195E+02  1.250000000E+02  0.00000E+00  9.000E+00
      21     1     1     2   512   502 -3.608611730E+01  2.415651915E+01  5.511432154E+01  7.016647147E+01  6.743495762E-07  0.00000E+00  9.000E+00
#rwgt            2          11   1.7018715826309086E-003           6       84079           0
</event>
<event>
      5   9999  3.79277E-02  6.55855E+01 -1.00000E+00  1.32670E-01
      21    -1     0     0   502   501  0.000000000E+00  0.000000000E+00  3.396320499E+02  3.396320499E+02  0.000000000E+00  0.00000E+00  9.000E+00
       1    -1     0     0   501     0  0.000000000E+00  0.000000000E+00 -2.162174252E+03  2.162174252E+03  0.000000000E+00  0.00000E+00  9.000E+00
      25     1     1     2     0     0 -1.062105702E+01 -5.609737526E+01  2.819976361E+02  3.136995204E+02  1.250000000E+02  0.00000E+00  9.000E+00
      25     1     1     2     0     0  4.818078232E+01  2.331923777E+00 -6.752822670E+01  1.500396183E+02  1.250000000E+02  0.00000E+00  9.000E+00
       1     1     1     2   502     0 -3.755972530E+01  5.376545148E+01 -2.037011612E+03  2.038067164E+03  3.737624730E-05  0.00000E+00  9.000E+00
#rwgt            1           1   3.4239152119737382E-002           6       84174           0
</event>
<event>
      5   9999 -3.79277E-02  2.89728E+01 -1.00000E+00  1.54098E-01
      21    -1     0     0   502   501  0.000000000E+00  0.000000000E+00  2.249687850E+02  2.249687850E+02  0.000000000E+00  0.00000E+00  9.000E+00
      21    -1     0     0   511   502  0.000000000E+00  0.000000000E+00 -2.088011461E+02  2.088011461E+02  0.000000000E+00  0.00000E+00  9.000E+00
      25     1     1     2     0     0 -6.321309787E+01  1.508186224E+02  2.581496235E+01  2.074453299E+02  1.250000000E+02  0.00000E+00  9.000E+00
      25     1     1     2     0     0  6.791152018E+01 -1.222293496E+02  1.518112857E+01  1.881686880E+02  1.250000000E+02  0.00000E+00  9.000E+00
      21     1     1     2   511   501 -4.698422311E+00 -2.858927280E+01 -2.482845195E+01  3.815591327E+01  6.743495762E-07  0.00000E+00  9.000E+00
#rwgt            1           1  -2.0094512323812069E-002           6       84246           0
</event>
<event>
      5   9999  3.79277E-02  1.26914E+01 -1.00000E+00  1.84506E-01
      21    -1     0     0   502   501  0.000000000E+00  0.000000000E+00  5.699600956E+01  5.699600956E+01  0.000000000E+00  0.00000E+00  9.000E+00
      21    -1     0     0   501   512  0.000000000E+00  0.000000000E+00 -1.034157169E+03  1.034157169E+03  0.000000000E+00  0.00000E+00  9.000E+00
      25     1     1     2     0     0 -1.041792448E+02 -8.269395723E+01 -1.950951246E+02  2.671679495E+02  1.250000000E+02  0.00000E+00  9.000E+00
      25     1     1     2     0     0  1.138150078E+02  9.095375932E+01 -4.210562377E+02  4.627524150E+02  1.250000000E+02  0.00000E+00  9.000E+00
      21     1     1     2   502   512 -9.635762930E+00 -8.259802085E+00 -3.610097968E+02  3.612328136E+02  3.814697266E-06  0.00000E+00  9.000E+00
#rwgt            1           1  0.10802864466765062                6       84361           0
</event>
<event>
      5   9999  3.79277E-02  2.74706E+01 -1.00000E+00  1.55745E-01
      -1    -1     0     0     0   501  0.000000000E+00  0.000000000E+00  6.788378687E+02  6.788378687E+02  0.000000000E+00  0.00000E+00  9.000E+00
      21    -1     0     0   501   502  0.000000000E+00  0.000000000E+00 -5.612502899E+01  5.612502899E+01  0.000000000E+00  0.00000E+00  9.000E+00
      25     1     1     2     0     0  5.565497183E+01 -7.604647812E+01  1.324105674E+02  2.050319514E+02  1.250000000E+02  0.00000E+00  9.000E+00
      25     1     1     2     0     0 -4.259704515E+01  1.002151514E+02  4.603447744E+02  4.892850868E+02  1.250000000E+02  0.00000E+00  9.000E+00
      -1     1     1     2     0   502 -1.305792668E+01 -2.416867326E+01  2.995749788E+01  4.064585951E+01  0.000000000E+00  0.00000E+00  9.000E+00
#rwgt            1           1   5.2390777933546039E-002           6       84622           0
</event>
<event>
      5   9999  3.79277E-02  2.29834E+01 -1.00000E+00  1.61536E-01
      21    -1     0     0   502   501  0.000000000E+00  0.000000000E+00  1.698313191E+02  1.698313191E+02  0.000000000E+00  0.00000E+00  9.000E+00
      21    -1     0     0   511   502  0.000000000E+00  0.000000000E+00 -8.026983465E+02  8.026983465E+02  0.000000000E+00  0.00000E+00  9.000E+00
      25     1     1     2     0     0 -1.210353510E+01  2.141552481E+02 -9.811296206E+00  2.484556849E+02  1.250000000E+02  0.00000E+00  9.000E+00
      25     1     1     2     0     0  1.747394795E+01 -2.365023882E+02 -3.085850748E+02  4.087645616E+02  1.250000000E+02  0.00000E+00  9.000E+00
      21     1     1     2   511   501 -5.370412850E+00  2.234714009E+01 -3.144706564E+02  3.153094191E+02  5.394796609E-06  0.00000E+00  9.000E+00
#rwgt            1           1   2.6705727385804255E-002           6       84803           0
</event>
<event>
      5   9999  3.79277E-02  4.34984E+00 -1.00000E+00  2.55175E-01
      21    -1     0     0   502   501  0.000000000E+00  0.000000000E+00  2.657930969E+02  2.657930969E+02  0.000000000E+00  0.00000E+00  9.000E+00
      21    -1     0     0   512   502  0.000000000E+00  0.000000000E+00 -3.241677054E+02  3.241677054E+02  0.000000000E+00  0.00000E+00  9.000E+00
      25     1     1     2     0     0  1.279846401E+02 -8.187773090E+01 -1.633377714E+02  2.557112795E+02  1.250000000E+02  0.00000E+00  9.000E+00
      25     1     1     2     0     0 -1.241221492E+02  8.387830278E+01  1.761915404E+02  2.628884488E+02  1.250000000E+02  0.00000E+00  9.000E+00
      21     1     1     2   512   501 -3.862490857E+00 -2.000571873E+00 -7.122837745E+01  7.136107397E+01  9.536743164E-07  0.00000E+00  9.000E+00
#rwgt            1           1   2.9926124151939050E-002           6       85014           0
</event>
<event>
      5   9999  3.79277E-02  2.41290E+01 -1.00000E+00  1.59913E-01
      21    -1     0     0   502   511  0.000000000E+00  0.000000000E+00  3.406081908E+02  3.406081908E+02  0.000000000E+00  0.00000E+00  9.000E+00
      21    -1     0     0   501   502  0.000000000E+00  0.000000000E+00 -3.763016432E+02  3.763016432E+02  0.000000000E+00  0.00000E+00  9.000E+00
      25     1     1     2     0     0  3.261124075E+01 -2.972558585E+02  2.400256220E+01  3.250010175E+02  1.250000000E+02  0.00000E+00  9.000E+00
      25     1     1     2     0     0 -5.488871249E+01  3.065253246E+02 -9.536872397E+01  3.488419970E+02  1.250000000E+02  0.00000E+00  9.000E+00
      21     1     1     2   501   511  2.227747174E+01 -9.269466093E+00  3.567270930E+01  4.306681946E+01  4.768371582E-07  0.00000E+00  9.000E+00
#rwgt            1           1   3.8751494532882763E-002           6       85526           0
</event>
<event>
      5   9999  3.79277E-02  1.54044E+02 -1.00000E+00  1.15938E-01
      21    -1     0     0   502   501  0.000000000E+00  0.000000000E+00  7.928329728E+01  7.928329728E+01  0.000000000E+00  0.00000E+00  9.000E+00
      21    -1     0     0   512   502  0.000000000E+00  0.000000000E+00 -2.091706732E+03  2.091706732E+03  0.000000000E+00  0.00000E+00  9.000E+00
      25     1     1     2     0     0  1.102756998E+02  1.216846659E+02 -2.062168556E+02  2.917503717E+02  1.250000000E+02  0.00000E+00  9.000E+00
      25     1     1     2     0     0 -1.930161519E+02  8.252598856E+00 -3.764338005E+02  4.411924143E+02  1.250000000E+02  0.00000E+00  9.000E+00
      21     1     1     2   512   501  8.274045207E+01 -1.299372648E+02 -1.429772779E+03  1.438047244E+03  3.737624730E-05  0.00000E+00  9.000E+00
#rwgt            1           1   8.9034083268314676E-002           6       85758           0
</event>
<event>
      5   9999  3.79277E-02  1.77642E+01 -1.00000E+00  1.70732E-01
      21    -1     0     0   502   501  0.000000000E+00  0.000000000E+00  5.297664938E+02  5.297664938E+02  0.000000000E+00  0.00000E+00  9.000E+00
      21    -1     0     0   511   502  0.000000000E+00  0.000000000E+00 -7.572868238E+01  7.572868238E+01  0.000000000E+00  0.00000E+00  9.000E+00
      25     1     1     2     0     0 -5.931374709E+01  1.210069336E+02  2.504744794E+02  3.106819328E+02  1.250000000E+02  0.00000E+00  9.000E+00
      25     1     1     2     0     0  7.428307102E+01 -1.305718320E+02  1.846023732E+02  2.688308281E+02  1.250000000E+02  0.00000E+00  9.000E+00
      21     1     1     2   511   501 -1.496932394E+01  9.564898422E+00  1.896095882E+01  2.598241521E+01  3.371747881E-07  0.00000E+00  9.000E+00
#rwgt            1           1   3.4699957353953377E-002           6       85849           0
</event>
<event>
      5   9999 -3.79277E-02  1.88989E+01 -1.00000E+00  1.68424E-01
      21    -1     0     0   502   501  0.000000000E+00  0.000000000E+00  9.531646129E+02  9.531646129E+02  0.000000000E+00  0.00000E+00  9.000E+00
      21    -1     0     0   501   512  0.000000000E+00  0.000000000E+00 -3.820925710E+02  3.820925710E+02  0.000000000E+00  0.00000E+00  9.000E+00
      25     1     1     2     0     0  9.832393422E+01 -1.675446507E+02 -1.745202788E+00  2.310126657E+02  1.250000000E+02  0.00000E+00  9.000E+00
      25     1     1     2     0     0 -9.490290500E+01  1.861313846E+02  8.204905783E+02  8.558511803E+02  1.250000000E+02  0.00000E+00  9.000E+00
      21     1     1     2   502   512 -3.421029222E+00 -1.858673390E+01 -2.476733336E+02  2.483933379E+02  4.672030912E-06  0.00000E+00  9.000E+00
#rwgt            1           1  -3.7545760528087425E-002           6       86131           0
</event>
<event>
      5   9999  3.79277E-02  3.80775E+01 -1.00000E+00  1.46179E-01
      21    -1     0     0   502   501  0.000000000E+00  0.000000000E+00  6.702148486E+02  6.702148486E+02  0.000000000E+00  0.00000E+00  9.000E+00
      21    -1     0     0   501   511  0.000000000E+00  0.000000000E+00 -6.077449160E+02  6.077449160E+02  0.000000000E+00  0.00000E+00  9.000E+00
      25     1     1     2     0     0  9.437848013E+00 -9.430015308E+01  5.434052816E+02  5.655933981E+02  1.250000000E+02  0.00000E+00  9.000E+00
      25     1     1     2     0     0  2.338404176E+01  7.499685627E+01  6.769516677E+01  1.624160628E+02  1.250000000E+02  0.00000E+00  9.000E+00
      21     1     1     2   502   511 -3.282188977E+01  1.930329681E+01 -5.486305157E+02  5.499503037E+02  0.000000000E+00  0.00000E+00  9.000E+00
#rwgt            1           1   5.4359122774788222E-002           6       86370           0
</event>
<event>
      5   9999  3.79277E-02  4.25536E+01 -1.00000E+00  1.43193E-01
      21    -1     0     0   502   501  0.000000000E+00  0.000000000E+00  8.204153888E+01  8.204153888E+01  0.000000000E+00  0.00000E+00  9.000E+00
      21    -1     0     0   512   502  0.000000000E+00  0.000000000E+00 -7.140877928E+02  7.140877928E+02  0.000000000E+00  0.00000E+00  9.000E+00
      25     1     1     2     0     0 -1.384360977E+01  1.952299937E+02 -2.697813629E+02  3.559682285E+02  1.250000000E+02  0.00000E+00  9.000E+00
      25     1     1     2     0     0  3.897167057E+01 -1.608877056E+02 -2.982460341E+02  3.632896115E+02  1.250000000E+02  0.00000E+00  9.000E+00
      21     1     1     2   512   501 -2.512806079E+01 -3.434228813E+01 -6.401885691E+01  7.687149168E+01  9.536743164E-07  0.00000E+00  9.000E+00
#rwgt            1           1   3.8732997606424430E-002           6       86611           0
</event>
<event>
      5   9999  3.79277E-02  3.24712E+01 -1.00000E+00  1.50690E-01
      21    -1     0     0   502   501  0.000000000E+00  0.000000000E+00  2.758937519E+01  2.758937519E+01  0.000000000E+00  0.00000E+00  9.000E+00
      21    -1     0     0   511   502  0.000000000E+00  0.000000000E+00 -1.339240118E+03  1.339240118E+03  0.000000000E+00  0.00000E+00  9.000E+00
      25     1     1     2     0     0 -5.119701780E+01  2.482975917E+00 -2.029555986E+02  2.438099153E+02  1.250000000E+02  0.00000E+00  9.000E+00
      25     1     1     2     0     0  2.727365506E+01 -2.443868872E+01 -6.354814781E+02  6.486931561E+02  1.250000000E+02  0.00000E+00  9.000E+00
      21     1     1     2   511   501  2.392336274E+01  2.195571281E+01 -4.732136661E+02  4.743264218E+02  5.394796609E-06  0.00000E+00  9.000E+00
#rwgt            1           1   2.6141388578104604E-002           6       86722           0
</event>
<event>
      5   9999  3.79277E-02  6.60230E+00 -1.00000E+00  2.19208E-01
      21    -1     0     0   502   501  0.000000000E+00  0.000000000E+00  5.467637200E+02  5.467637200E+02  0.000000000E+00  0.00000E+00  9.000E+00
      21    -1     0     0   512   502  0.000000000E+00  0.000000000E+00 -2.027729196E+02  2.027729196E+02  0.000000000E+00  0.00000E+00  9.000E+00
      25     1     1     2     0     0 -2.349106630E+02  4.788030076E+01  1.943462141E+02  3.329729625E+02  1.250000000E+02  0.00000E+00  9.000E+00
      25     1     1     2     0     0  2.302079889E+02 -5.251443695E+01  2.198828293E+02  3.460158130E+02  1.250000000E+02  0.00000E+00  9.000E+00
      21     1     1     2   512   501  4.702674119E+00  4.634136191E+00 -7.023824299E+01  7.054786419E+01  1.348699152E-06  0.00000E+00  9.000E+00
#rwgt            1           1   4.0235537142484040E-002           6       86798           0
</event>
<event>
      5   9999 -3.79277E-02  8.31899E+01 -1.00000E+00  1.27533E-01
      21    -1     0     0   502   501  0.000000000E+00  0.000000000E+00  2.758680445E+03  2.758680445E+03  0.000000000E+00  0.00000E+00  9.000E+00
       1    -1     0     0   501     0  0.000000000E+00  0.000000000E+00 -1.106348284E+02  1.106348284E+02  0.000000000E+00  0.00000E+00  9.000E+00
      25     1     1     2     0     0 -6.113290600E+01  1.096374886E+02  3.853826504E+02  4.241490284E+02  1.250000000E+02  0.00000E+00  9.000E+00
      25     1     1     2     0     0 -1.740492471E+01 -1.370667798E+02  2.330430953E+03  2.337867331E+03  1.250000000E+02  0.00000E+00  9.000E+00
       1     1     1     2   502     0  7.853783071E+01  2.742929121E+01 -6.776798654E+01  1.072989136E+02  2.132480600E-06  0.00000E+00  9.000E+00
#rwgt            1           1  -6.4108129705445521E-002           6       87160           0
</event>
<event>
      5   9999 -3.79277E-02  1.91896E+01 -1.00000E+00  1.67865E-01
       2    -1     0     0   502     0  0.000000000E+00  0.000000000E+00  1.790324648E+02  1.790324648E+02  0.000000000E+00  0.00000E+00  9.000E+00
      21    -1     0     0   501   502  0.000000000E+00  0.000000000E+00 -2.671119129E+03  2.671119129E+03  0.000000000E+00  0.00000E+00  9.000E+00
      25     1     1     2     0     0  1.160243173E+02 -5.436388363E+01 -9.553196317E+02  9.719453034E+02  1.250000000E+02  0.00000E+00  9.000E+00
      25     1     1     2     0     0 -1.226572843E+02  3.635711258E+01 -1.702246649E+03  1.711617745E+03  1.250000000E+02  0.00000E+00  9.000E+00
       2     1     1     2   501     0  6.632966979E+00  1.800677105E+01  1.654796167E+02  1.665885459E+02  8.092194914E-06  0.00000E+00  9.000E+00
#rwgt            1           1 -0.12168818888983247                6       87326           0
</event>
<event>
      5   9999  3.79277E-02  4.70012E+01 -1.00000E+00  1.40626E-01
      21    -1     0     0   511   501  0.000000000E+00  0.000000000E+00  1.436987546E+03  1.436987546E+03  0.000000000E+00  0.00000E+00  9.000E+00
      21    -1     0     0   501   502  0.000000000E+00  0.000000000E+00 -1.078786417E+02  1.078786417E+02  0.000000000E+00  0.00000E+00  9.000E+00
      25     1     1     2     0     0 -9.259210750E+01  6.400114971E+00  3.019457839E+02  3.397212332E+02  1.250000000E+02  0.00000E+00  9.000E+00
      25     1     1     2     0     0  4.957997125E+01 -2.534930990E+01 -3.555680805E+01  1.413861650E+02  1.250000000E+02  0.00000E+00  9.000E+00
      21     1     1     2   511   502  4.301213626E+01  1.894919493E+01  1.062719928E+03  1.063758789E+03  2.157918644E-05  0.00000E+00  9.000E+00
#rwgt            1           1   4.6082033700218440E-002           6       87603           0
</event>
<event>
      5   9999  3.79277E-02  1.84742E+02 -1.00000E+00  1.12917E-01
      21    -1     0     0   502   501  0.000000000E+00  0.000000000E+00  1.018454610E+02  1.018454610E+02  0.000000000E+00  0.00000E+00  9.000E+00
      21    -1     0     0   512   502  0.000000000E+00  0.000000000E+00 -1.917849290E+03  1.917849290E+03  0.000000000E+00  0.00000E+00  9.000E+00
      25     1     1     2     0     0  2.326051379E+02 -1.191733948E+02 -2.481940233E+02  3.814875115E+02  1.250000000E+02  0.00000E+00  9.000E+00
      25     1     1     2     0     0 -5.806721722E+01  1.797213989E+02 -4.349782437E+02  4.904107008E+02  1.250000000E+02  0.00000E+00  9.000E+00
      21     1     1     2   512   501 -1.745379207E+02 -6.054800415E+01 -1.132831562E+03  1.147796539E+03  2.157918644E-05  0.00000E+00  9.000E+00
#rwgt            1           1   2.9803484362211422E-002           6       87728           0
</event>
<event>
      5   9999  3.79277E-02  9.99004E+01 -1.00000E+00  1.23847E-01
      21    -1     0     0   502   501  0.000000000E+00  0.000000000E+00  1.720837678E+02  1.720837678E+02  0.000000000E+00  0.00000E+00  9.000E+00
       2    -1     0     0   501     0  0.000000000E+00  0.000000000E+00 -8.599046883E+02  8.599046883E+02  0.000000000E+00  0.00000E+00  9.000E+00
      25     1     1     2     0     0  3.938157288E+01  5.053165874E+01  1.145954247E+02  1.812773240E+02  1.250000000E+02  0.00000E+00  9.000E+00
      25     1     1     2     0     0 -1.205889432E+02  7.652925874E+00 -4.012851077E+02  4.373271066E+02  1.250000000E+02  0.00000E+00  9.000E+00
       2     1     1     2   502     0  8.120737035E+01 -5.818458462E+01 -4.011312375E+02  4.133840256E+02  5.394796609E-06  0.00000E+00  9.000E+00
#rwgt            1           1   4.6652344355991394E-002           6       87772           0
</event>
<event>
      5   9999  3.79277E-02  3.60762E+01 -1.00000E+00  1.47677E-01
      21    -1     0     0   502   501  0.000000000E+00  0.000000000E+00  7.154581776E+02  7.154581776E+02  0.000000000E+00  0.00000E+00  9.000E+00
      21    -1     0     0   501   511  0.000000000E+00  0.000000000E+00 -1.290763955E+02  1.290763955E+02  0.000000000E+00  0.00000E+00  9.000E+00
      25     1     1     2     0     0  7.937676191E+01  2.133747527E+02  3.093130893E+02  4.038923652E+02  1.250000000E+02  0.00000E+00  9.000E+00
      25     1     1     2     0     0 -1.094952696E+02 -2.332333975E+02  2.846487156E+02  4.037783093E+02  1.250000000E+02  0.00000E+00  9.000E+00
      21     1     1     2   502   511  3.011850765E+01  1.985864478E+01 -7.580022756E+00  3.686389861E+01  4.129530925E-07  0.00000E+00  9.000E+00
#rwgt            1           1   3.6318171639438276E-002           6       87850           0
</event>
<event>
      5   9999  3.79277E-02  9.76485E+01 -1.00000E+00  1.24295E-01
       2    -1     0     0   502     0  0.000000000E+00  0.000000000E+00  4.341037614E+03  4.341037614E+03  0.000000000E+00  0.00000E+00  9.000E+00
      21    -1     0     0   501   502  0.000000000E+00  0.000000000E+00 -1.795177881E+02  1.795177881E+02  0.000000000E+00  0.00000E+00  9.000E+00
      25     1     1     2     0     0  8.294756539E+01  9.836423710E+01  4.326490664E+02  4.683652810E+02  1.250000000E+02  0.00000E+00  9.000E+00
      25     1     1     2     0     0  1.360748090E+01 -1.129364995E+02 -1.166955798E+02  2.053842126E+02  1.250000000E+02  0.00000E+00  9.000E+00
       2     1     1     2   501     0 -9.655504629E+01  1.457226244E+01  3.845566339E+03  3.846805908E+03  7.475249459E-05  0.00000E+00  9.000E+00
#rwgt            1           1   4.0307042904850779E-002           6       88152           0
</event>
<event>
      5   9999  3.79277E-02  1.49926E+02 -1.00000E+00  1.16402E-01
      21    -1     0     0   511   501  0.000000000E+00  0.000000000E+00  6.599864922E+01  6.599864922E+01  0.000000000E+00  0.00000E+00  9.000E+00
      21    -1     0     0   501   502  0.000000000E+00  0.000000000E+00 -1.444190219E+03  1.444190219E+03  0.000000000E+00  0.00000E+00  9.000E+00
      25     1     1     2     0     0  3.276071810E+01 -7.729839759E+01 -4.486320991E+02  4.732272892E+02  1.250000000E+02  0.00000E+00  9.000E+00
      25     1     1     2     0     0  9.770320046E+01  1.511687894E+02 -8.264297685E+02  8.549906903E+02  1.250000000E+02  0.00000E+00  9.000E+00
      21     1     1     2   511   502 -1.304639186E+02 -7.387039186E+01 -1.031297021E+02  1.819708886E+02  3.303624740E-06  0.00000E+00  9.000E+00
#rwgt            2          11   2.3980582252876434E-003           6       88238           0
</event>
<event>
      5   9999  3.79277E-02  4.18769E+01 -1.00000E+00  1.43616E-01
      21    -1     0     0   502   501  0.000000000E+00  0.000000000E+00  9.696447072E+02  9.696447072E+02  0.000000000E+00  0.00000E+00  9.000E+00
      21    -1     0     0   501   512  0.000000000E+00  0.000000000E+00 -7.538973883E+02  7.538973883E+02  0.000000000E+00  0.00000E+00  9.000E+00
      25     1     1     2     0     0 -1.710431456E+02  6.022209670E+01  6.356269821E+02  6.727028460E+02  1.250000000E+02  0.00000E+00  9.000E+00
      25     1     1     2     0     0  1.488286250E+02 -2.472291071E+01  2.843788352E+02  3.453367977E+02  1.250000000E+02  0.00000E+00  9.000E+00
      21     1     1     2   502   512  2.221452064E+01 -3.549918599E+01 -7.042584983E+02  7.055024519E+02  7.629394531E-06  0.00000E+00  9.000E+00
#rwgt            1           1   3.8109178921861428E-002           6       88303           0
</event>
<event>
      5   9999 -3.79277E-02  8.15033E+01 -1.00000E+00  1.27959E-01
      21    -1     0     0   502   511  0.000000000E+00  0.000000000E+00  2.068766675E+02  2.068766675E+02  0.000000000E+00  0.00000E+00  9.000E+00
      21    -1     0     0   501   502  0.000000000E+00  0.000000000E+00 -8.618907230E+02  8.618907230E+02  0.000000000E+00  0.00000E+00  9.000E+00
      25     1     1     2     0     0  3.350077514E+02 -2.585785912E-02 -2.539423682E+02  4.385680341E+02  1.250000000E+02  0.00000E+00  9.000E+00
      25     1     1     2     0     0 -3.781089737E+02  6.920012426E+01 -3.430310169E+02  5.301418034E+02  1.250000000E+02  0.00000E+00  9.000E+00
      21     1     1     2   501   511  4.310122227E+01 -6.917426640E+01 -5.804067025E+01  1.000575529E+02  6.743495762E-07  0.00000E+00  9.000E+00
#rwgt            1           1  -7.3232065932571422E-002           6       88464           0
</event>
<event>
      5   9999  3.79277E-02  1.43742E+02 -1.00000E+00  1.17132E-01
      -1    -1     0     0     0   501  0.000000000E+00  0.000000000E+00  1.850733848E+02  1.850733848E+02  0.000000000E+00  0.00000E+00  9.000E+00
      21    -1     0     0   501   502  0.000000000E+00  0.000000000E+00 -5.509731041E+02  5.509731041E+02  0.000000000E+00  0.00000E+00  9.000E+00
      25     1     1     2     0     0 -1.170582616E+02  4.890490733E+01 -1.188546889E+01  1.784953527E+02  1.250000000E+02  0.00000E+00  9.000E+00
      25     1     1     2     0     0 -1.836457589E+01 -7.134084416E-01 -3.895123805E+02  4.094907339E+02  1.250000000E+02  0.00000E+00  9.000E+00
      -1     1     1     2     0   502  1.354228375E+02 -4.819149888E+01  3.549813000E+01  1.480604022E+02  2.132480600E-06  0.00000E+00  9.000E+00
#rwgt            1           1   4.7842102942428383E-002           6       88604           0
</event>
<event>
      5   9999  3.79277E-02  8.56238E+01 -1.00000E+00  1.26937E-01
      21    -1     0     0   502   511  0.000000000E+00  0.000000000E+00  2.319606796E+02  2.319606796E+02  0.000000000E+00  0.00000E+00  9.000E+00
      21    -1     0     0   501   502  0.000000000E+00  0.000000000E+00 -3.258595326E+02  3.258595326E+02  0.000000000E+00  0.00000E+00  9.000E+00
      25     1     1     2     0     0  9.799468913E+01 -1.026240851E+02 -1.902997295E+02  2.682790506E+02  1.250000000E+02  0.00000E+00  9.000E+00
      25     1     1     2     0     0 -4.526603288E+01  3.516203097E+01 -2.621174891E+01  1.399908495E+02  1.250000000E+02  0.00000E+00  9.000E+00
      21     1     1     2   501   511 -5.272865625E+01  6.746205415E+01  1.226126254E+02  1.495503121E+02  3.568322551E-06  0.00000E+00  9.000E+00
#rwgt            1           1   3.4384606386925393E-002           6       88652           0
</event>
<event>
      5   9999  3.79277E-02  1.13268E+02 -1.00000E+00  1.21442E-01
      21    -1     0     0   502   501  0.000000000E+00  0.000000000E+00  8.598103589E+01  8.598103589E+01  0.000000000E+00  0.00000E+00  9.000E+00
      21    -1     0     0   501   512  0.000000000E+00  0.000000000E+00 -4.618937032E+02  4.618937032E+02  0.000000000E+00  0.00000E+00  9.000E+00
      25     1     1     2     0     0  3.812284496E+01 -8.269750652E-01 -7.806365948E+01  1.522267064E+02  1.250000000E+02  0.00000E+00  9.000E+00
      25     1     1     2     0     0  7.441552328E+01 -1.200509529E+01 -1.863030411E+02  2.366761829E+02  1.250000000E+02  0.00000E+00  9.000E+00
      21     1     1     2   502   512 -1.125383682E+02  1.283207036E+01 -1.115459667E+02  1.589718499E+02  0.000000000E+00  0.00000E+00  9.000E+00
#rwgt            1           1   1.2241342940480376E-002           6       88767           0
</event>
<event>
      5   9999  3.79277E-02  1.30046E+02 -1.00000E+00  1.18905E-01
      21    -1     0     0   502   511  0.000000000E+00  0.000000000E+00  2.953109539E+02  2.953109539E+02  0.000000000E+00  0.00000E+00  9.000E+00
      21    -1     0     0   501   502  0.000000000E+00  0.000000000E+00 -5.088686840E+02  5.088686840E+02  0.000000000E+00  0.00000E+00  9.000E+00
      25     1     1     2     0     0  1.816841842E+02  2.434800548E+01 -1.799643396E+02  2.856818715E+02  1.250000000E+02  0.00000E+00  9.000E+00
      25     1     1     2     0     0 -8.257211181E+01  5.984673573E+01 -2.312118285E+02  2.819285283E+02  1.250000000E+02  0.00000E+00  9.000E+00
      21     1     1     2   501   511 -9.911207236E+01 -8.419474121E+01  1.976184381E+02  2.365692381E+02  0.000000000E+00  0.00000E+00  9.000E+00
#rwgt            1           1   3.5570394818537562E-002           6       88858           0
</event>
<event>
      5   9999  3.79277E-02  1.71742E+02 -1.00000E+00  1.14111E-01
       2    -1     0     0   502     0  0.000000000E+00  0.000000000E+00  1.338253440E+03  1.338253440E+03  0.000000000E+00  0.00000E+00  9.000E+00
      21    -1     0     0   501   502  0.000000000E+00  0.000000000E+00 -4.852782512E+02  4.852782512E+02  0.000000000E+00  0.00000E+00  9.000E+00
      25     1     1     2     0     0  2.320495869E+02  3.161011325E+02 -7.831133779E+01  4.189565638E+02  1.250000000E+02  0.00000E+00  9.000E+00
      25     1     1     2     0     0 -6.141100579E+01 -3.355362103E+02 -8.563923110E+01  3.732491634E+02  1.250000000E+02  0.00000E+00  9.000E+00
       2     1     1     2   501     0 -1.706385811E+02  1.943507776E+01  1.016925758E+03  1.031325964E+03  1.078959322E-05  0.00000E+00  9.000E+00
#rwgt            1           1   3.3739459944027932E-002           6       88921           0
</event>
<event>
      5   9999  3.79277E-02  1.03484E+02 -1.00000E+00  1.23163E-01
      21    -1     0     0   502   501  0.000000000E+00  0.000000000E+00  2.298235037E+02  2.298235037E+02  0.000000000E+00  0.00000E+00  9.000E+00
      21    -1     0     0   501   511  0.000000000E+00  0.000000000E+00 -1.524459844E+03  1.524459844E+03  0.000000000E+00  0.00000E+00  9.000E+00
      25     1     1     2     0     0 -2.517785579E+02 -2.449422865E+02 -1.022054256E+03  1.087937989E+03  1.250000000E+02  0.00000E+00  9.000E+00
      25     1     1     2     0     0  2.312651028E+02  3.463731906E+02 -7.215951735E+01  4.407833151E+02  1.250000000E+02  0.00000E+00  9.000E+00
      21     1     1     2   502   511  2.051345513E+01 -1.014309041E+02 -2.004225666E+02  2.255620433E+02  4.672030912E-06  0.00000E+00  9.000E+00
#rwgt            1           1   8.2045230749662343E-002           6       88978           0
</event>
<event>
      5   9999  3.79277E-02  1.06088E+02 -1.00000E+00  1.22684E-01
      21    -1     0     0   502   501  0.000000000E+00  0.000000000E+00  1.129703161E+02  1.129703161E+02  0.000000000E+00  0.00000E+00  9.000E+00
       2    -1     0     0   501     0  0.000000000E+00  0.000000000E+00 -1.666548260E+03  1.666548260E+03  0.000000000E+00  0.00000E+00  9.000E+00
      25     1     1     2     0     0 -2.135885725E+02  1.020886681E+02 -1.149869502E+02  2.913574663E+02  1.250000000E+02  0.00000E+00  9.000E+00
      25     1     1     2     0     0  1.240729864E+02 -1.590235329E+02 -6.403701865E+02  6.829213467E+02  1.250000000E+02  0.00000E+00  9.000E+00
       2     1     1     2   502     0  8.951558603E+01  5.693486476E+01 -7.982208077E+02  8.052397636E+02  1.525878906E-05  0.00000E+00  9.000E+00
#rwgt            1           1   4.0583313767653915E-002           6       89068           0
</event>
<event>
      5   9999  3.79277E-02  1.50128E+02 -1.00000E+00  1.16379E-01
      21    -1     0     0   502   501  0.000000000E+00  0.000000000E+00  6.446441069E+01  6.446441069E+01  0.000000000E+00  0.00000E+00  9.000E+00
      21    -1     0     0   501   511  0.000000000E+00  0.000000000E+00 -1.262664271E+03  1.262664271E+03  0.000000000E+00  0.00000E+00  9.000E+00
      25     1     1     2     0     0 -1.207804603E+02  1.835014289E+01 -4.252152563E+02  4.597365132E+02  1.250000000E+02  0.00000E+00  9.000E+00
      25     1     1     2     0     0  7.554267409E+01 -1.614998053E+02 -2.968422833E+02  3.681429395E+02  1.250000000E+02  0.00000E+00  9.000E+00
      21     1     1     2   502   511  4.523778624E+01  1.431496624E+02 -4.761423211E+02  4.992492294E+02  7.629394531E-06  0.00000E+00  9.000E+00
#rwgt            2          11   1.5840357104492369E-003           6       89223           0
</event>
<event>
      5   9999  3.79277E-02  3.93982E+01 -1.00000E+00  1.45250E-01
      21    -1     0     0   512   501  0.000000000E+00  0.000000000E+00  3.652967603E+02  3.652967603E+02  0.000000000E+00  0.00000E+00  9.000E+00
      21    -1     0     0   501   502  0.000000000E+00  0.000000000E+00 -1.333961142E+02  1.333961142E+02  0.000000000E+00  0.00000E+00  9.000E+00
      25     1     1     2     0     0 -1.105911791E+02  1.059921910E+02  2.032621220E+01  1.987533858E+02  1.250000000E+02  0.00000E+00  9.000E+00
      25     1     1     2     0     0  8.506387068E+01 -7.598266267E+01  1.462747476E+02  2.236750521E+02  1.250000000E+02  0.00000E+00  9.000E+00
      21     1     1     2   512   502  2.552730846E+01 -3.000952830E+01  6.529968632E+01  7.626443667E+01  1.907348633E-06  0.00000E+00  9.000E+00
#rwgt            1           1   3.7361072295219587E-002           6       89273           0
</event>
<event>
      5   9999  3.79277E-02  2.74933E+01 -1.00000E+00  1.55719E-01
      21    -1     0     0   502   511  0.000000000E+00  0.000000000E+00  8.233135267E+01  8.233135267E+01  0.000000000E+00  0.00000E+00  9.000E+00
      21    -1     0     0   501   502  0.000000000E+00  0.000000000E+00 -1.495081733E+03  1.495081733E+03  0.000000000E+00  0.00000E+00  9.000E+00
      25     1     1     2     0     0  1.403997772E+02 -1.415573184E+01 -5.929265851E+02  6.221731411E+02  1.250000000E+02  0.00000E+00  9.000E+00
      25     1     1     2     0     0 -1.466779247E+02 -1.261117925E+01 -8.736805141E+02  8.947715330E+02  1.250000000E+02  0.00000E+00  9.000E+00
      21     1     1     2   501   511  6.278147448E+00  2.676691109E+01  5.385671876E+01  6.046841176E+01  1.907348633E-06  0.00000E+00  9.000E+00
#rwgt            1           1   5.3185477835824772E-002           6       89379           0
</event>
<event>
      5   9999  3.79277E-02  1.14387E+02 -1.00000E+00  1.21258E-01
      -1    -1     0     0     0   501  0.000000000E+00  0.000000000E+00  9.590157912E+02  9.590157912E+02  0.000000000E+00  0.00000E+00  9.000E+00
      21    -1     0     0   501   502  0.000000000E+00  0.000000000E+00 -1.938141038E+03  1.938141038E+03  0.000000000E+00  0.00000E+00  9.000E+00
      25     1     1     2     0     0 -3.462966569E+01  1.686576086E+02 -1.385389742E+03  1.401632741E+03  1.250000000E+02  0.00000E+00  9.000E+00
      25     1     1     2     0     0  1.020219714E+01 -5.690914763E+01 -5.323951992E+02  5.499203434E+02  1.250000000E+02  0.00000E+00  9.000E+00
      -1     1     1     2     0   502  2.442746855E+01 -1.117484610E+02  9.386596947E+02  9.456037448E+02  1.525878906E-05  0.00000E+00  9.000E+00
#rwgt            1           1  0.10254124996288468                6       89523           0
</event>
<event>
      5   9999  3.79277E-02  1.30477E+02 -1.00000E+00  1.18845E-01
      21    -1     0     0   502   501  0.000000000E+00  0.000000000E+00  7.789358975E+01  7.789358975E+01  0.000000000E+00  0.00000E+00  9.000E+00
      21    -1     0     0   511   502  0.000000000E+00  0.000000000E+00 -8.769644715E+02  8.769644715E+02  0.000000000E+00  0.00000E+00  9.000E+00
      25     1     1     2     0     0 -9.471399500E+01 -1.764073687E+02 -4.251245754E+02  4.862573446E+02  1.250000000E+02  0.00000E+00  9.000E+00
      25     1     1     2     0     0  7.577169400E+00  7.929219820E+01 -1.608220498E+02  2.187084769E+02  1.250000000E+02  0.00000E+00  9.000E+00
      21     1     1     2   511   501  8.713682560E+01  9.711517049E+01 -2.131242565E+02  2.498922397E+02  3.814697266E-06  0.00000E+00  9.000E+00
#rwgt            1           1   4.9370513604465212E-002           6       89594           0
</event>
<event>
      5   9999  3.79277E-02  1.60413E+02 -1.00000E+00  1.15250E-01
      21    -1     0     0   512   501  0.000000000E+00  0.000000000E+00  1.321836993E+03  1.321836993E+03  0.000000000E+00  0.00000E+00  9.000E+00
      21    -1     0     0   501   502  0.000000000E+00  0.000000000E+00 -9.319043929E+01  9.319043929E+01  0.000000000E+00  0.00000E+00  9.000E+00
      25     1     1     2     0     0 -3.704103574E+01  2.018063668E+01  1.230361000E+02  1.803945075E+02  1.250000000E+02  0.00000E+00  9.000E+00
      25     1     1     2     0     0  1.894969892E+02 -7.007594578E+01  1.876163151E+02  3.027286388E+02  1.250000000E+02  0.00000E+00  9.000E+00
      21     1     1     2   512   502 -1.524559535E+02  4.989530910E+01  9.179941383E+02  9.319042856E+02  1.078959322E-05  0.00000E+00  9.000E+00
#rwgt            1           1   3.0755518001333526E-002           6       89792           0
</event>
<event>
      5   9999  3.79277E-02  1.16193E+02 -1.00000E+00  1.20966E-01
      21    -1     0     0   502   511  0.000000000E+00  0.000000000E+00  2.509557568E+02  2.509557568E+02  0.000000000E+00  0.00000E+00  9.000E+00
      21    -1     0     0   501   502  0.000000000E+00  0.000000000E+00 -1.197282222E+03  1.197282222E+03  0.000000000E+00  0.00000E+00  9.000E+00
      25     1     1     2     0     0 -1.344405645E+01 -3.266953001E+01 -1.384138036E+02  1.898194454E+02  1.250000000E+02  0.00000E+00  9.000E+00
      25     1     1     2     0     0 -9.440770956E+01  7.589826401E+01 -1.010226523E+03  1.025112672E+03  1.250000000E+02  0.00000E+00  9.000E+00
      21     1     1     2   501   511  1.078517660E+02 -4.322873400E+01  2.023138610E+02  2.333058620E+02  6.607249480E-06  0.00000E+00  9.000E+00
#rwgt            1           1   4.6975818693498449E-002           6       89837           0
</event>
<event>
      5   9999  3.79277E-02  5.53711E+01 -1.00000E+00  1.36593E-01
      21    -1     0     0   502   501  0.000000000E+00  0.000000000E+00  7.028048401E+02  7.028048401E+02  0.000000000E+00  0.00000E+00  9.000E+00
      21    -1     0     0   501   512  0.000000000E+00  0.000000000E+00 -1.445024518E+02  1.445024518E+02  0.000000000E+00  0.00000E+00  9.000E+00
      25     1     1     2     0     0 -3.106751796E+01 -1.067346086E+02 -1.071422116E+01  1.676223788E+02  1.250000000E+02  0.00000E+00  9.000E+00
      25     1     1     2     0     0  7.531489212E+01  7.344607712E+01  5.960728410E+02  6.180570289E+02  1.250000000E+02  0.00000E+00  9.000E+00
      21     1     1     2   502   512 -4.424737417E+01  3.328853144E+01 -2.705623148E+01  6.162788417E+01  5.840038640E-07  0.00000E+00  9.000E+00
#rwgt            1           1   3.6858404132066210E-002           6       90019           0
</event>
<event>
      5   9999  3.79277E-02  2.92532E+01 -1.00000E+00  1.53804E-01
      21    -1     0     0   511   501  0.000000000E+00  0.000000000E+00  4.414706154E+02  4.414706154E+02  0.000000000E+00  0.00000E+00  9.000E+00
      21    -1     0     0   501   502  0.000000000E+00  0.000000000E+00 -7.721065203E+01  7.721065203E+01  0.000000000E+00  0.00000E+00  9.000E+00
      25     1     1     2     0     0  8.274608658E+01  4.434771330E+01  1.581358856E+02  2.223636500E+02  1.250000000E+02  0.00000E+00  9.000E+00
      25     1     1     2     0     0 -1.118812843E+02 -4.172330714E+01  1.347526557E+02  2.191837913E+02  1.250000000E+02  0.00000E+00  9.000E+00
      21     1     1     2   511   502  2.913519771E+01 -2.624406166E+00  7.137142208E+01  7.713382619E+01  9.536743164E-07  0.00000E+00  9.000E+00
#rwgt            1           1   4.5213698193063791E-002           6       90129           0
</event>
<event>
      5   9999  3.79277E-02  1.29904E+01 -1.00000E+00  1.83478E-01
      21    -1     0     0   512   501  0.000000000E+00  0.000000000E+00  2.238997847E+01  2.238997847E+01  0.000000000E+00  0.00000E+00  9.000E+00
      21    -1     0     0   501   502  0.000000000E+00  0.000000000E+00 -2.305158830E+03  2.305158830E+03  0.000000000E+00  0.00000E+00  9.000E+00
      25     1     1     2     0     0 -9.164827678E+01  1.560775765E+02 -9.735139351E+02  9.980551079E+02  1.250000000E+02  0.00000E+00  9.000E+00
      25     1     1     2     0     0  7.886732244E+01 -1.537543080E+02 -1.277570007E+03  1.295249228E+03  1.250000000E+02  0.00000E+00  9.000E+00
      21     1     1     2   512   502  1.278095434E+01 -2.323268496E+00 -3.168491014E+01  3.424447256E+01  4.768371582E-07  0.00000E+00  9.000E+00
#rwgt            1           1   7.2773651104436121E-002           6       90207           0
</event>
<event>
      5   9999  3.79277E-02  1.17828E+01 -1.00000E+00  1.87866E-01
      21    -1     0     0   502   501  0.000000000E+00  0.000000000E+00  1.345643714E+03  1.345643714E+03  0.000000000E+00  0.00000E+00  9.000E+00
      21    -1     0     0   511   502  0.000000000E+00  0.000000000E+00 -3.825745006E+01  3.825745006E+01  0.000000000E+00  0.00000E+00  9.000E+00
      25     1     1     2     0     0 -8.495136857E+01 -4.626815121E+01  1.765458047E+02  2.369618070E+02  1.250000000E+02  0.00000E+00  9.000E+00
      25     1     1     2     0     0  7.372345373E+01  4.984136476E+01  1.121378332E+03  1.131827581E+03  1.250000000E+02  0.00000E+00  9.000E+00
      21     1     1     2   511   501  1.122791484E+01 -3.573213547E+00  9.462127200E+00  1.511177613E+01  2.920019320E-07  0.00000E+00  9.000E+00
#rwgt            1           1   4.1725251624577471E-002           6       90539           0
</event>
<event>
      5   9999  3.79277E-02  1.04415E+02 -1.00000E+00  1.22990E-01
      21    -1     0     0   502   501  0.000000000E+00  0.000000000E+00  2.551897959E+02  2.551897959E+02  0.000000000E+00  0.00000E+00  9.000E+00
       2    -1     0     0   501     0  0.000000000E+00  0.000000000E+00 -6.860664882E+02  6.860664882E+02  0.000000000E+00  0.00000E+00  9.000E+00
      25     1     1     2     0     0 -1.867911242E+02  1.125230708E+01  1.062886352E+02  2.488771032E+02  1.250000000E+02  0.00000E+00  9.000E+00
      25     1     1     2     0     0  1.006694619E+02 -7.029062048E+01 -3.398559743E+01  1.784800625E+02  1.250000000E+02  0.00000E+00  9.000E+00
       2     1     1     2   502     0  8.612166235E+01  5.903831340E+01 -5.031797301E+02  5.138991184E+02  7.629394531E-06  0.00000E+00  9.000E+00
#rwgt            1           1   3.4616806347487386E-002           6       90749           0
</event>
<event>
      5   9999  3.79277E-02  7.60477E+01 -1.00000E+00  1.29424E-01
      21    -1     0     0   502   501  0.000000000E+00  0.000000000E+00  4.573953671E+01  4.573953671E+01  0.000000000E+00  0.00000E+00  9.000E+00
      21    -1     0     0   501   511  0.000000000E+00  0.000000000E+00 -1.690331189E+03  1.690331189E+03  0.000000000E+00  0.00000E+00  9.000E+00
      25     1     1     2     0     0 -1.056449075E+02  1.957035471E+02 -5.261567112E+02  5.847449098E+02  1.250000000E+02  0.00000E+00  9.000E+00
      25     1     1     2     0     0  9.310690827E+01 -1.206965519E+02 -7.972682370E+02  8.212783911E+02  1.250000000E+02  0.00000E+00  9.000E+00
      21     1     1     2   502   511  1.253799918E+01 -7.500699522E+01 -3.211667039E+02  3.300474245E+02  3.814697266E-06  0.00000E+00  9.000E+00
#rwgt            1           1   2.6496660285883968E-002           6       90819           0
</event>
<event>
      5   9999 -3.79277E-02  5.63715E+01 -1.00000E+00  1.36167E-01
      21    -1     0     0   502   501  0.000000000E+00  0.000000000E+00  1.299179725E+02  1.299179725E+02  0.000000000E+00  0.00000E+00  9.000E+00
       2    -1     0     0   501     0  0.000000000E+00  0.000000000E+00 -5.258618159E+02  5.258618159E+02  0.000000000E+00  0.00000E+00  9.000E+00
      25     1     1     2     0     0  1.006141957E+02 -1.277505628E+01 -1.449957875E+02  2.166453250E+02  1.250000000E+02  0.00000E+00  9.000E+00
      25     1     1     2     0     0 -7.504867193E+01 -3.746589696E+01  2.922524808E+01  1.533463782E+02  1.250000000E+02  0.00000E+00  9.000E+00
       2     1     1     2   502     0 -2.556552377E+01  5.024095324E+01 -2.801733039E+02  2.857880852E+02  0.000000000E+00  0.00000E+00  9.000E+00
#rwgt            1           1 -0.15955275181547335                6       91055           0
</event>
<event>
      5   9999  3.79277E-02  3.14384E+01 -1.00000E+00  1.51640E-01
      21    -1     0     0   502   511  0.000000000E+00  0.000000000E+00  4.882749676E+02  4.882749676E+02  0.000000000E+00  0.00000E+00  9.000E+00
      21    -1     0     0   501   502  0.000000000E+00  0.000000000E+00 -1.147644093E+02  1.147644093E+02  0.000000000E+00  0.00000E+00  9.000E+00
      25     1     1     2     0     0  1.817176217E+00  9.419367500E+01  2.582011060E+01  1.586424554E+02  1.250000000E+02  0.00000E+00  9.000E+00
      25     1     1     2     0     0  2.927810607E+01 -9.882569501E+01  9.106631698E+01  1.858542428E+02  1.250000000E+02  0.00000E+00  9.000E+00
      21     1     1     2   501   511 -3.109528229E+01  4.632020010E+00  2.566241307E+02  2.585426786E+02  0.000000000E+00  0.00000E+00  9.000E+00
#rwgt            1           1   2.5611917370731950E-002           6       91273           0
</event>
<event>
      5   9999 -3.79277E-02  3.08315E+01 -1.00000E+00  1.52220E-01
      21    -1     0     0   502   501  0.000000000E+00  0.000000000E+00  3.829437039E+01  3.829437039E+01  0.000000000E+00  0.00000E+00  9.000E+00
      21    -1     0     0   501   512  0.000000000E+00  0.000000000E+00 -2.059007324E+03  2.059007324E+03  0.000000000E+00  0.00000E+00  9.000E+00
      25     1     1     2     0     0  2.584059930E+01 -1.909207838E+02 -4.956944937E+02  5.463117364E+02  1.250000000E+02  0.00000E+00  9.000E+00
      25     1     1     2     0     0 -2.696630688E+00  2.112908100E+02 -1.222823754E+03  1.247226528E+03  1.250000000E+02  0.00000E+00  9.000E+00
      21     1     1     2   502   512 -2.314396861E+01 -2.037002622E+01 -3.021947060E+02  3.037634303E+02  3.814697266E-06  0.00000E+00  9.000E+00
#rwgt            1           1  -1.4070236803173203E-002           6       91358           0
</event>
<event>
      5   9999  3.79277E-02  2.79959E+01 -1.00000E+00  1.55155E-01
      21    -1     0     0   502   501  0.000000000E+00  0.000000000E+00  5.918994371E+02  5.918994371E+02  0.000000000E+00  0.00000E+00  9.000E+00
      21    -1     0     0   511   502  0.000000000E+00  0.000000000E+00 -1.352371009E+02  1.352371009E+02  0.000000000E+00  0.00000E+00  9.000E+00
      25     1     1     2     0     0 -7.891305177E+01 -6.507735819E+01  1.462105244E+02  2.178642920E+02  1.250000000E+02  0.00000E+00  9.000E+00
      25     1     1     2     0     0  6.517620211E+01  4.068327527E+01  3.943845408E+02  4.207935744E+02  1.250000000E+02  0.00000E+00  9.000E+00
      21     1     1     2   511   501  1.373684966E+01  2.439408292E+01 -8.393272902E+01  8.847867156E+01  9.536743164E-07  0.00000E+00  9.000E+00
#rwgt            1           1   4.4094173118961279E-002           6       91512           0
</event>
<event>
      5   9999  3.79277E-02  3.51912E+01 -1.00000E+00  1.48377E-01
      21    -1     0     0   502   501  0.000000000E+00  0.000000000E+00  4.123059750E+02  4.123059750E+02  0.000000000E+00  0.00000E+00  9.000E+00
      21    -1     0     0   512   502  0.000000000E+00  0.000000000E+00 -1.931326335E+02  1.931326335E+02  0.000000000E+00  0.00000E+00  9.000E+00
      25     1     1     2     0     0  1.159005735E+02 -1.685011227E+02  2.036031865E+02  3.144913812E+02  1.250000000E+02  0.00000E+00  9.000E+00
      25     1     1     2     0     0 -1.459079583E+02  1.501170041E+02  4.137639568E+01  2.473080131E+02  1.250000000E+02  0.00000E+00  9.000E+00
      21     1     1     2   512   501  3.000738472E+01  1.838411858E+01 -2.580624073E+01  4.363921418E+01  8.259061849E-07  0.00000E+00  9.000E+00
#rwgt            1           1   2.6313107060006349E-002           6       91624           0
</event>
<event>
      5   9999  3.79277E-02  4.46726E+01 -1.00000E+00  1.41926E-01
      21    -1     0     0   502   501  0.000000000E+00  0.000000000E+00  4.466090595E+02  4.466090595E+02  0.000000000E+00  0.00000E+00  9.000E+00
       1    -1     0     0   501     0  0.000000000E+00  0.000000000E+00 -4.574097787E+02  4.574097787E+02  0.000000000E+00  0.00000E+00  9.000E+00
      25     1     1     2     0     0 -2.598197708E+02  5.133695009E+01  2.340885129E+02  3.749189614E+02  1.250000000E+02  0.00000E+00  9.000E+00
      25     1     1     2     0     0  2.441876880E+02 -9.488611353E+00  5.714453696E+00  2.745456532E+02  1.250000000E+02  0.00000E+00  9.000E+00
       1     1     1     2   502     0  1.563208277E+01 -4.184833874E+01 -2.506036858E+02  2.545542237E+02  4.672030912E-06  0.00000E+00  9.000E+00
#rwgt            1           1   7.9834297365133589E-002           6       91755           0
</event>
<event>
      5   9999  3.79277E-02  6.56193E+01 -1.00000E+00  1.32658E-01
      21    -1     0     0   502   501  0.000000000E+00  0.000000000E+00  9.854559648E+01  9.854559648E+01  0.000000000E+00  0.00000E+00  9.000E+00
       1    -1     0     0   501     0  0.000000000E+00  0.000000000E+00 -1.850353208E+03  1.850353208E+03  0.000000000E+00  0.00000E+00  9.000E+00
      25     1     1     2     0     0 -1.333364880E+01 -8.022502171E+01 -3.172729465E+02  3.505723362E+02  1.250000000E+02  0.00000E+00  9.000E+00
      25     1     1     2     0     0  3.811399750E+01  1.946460470E+01  2.738786843E+01  1.349319939E+02  1.250000000E+02  0.00000E+00  9.000E+00
       1     1     1     2   502     0 -2.478034870E+01  6.076041700E+01 -1.461922534E+03  1.463394475E+03  2.157918644E-05  0.00000E+00  9.000E+00
#rwgt            1           1   4.8373761337134604E-003           6       91945           0
</event>
<event>
      5   9999  3.79277E-02  4.47435E+01 -1.00000E+00  1.41885E-01
      21    -1     0     0   502   501  0.000000000E+00  0.000000000E+00  5.656373156E+02  5.656373156E+02  0.000000000E+00  0.00000E+00  9.000E+00
      21    -1     0     0   511   502  0.000000000E+00  0.000000000E+00 -1.760170276E+02  1.760170276E+02  0.000000000E+00  0.00000E+00  9.000E+00
      25     1     1     2     0     0  1.147237661E+02 -1.241807955E+02  3.269394286E+02  3.887117215E+02  1.250000000E+02  0.00000E+00  9.000E+00
      25     1     1     2     0     0 -7.267745447E+01  1.394806338E+02  1.527463840E+02  2.523753502E+02  1.250000000E+02  0.00000E+00  9.000E+00
      21     1     1     2   511   501 -4.204631161E+01 -1.529983834E+01 -9.006552457E+01  1.005672715E+02  1.348699152E-06  0.00000E+00  9.000E+00
#rwgt            1           1   2.5748521021360739E-002           6       92009           0
</event>
<event>
      5   9999  3.79277E-02  1.95693E+01 -1.00000E+00  1.67153E-01
      21    -1     0     0   512   501  0.000000000E+00  0.000000000E+00  7.565415427E+01  7.565415427E+01  0.000000000E+00  0.00000E+00  9.000E+00
      21    -1     0     0   501   502  0.000000000E+00  0.000000000E+00 -1.728753603E+03  1.728753603E+03  0.000000000E+00  0.00000E+00  9.000E+00
      25     1     1     2     0     0  7.885740745E+01  1.193232793E+02 -1.310345002E+03  1.324041374E+03  1.250000000E+02  0.00000E+00  9.000E+00
      25     1     1     2     0     0 -9.429663824E+01 -1.313476934E+02 -3.838397331E+02  4.348586130E+02  1.250000000E+02  0.00000E+00  9.000E+00
      21     1     1     2   512   502  1.543923079E+01  1.202441408E+01  4.108528653E+01  4.550777022E+01  1.261592536E-06  0.00000E+00  9.000E+00
#rwgt            1           1   2.6003040594768215E-002           6       92109           0
</event>
<event>
      5   9999  3.79277E-02  9.05261E+01 -1.00000E+00  1.25804E-01
      21    -1     0     0   502   501  0.000000000E+00  0.000000000E+00  1.855199090E+03  1.855199090E+03  0.000000000E+00  0.00000E+00  9.000E+00
      21    -1     0     0   511   502  0.000000000E+00  0.000000000E+00 -4.887837659E+01  4.887837659E+01  0.000000000E+00  0.00000E+00  9.000E+00
      25     1     1     2     0     0  1.275057781E+02 -3.139983751E+01  1.547420482E+03  1.558004757E+03  1.250000000E+02  0.00000E+00  9.000E+00
      25     1     1     2     0     0 -5.606312485E+01 -2.419630196E+01  1.560953769E+02  2.090916108E+02  1.250000000E+02  0.00000E+00  9.000E+00
      21     1     1     2   511   501 -7.144265321E+01  5.559613946E+01  1.028048539E+02  1.369810987E+02  1.907348633E-06  0.00000E+00  9.000E+00
#rwgt            2          11   2.4063788768881825E-003           6       92457           0
</event>
<event>
      5   9999  3.79277E-02  2.30146E+02 -1.00000E+00  1.09472E-01
      21    -1     0     0   502   501  0.000000000E+00  0.000000000E+00  5.944465951E+02  5.944465951E+02  0.000000000E+00  0.00000E+00  9.000E+00
       3    -1     0     0   501     0  0.000000000E+00  0.000000000E+00 -2.070499691E+02  2.070499691E+02  0.000000000E+00  0.00000E+00  9.000E+00
      25     1     1     2     0     0  2.013709389E+01 -2.610759326E+01  3.002041205E+02  3.268556607E+02  1.250000000E+02  0.00000E+00  9.000E+00
      25     1     1     2     0     0  6.610400436E+01 -1.872692549E+02  6.460413461E+01  2.433890044E+02  1.250000000E+02  0.00000E+00  9.000E+00
       3     1     1     2   502     0 -8.624109826E+01  2.133768482E+02  2.258837091E+01  2.312518992E+02  4.129530925E-07  0.00000E+00  9.000E+00
#rwgt            1           1   5.0602066854209427E-002           6       92567           0
</event>
<event>
      5   9999  3.79277E-02  8.86883E+00 -1.00000E+00  2.01983E-01
      21    -1     0     0   502   511  0.000000000E+00  0.000000000E+00  3.286558047E+02  3.286558047E+02  0.000000000E+00  0.00000E+00  9.000E+00
      21    -1     0     0   501   502  0.000000000E+00  0.000000000E+00 -1.709461806E+02  1.709461806E+02  0.000000000E+00  0.00000E+00  9.000E+00
      25     1     1     2     0     0  7.299912434E+01  1.579568698E+01  3.821003729E+01  1.505436243E+02  1.250000000E+02  0.00000E+00  9.000E+00
      25     1     1     2     0     0 -6.600222276E+01 -2.124540833E+01 -7.013132273E+01  1.592201721E+02  1.250000000E+02  0.00000E+00  9.000E+00
      21     1     1     2   501   511 -6.996901573E+00  5.449721358E+00  1.896309095E+02  1.898381889E+02  0.000000000E+00  0.00000E+00  9.000E+00
#rwgt            1           1   2.2039630586506671E-002           6       92626           0
</event>
<event>
      5   9999  3.79277E-02  1.95860E+01 -1.00000E+00  1.67122E-01
      21    -1     0     0   502   501  0.000000000E+00  0.000000000E+00  3.126270883E+02  3.126270883E+02  0.000000000E+00  0.00000E+00  9.000E+00
      21    -1     0     0   512   502  0.000000000E+00  0.000000000E+00 -4.725327582E+02  4.725327582E+02  0.000000000E+00  0.00000E+00  9.000E+00
      25     1     1     2     0     0 -1.778316222E+02  1.264866730E+01  6.449173507E+01  2.270864561E+02  1.250000000E+02  0.00000E+00  9.000E+00
      25     1     1     2     0     0  1.617142765E+02 -2.377719817E+01  1.029862447E+02  2.301043871E+02  1.250000000E+02  0.00000E+00  9.000E+00
      21     1     1     2   512   501  1.611734577E+01  1.112853087E+01 -3.273836497E+02  3.279690033E+02  3.814697266E-06  0.00000E+00  9.000E+00
#rwgt            1           1   4.0164441476382512E-002           6       92847           0
</event>
<event>
      5   9999  3.79277E-02  1.28072E+01 -1.00000E+00  1.84104E-01
      21    -1     0     0   502   501  0.000000000E+00  0.000000000E+00  3.137103488E+02  3.137103488E+02  0.000000000E+00  0.00000E+00  9.000E+00
      -4    -1     0     0     0   502  0.000000000E+00  0.000000000E+00 -2.580576716E+02  2.580576716E+02  0.000000000E+00  0.00000E+00  9.000E+00
      25     1     1     2     0     0 -1.121211019E+02  3.927623555E+01  4.376911223E+01  1.779171137E+02  1.250000000E+02  0.00000E+00  9.000E+00
      25     1     1     2     0     0  1.013517030E+02 -3.234484773E+01  1.693614809E+02  2.358530646E+02  1.250000000E+02  0.00000E+00  9.000E+00
      -4     1     1     2     0   501  1.076939893E+01 -6.931387822E+00 -1.574779159E+02  1.579978421E+02  3.303624740E-06  0.00000E+00  9.000E+00
#rwgt            1           1   9.1718505203867609E-002           6       93153           0
</event>
<event>
      5   9999  3.79277E-02  1.10174E+02 -1.00000E+00  1.21964E-01
      21    -1     0     0   502   511  0.000000000E+00  0.000000000E+00  4.644897541E+02  4.644897541E+02  0.000000000E+00  0.00000E+00  9.000E+00
      21    -1     0     0   501   502  0.000000000E+00  0.000000000E+00 -3.188281436E+02  3.188281436E+02  0.000000000E+00  0.00000E+00  9.000E+00
      25     1     1     2     0     0  6.476146437E+01  2.875574102E+02  1.776909179E+02  3.661726011E+02  1.250000000E+02  0.00000E+00  9.000E+00
      25     1     1     2     0     0 -4.812239074E+01 -1.786467144E+02 -1.394645135E+02  2.632598784E+02  1.250000000E+02  0.00000E+00  9.000E+00
      21     1     1     2   501   511 -1.663907363E+01 -1.089106959E+02  1.074352060E+02  1.538854182E+02  0.000000000E+00  0.00000E+00  9.000E+00
#rwgt            2          11   2.5369175846626972E-003           6       93376           0
</event>
<event>
      5   9999  3.79277E-02  3.60375E+01 -1.00000E+00  1.47707E-01
      21    -1     0     0   502   512  0.000000000E+00  0.000000000E+00  1.373290246E+02  1.373290246E+02  0.000000000E+00  0.00000E+00  9.000E+00
      21    -1     0     0   501   502  0.000000000E+00  0.000000000E+00 -6.645828081E+02  6.645828081E+02  0.000000000E+00  0.00000E+00  9.000E+00
      25     1     1     2     0     0 -5.358711344E+01 -1.171823945E+02 -1.915139608E+02  2.624993133E+02  1.250000000E+02  0.00000E+00  9.000E+00
      25     1     1     2     0     0  8.424991431E+01  9.824847094E+01 -4.150087973E+02  4.523362819E+02  1.250000000E+02  0.00000E+00  9.000E+00
      21     1     1     2   501   512 -3.066280088E+01  1.893392355E+01  7.926897452E+01  8.707623752E+01  0.000000000E+00  0.00000E+00  9.000E+00
#rwgt            1           1   4.4657429758972175E-002           6       93486           0
</event>
<event>
      5   9999  3.79277E-02  1.91778E+01 -1.00000E+00  1.67887E-01
      21    -1     0     0   511   501  0.000000000E+00  0.000000000E+00  3.266728859E+03  3.266728859E+03  0.000000000E+00  0.00000E+00  9.000E+00
      21    -1     0     0   501   502  0.000000000E+00  0.000000000E+00 -1.450203169E+01  1.450203169E+01  0.000000000E+00  0.00000E+00  9.000E+00
      25     1     1     2     0     0  1.390059358E+02 -5.457421123E+01  1.524364041E+03  1.536753632E+03  1.250000000E+02  0.00000E+00  9.000E+00
      25     1     1     2     0     0 -1.578323180E+02  5.091973875E+01  1.326652873E+03  1.342809259E+03  1.250000000E+02  0.00000E+00  9.000E+00
      21     1     1     2   511   502  1.882638213E+01  3.654472478E+00  4.012099124E+02  4.016679993E+02  5.394796609E-06  0.00000E+00  9.000E+00
#rwgt            1           1   3.0818936367878799E-002           6       93613           0
</event>
<event>
      5   9999  3.79277E-02  1.30790E+01 -1.00000E+00  1.83181E-01
      21    -1     0     0   502   501  0.000000000E+00  0.000000000E+00  1.409986523E+02  1.409986523E+02  0.000000000E+00  0.00000E+00  9.000E+00
      21    -1     0     0   512   502  0.000000000E+00  0.000000000E+00 -2.964148829E+02  2.964148829E+02  0.000000000E+00  0.00000E+00  9.000E+00
      25     1     1     2     0     0 -6.231982750E+01 -1.091860368E+02  1.935061201E+00  1.772966328E+02  1.250000000E+02  0.00000E+00  9.000E+00
      25     1     1     2     0     0  6.429497288E+01  9.625708529E+01 -9.229557767E+01  1.937594995E+02  1.250000000E+02  0.00000E+00  9.000E+00
      21     1     1     2   512   501 -1.975145382E+00  1.292895150E+01 -6.505571410E+01  6.635740293E+01  9.536743164E-07  0.00000E+00  9.000E+00
#rwgt            1           1   2.1478969794469189E-002           6       94015           0
</event>
<event>
      5   9999  3.79277E-02  1.22152E+01 -1.00000E+00  1.86220E-01
      21    -1     0     0   511   501  0.000000000E+00  0.000000000E+00  4.826803323E+02  4.826803323E+02  0.000000000E+00  0.00000E+00  9.000E+00
      21    -1     0     0   501   502  0.000000000E+00  0.000000000E+00 -1.326909365E+02  1.326909365E+02  0.000000000E+00  0.00000E+00  9.000E+00
      25     1     1     2     0     0 -1.922049187E+02  5.398288053E+00  6.107994648E+01  2.373344311E+02  1.250000000E+02  0.00000E+00  9.000E+00
      25     1     1     2     0     0  1.829876615E+02  2.617593800E+00  2.360477346E+02  3.237821321E+02  1.250000000E+02  0.00000E+00  9.000E+00
      21     1     1     2   511   502  9.217257238E+00 -8.015881853E+00  5.286171476E+01  5.425470561E+01  0.000000000E+00  0.00000E+00  9.000E+00
#rwgt            1           1   4.0337652235973812E-002           6       94274           0
</event>
<event>
      5   9999  3.79277E-02  7.12548E+01 -1.00000E+00  1.30831E-01
      21    -1     0     0   502   501  0.000000000E+00  0.000000000E+00  2.805873432E+02  2.805873432E+02  0.000000000E+00  0.00000E+00  9.000E+00
      21    -1     0     0   501   512  0.000000000E+00  0.000000000E+00 -1.918599804E+02  1.918599804E+02  0.000000000E+00  0.00000E+00  9.000E+00
      25     1     1     2     0     0  1.236059967E+01  1.028859058E+02  1.241233620E+02  2.043768652E+02  1.250000000E+02  0.00000E+00  9.000E+00
      25     1     1     2     0     0  4.792292546E+01 -1.408746340E+02 -2.961429208E+01  1.965814731E+02  1.250000000E+02  0.00000E+00  9.000E+00
      21     1     1     2   502   512 -6.028352513E+01  3.798872816E+01 -5.781707087E+00  7.148898521E+01  1.420542632E-06  0.00000E+00  9.000E+00
#rwgt            1           1   2.5984475086247669E-002           6       94668           0
</event>
<event>
      5   9999  3.79277E-02  6.54523E+01 -1.00000E+00  1.32715E-01
      21    -1     0     0   502   511  0.000000000E+00  0.000000000E+00  9.952445109E+02  9.952445109E+02  0.000000000E+00  0.00000E+00  9.000E+00
      21    -1     0     0   501   502  0.000000000E+00  0.000000000E+00 -2.519770304E+02  2.519770304E+02  0.000000000E+00  0.00000E+00  9.000E+00
      25     1     1     2     0     0 -2.911446656E+02 -2.395479986E+02  2.084833665E+02  4.485964490E+02  1.250000000E+02  0.00000E+00  9.000E+00
      25     1     1     2     0     0  3.247725374E+02  1.833949050E+02  1.708728168E+02  4.288745874E+02  1.250000000E+02  0.00000E+00  9.000E+00
      21     1     1     2   501   511 -3.362787175E+01  5.615309362E+01  3.639112972E+02  3.697505049E+02  5.394796609E-06  0.00000E+00  9.000E+00
#rwgt            2          11   1.3640216233954487E-003           6       94899           0
</event>
<event>
      5   9999  3.79277E-02  6.98282E+01 -1.00000E+00  1.31275E-01
      21    -1     0     0   502   501  0.000000000E+00  0.000000000E+00  3.089504981E+02  3.089504981E+02  0.000000000E+00  0.00000E+00  9.000E+00
      21    -1     0     0   501   512  0.000000000E+00  0.000000000E+00 -8.482653779E+02  8.482653779E+02  0.000000000E+00  0.00000E+00  9.000E+00
      25     1     1     2     0     0  1.141718779E+02  9.778557276E+01 -8.945599202E+01  2.149990941E+02  1.250000000E+02  0.00000E+00  9.000E+00
      25     1     1     2     0     0 -1.003479938E+02 -1.662317426E+02  1.897018746E+02  2.988553385E+02  1.250000000E+02  0.00000E+00  9.000E+00
      21     1     1     2   502   512 -1.382388412E+01  6.844616986E+01 -6.395607624E+02  6.433614434E+02  1.321449896E-05  0.00000E+00  9.000E+00
#rwgt            1           1   7.9186546557480267E-002           6       94949           0
</event>
<event>
      5   9999  3.79277E-02  4.40098E+00 -1.00000E+00  2.54063E-01
      21    -1     0     0   502   501  0.000000000E+00  0.000000000E+00  4.625108782E+02  4.625108782E+02  0.000000000E+00  0.00000E+00  9.000E+00
      21    -1     0     0   511   502  0.000000000E+00  0.000000000E+00 -1.994600875E+02  1.994600875E+02  0.000000000E+00  0.00000E+00  9.000E+00
      25     1     1     2     0     0  9.757632217E+01 -7.785129359E+01  3.316365763E+02  3.757522871E+02  1.250000000E+02  0.00000E+00  9.000E+00
      25     1     1     2     0     0 -1.019764202E+02  7.793954064E+01  3.499283836E+01  1.825465996E+02  1.250000000E+02  0.00000E+00  9.000E+00
      21     1     1     2   511   501  4.400098072E+00 -8.824705556E-02 -1.035786239E+02  1.036720791E+02  1.907348633E-06  0.00000E+00  9.000E+00
#rwgt            1           1   3.8554358570878716E-002           6       95025           0
</event>
<event>
      5   9999  3.79277E-02  6.60158E+00 -1.00000E+00  2.19215E-01
      21    -1     0     0   502   512  0.000000000E+00  0.000000000E+00  4.973203753E+01  4.973203753E+01  0.000000000E+00  0.00000E+00  9.000E+00
      21    -1     0     0   501   502  0.000000000E+00  0.000000000E+00 -1.349430148E+03  1.349430148E+03  0.000000000E+00  0.00000E+00  9.000E+00
      25     1     1     2     0     0  1.373919656E+02 -1.682562985E+02 -4.848153563E+02  5.457633772E+02  1.250000000E+02  0.00000E+00  9.000E+00
      25     1     1     2     0     0 -1.374260955E+02  1.616548110E+02 -8.014714214E+02  8.384507433E+02  1.250000000E+02  0.00000E+00  9.000E+00
      21     1     1     2   501   512  3.412989698E-02  6.601487505E+00 -1.341133298E+01  1.494806524E+01  3.371747881E-07  0.00000E+00  9.000E+00
#rwgt            1           1   2.9925335911117110E-002           6       95567           0
</event>
<event>
      5   9999  3.79277E-02  3.73210E+01 -1.00000E+00  1.46732E-01
      21    -1     0     0   502   501  0.000000000E+00  0.000000000E+00  1.139232607E+03  1.139232607E+03  0.000000000E+00  0.00000E+00  9.000E+00
      21    -1     0     0   511   502  0.000000000E+00  0.000000000E+00 -1.174733969E+02  1.174733969E+02  0.000000000E+00  0.00000E+00  9.000E+00
      25     1     1     2     0     0 -4.793479315E+01  9.921563268E+00  1.020573042E+03  1.029364132E+03  1.250000000E+02  0.00000E+00  9.000E+00
      25     1     1     2     0     0  5.199377376E+01 -4.702117720E+01  6.187003500E+01  1.561001116E+02  1.250000000E+02  0.00000E+00  9.000E+00
      21     1     1     2   511   501 -4.058980610E+00  3.709961393E+01 -6.068386711E+01  7.124176025E+01  2.697398305E-06  0.00000E+00  9.000E+00
#rwgt            1           1   3.7973596876062124E-002           6       95929           0
</event>
<event>
      5   9999  3.79277E-02  9.83947E+01 -1.00000E+00  1.24145E-01
      21    -1     0     0   502   512  0.000000000E+00  0.000000000E+00  2.172954209E+02  2.172954209E+02  0.000000000E+00  0.00000E+00  9.000E+00
      21    -1     0     0   501   502  0.000000000E+00  0.000000000E+00 -2.040471283E+02  2.040471283E+02  0.000000000E+00  0.00000E+00  9.000E+00
      25     1     1     2     0     0 -3.142296259E+01  3.357672409E+01  8.810942083E+01  1.596968034E+02  1.250000000E+02  0.00000E+00  9.000E+00
      25     1     1     2     0     0 -2.204752415E+01  4.902122332E+01 -8.849190580E+01  1.623114015E+02  1.250000000E+02  0.00000E+00  9.000E+00
      21     1     1     2   501   512  5.347048673E+01 -8.259794742E+01  1.363077747E+01  9.933434433E+01  1.168007728E-06  0.00000E+00  9.000E+00
#rwgt            1           1   3.5945366488013553E-002           6       96067           0
</event>
<event>
      5   9999  3.79277E-02  1.48005E+01 -1.00000E+00  1.77933E-01
      21    -1     0     0   502   501  0.000000000E+00  0.000000000E+00  1.234411276E+02  1.234411276E+02  0.000000000E+00  0.00000E+00  9.000E+00
      21    -1     0     0   511   502  0.000000000E+00  0.000000000E+00 -3.823183172E+02  3.823183172E+02  0.000000000E+00  0.00000E+00  9.000E+00
      25     1     1     2     0     0 -1.210295360E+02  9.744224549E+01 -5.452562827E+01  2.067394107E+02  1.250000000E+02  0.00000E+00  9.000E+00
      25     1     1     2     0     0  1.114492788E+02 -8.616072343E+01 -1.445431320E+02  2.374075168E+02  1.250000000E+02  0.00000E+00  9.000E+00
      21     1     1     2   511   501  9.580257235E+00 -1.128152206E+01 -5.980842928E+01  6.161251724E+01  9.536743164E-07  0.00000E+00  9.000E+00
#rwgt            1           1   3.1226444908334101E-002           6       96267           0
</event>
<event>
      5   9999  3.79277E-02  6.06008E+01 -1.00000E+00  1.34473E-01
       3    -1     0     0   502     0  0.000000000E+00  0.000000000E+00  2.895325049E+02  2.895325049E+02  0.000000000E+00  0.00000E+00  9.000E+00
      21    -1     0     0   501   502  0.000000000E+00  0.000000000E+00 -1.532317854E+03  1.532317854E+03  0.000000000E+00  0.00000E+00  9.000E+00
      25     1     1     2     0     0 -1.705640289E+00 -7.217019629E+01 -1.216798991E+03  1.225331070E+03  1.250000000E+02  0.00000E+00  9.000E+00
      25     1     1     2     0     0  6.063049559E+01  8.632356722E+01 -2.860377377E+02  3.295002316E+02  1.250000000E+02  0.00000E+00  9.000E+00
       3     1     1     2   501     0 -5.892485530E+01 -1.415337093E+01  2.600513801E+02  2.670190569E+02  3.814697266E-06  0.00000E+00  9.000E+00
#rwgt            1           1   4.1902470161559187E-002           6       96451           0
</event>
<event>
      5   9999  3.79277E-02  8.04319E+01 -1.00000E+00  1.28236E-01
      21    -1     0     0   502   501  0.000000000E+00  0.000000000E+00  1.112417188E+02  1.112417188E+02  0.000000000E+00  0.00000E+00  9.000E+00
       2    -1     0     0   501     0  0.000000000E+00  0.000000000E+00 -9.657484794E+02  9.657484794E+02  0.000000000E+00  0.00000E+00  9.000E+00
      25     1     1     2     0     0 -1.375913827E+01  4.542479574E+01  3.470894505E+01  1.381391936E+02  1.250000000E+02  0.00000E+00  9.000E+00
      25     1     1     2     0     0  6.775064086E+01 -1.050420214E+02 -3.345284447E+02  3.783625985E+02  1.250000000E+02  0.00000E+00  9.000E+00
       2     1     1     2   502     0 -5.399150259E+01  5.961722564E+01 -5.546872609E+02  5.604884061E+02  7.629394531E-06  0.00000E+00  9.000E+00
#rwgt            1           1   3.5993209146859849E-002           6       96596           0
</event>
<event>
      5   9999  3.79277E-02  2.46826E+01 -1.00000E+00  1.59168E-01
      21    -1     0     0   502   511  0.000000000E+00  0.000000000E+00  1.936244278E+02  1.936244278E+02  0.000000000E+00  0.00000E+00  9.000E+00
      21    -1     0     0   501   502  0.000000000E+00  0.000000000E+00 -3.970076099E+02  3.970076099E+02  0.000000000E+00  0.00000E+00  9.000E+00
      25     1     1     2     0     0 -1.395884560E+02 -1.099399251E+02 -2.685750490E+02  3.454407056E+02  1.250000000E+02  0.00000E+00  9.000E+00
      25     1     1     2     0     0  1.185211071E+02  1.228006447E+02  5.580474583E+01  2.187839593E+02  1.250000000E+02  0.00000E+00  9.000E+00
      21     1     1     2   501   511  2.106734883E+01 -1.286071962E+01  9.387120994E+00  2.640737276E+01  3.576278687E-07  0.00000E+00  9.000E+00
#rwgt            1           1   5.0448382307081284E-002           6       96660           0
</event>
<event>
      5   9999  3.79277E-02  2.21658E+01 -1.00000E+00  1.62767E-01
      21    -1     0     0   512   501  0.000000000E+00  0.000000000E+00  2.003557420E+02  2.003557420E+02  0.000000000E+00  0.00000E+00  9.000E+00
      21    -1     0     0   501   502  0.000000000E+00  0.000000000E+00 -2.920715661E+02  2.920715661E+02  0.000000000E+00  0.00000E+00  9.000E+00
      25     1     1     2     0     0 -4.622409972E+01  1.649905715E+02 -1.055667941E+02  2.369132839E+02  1.250000000E+02  0.00000E+00  9.000E+00
      25     1     1     2     0     0  2.442133540E+01 -1.609952695E+02 -2.895022972E+01  2.073137579E+02  1.250000000E+02  0.00000E+00  9.000E+00
      21     1     1     2   512   502  2.180276432E+01 -3.995301999E+00  4.280119975E+01  4.820026628E+01  4.768371582E-07  0.00000E+00  9.000E+00
#rwgt            1           1   3.9693185093600272E-002           6       96770           0
</event>
<event>
      5   9999  3.79277E-02  1.53656E+02 -1.00000E+00  1.15981E-01
       2    -1     0     0   502     0  0.000000000E+00  0.000000000E+00  4.800179452E+03  4.800179452E+03  0.000000000E+00  0.00000E+00  9.000E+00
      21    -1     0     0   501   502  0.000000000E+00  0.000000000E+00 -4.265541339E+02  4.265541339E+02  0.000000000E+00  0.00000E+00  9.000E+00
      25     1     1     2     0     0 -1.714119289E+02  3.431025486E+02 -2.519662087E+01  4.041797594E+02  1.250000000E+02  0.00000E+00  9.000E+00
      25     1     1     2     0     0  2.453356242E+02 -2.083976559E+02 -6.895547201E+01  3.521349295E+02  1.250000000E+02  0.00000E+00  9.000E+00
       2     1     1     2   501     0 -7.392369526E+01 -1.347048926E+02  4.467777411E+03  4.470418897E+03  8.631674575E-05  0.00000E+00  9.000E+00
#rwgt            1           1   3.6404374235749271E-002           6       96928           0
</event>
<event>
      5   9999  3.79277E-02  3.35446E+01 -1.00000E+00  1.49746E-01
      21    -1     0     0   511   501  0.000000000E+00  0.000000000E+00  6.165463991E+01  6.165463991E+01  0.000000000E+00  0.00000E+00  9.000E+00
      21    -1     0     0   501   502  0.000000000E+00  0.000000000E+00 -6.587400174E+02  6.587400174E+02  0.000000000E+00  0.00000E+00  9.000E+00
      25     1     1     2     0     0 -2.439127769E+01  1.383259884E+02 -1.993519754E+02  2.740350773E+02  1.250000000E+02  0.00000E+00  9.000E+00
      25     1     1     2     0     0  7.994560964E+00 -1.090618430E+02 -3.558485188E+02  3.926978061E+02  1.250000000E+02  0.00000E+00  9.000E+00
      21     1     1     2   511   502  1.639671672E+01 -2.926414545E+01 -4.188488326E+01  5.366177386E+01  0.000000000E+00  0.00000E+00  9.000E+00
#rwgt            1           1  0.13077355541011559                6       97010           0
</event>
<event>
      5   9999  3.79277E-02  3.09939E+01 -1.00000E+00  1.52063E-01
      21    -1     0     0   502   501  0.000000000E+00  0.000000000E+00  1.070031604E+03  1.070031604E+03  0.000000000E+00  0.00000E+00  9.000E+00
      21    -1     0     0   512   502  0.000000000E+00  0.000000000E+00 -5.465792086E+01  5.465792086E+01  0.000000000E+00  0.00000E+00  9.000E+00
      25     1     1     2     0     0 -1.507953091E+02 -8.791800648E+00  3.484890895E+02  3.998576828E+02  1.250000000E+02  0.00000E+00  9.000E+00
      25     1     1     2     0     0  1.568714518E+02 -2.160072031E+01  6.636887615E+02  6.936735656E+02  1.250000000E+02  0.00000E+00  9.000E+00
      21     1     1     2   512   501 -6.076142745E+00  3.039252096E+01  3.195832039E+00  3.115827632E+01  1.000044449E-06  0.00000E+00  9.000E+00
#rwgt            1           1   3.9760709076818543E-002           6       97197           0
</event>
<event>
      5   9999  3.79277E-02  8.69013E+01 -1.00000E+00  1.26634E-01
      21    -1     0     0   511   501  0.000000000E+00  0.000000000E+00  2.662536852E+02  2.662536852E+02  0.000000000E+00  0.00000E+00  9.000E+00
      21    -1     0     0   501   502  0.000000000E+00  0.000000000E+00 -4.046885694E+02  4.046885694E+02  0.000000000E+00  0.00000E+00  9.000E+00
      25     1     1     2     0     0  1.891198498E+02  4.272715437E+01 -2.682285265E+02  3.537844962E+02  1.250000000E+02  0.00000E+00  9.000E+00
      25     1     1     2     0     0 -1.544414560E+02  3.695497301E+01  8.318609671E+01  2.185469287E+02  1.250000000E+02  0.00000E+00  9.000E+00
      21     1     1     2   511   502 -3.467839379E+01 -7.968212737E+01  4.660754559E+01  9.861082965E+01  1.784161275E-06  0.00000E+00  9.000E+00
#rwgt            1           1   2.7439201735951112E-002           6       97486           0
</event>
<event>
      5   9999  3.79277E-02  9.29966E+01 -1.00000E+00  1.25263E-01
      21    -1     0     0   502   512  0.000000000E+00  0.000000000E+00  9.323128302E+02  9.323128302E+02  0.000000000E+00  0.00000E+00  9.000E+00
      21    -1     0     0   501   502  0.000000000E+00  0.000000000E+00 -1.738387210E+02  1.738387210E+02  0.000000000E+00  0.00000E+00  9.000E+00
      25     1     1     2     0     0  1.792416125E+01 -3.079861385E+02  1.265012027E+02  3.560959019E+02  1.250000000E+02  0.00000E+00  9.000E+00
      25     1     1     2     0     0 -9.885548892E+01  2.621768344E+02  5.270720305E+02  6.098680394E+02  1.250000000E+02  0.00000E+00  9.000E+00
      21     1     1     2   501   512  8.093132767E+01  4.580930418E+01  1.049008762E+02  1.401876099E+02  1.907348633E-06  0.00000E+00  9.000E+00
#rwgt            1           1   3.0099636415312724E-002           6       97524           0
</event>
<event>
      5   9999  3.79277E-02  4.42936E+01 -1.00000E+00  1.42146E-01
      21    -1     0     0   511   501  0.000000000E+00  0.000000000E+00  6.139104656E+02  6.139104656E+02  0.000000000E+00  0.00000E+00  9.000E+00
      21    -1     0     0   501   502  0.000000000E+00  0.000000000E+00 -1.102103772E+02  1.102103772E+02  0.000000000E+00  0.00000E+00  9.000E+00
      25     1     1     2     0     0  8.629449004E+01 -2.003322587E+02  2.177508952E+02  3.325961594E+02  1.250000000E+02  0.00000E+00  9.000E+00
      25     1     1     2     0     0 -4.781453315E+01  1.783955270E+02  2.339134308E+02  3.231898618E+02  1.250000000E+02  0.00000E+00  9.000E+00
      21     1     1     2   511   502 -3.847995689E+01  2.193673174E+01  5.203576235E+01  6.833482161E+01  0.000000000E+00  0.00000E+00  9.000E+00
#rwgt            1           1   2.6898827185343952E-002           6       97770           0
</event>
<event>
      5   9999  3.79277E-02  3.21102E+01 -1.00000E+00  1.51017E-01
      21    -1     0     0   502   501  0.000000000E+00  0.000000000E+00  2.696018103E+02  2.696018103E+02  0.000000000E+00  0.00000E+00  9.000E+00
       1    -1     0     0   501     0  0.000000000E+00  0.000000000E+00 -1.200161346E+03  1.200161346E+03  0.000000000E+00  0.00000E+00  9.000E+00
      25     1     1     2     0     0  2.933007090E+01  2.701305106E+02 -1.129955677E+02  3.197244816E+02  1.250000000E+02  0.00000E+00  9.000E+00
      25     1     1     2     0     0 -5.472120201E+01 -2.897864528E+02  1.134661323E+01  3.205063865E+02  1.250000000E+02  0.00000E+00  9.000E+00
       1     1     1     2   502     0  2.539113111E+01  1.965594219E+01 -8.289105810E+02  8.295322881E+02  1.868812365E-05  0.00000E+00  9.000E+00
#rwgt            1           1   2.3567888361026013E-002           6       97887           0
</event>
<event>
      5   9999  3.79277E-02  3.35859E+01 -1.00000E+00  1.49710E-01
      -2    -1     0     0     0   501  0.000000000E+00  0.000000000E+00  2.316497581E+02  2.316497581E+02  0.000000000E+00  0.00000E+00  9.000E+00
      21    -1     0     0   501   502  0.000000000E+00  0.000000000E+00 -4.378722623E+02  4.378722623E+02  0.000000000E+00  0.00000E+00  9.000E+00
      25     1     1     2     0     0  9.733178960E+01 -1.435239299E+00 -3.060947826E+02  3.446658572E+02  1.250000000E+02  0.00000E+00  9.000E+00
      25     1     1     2     0     0 -1.289199309E+02  1.284582756E+01 -3.711238494E+01  1.838142894E+02  1.250000000E+02  0.00000E+00  9.000E+00
      -2     1     1     2     0   502  3.158814129E+01 -1.141058827E+01  1.369846633E+02  1.410418738E+02  1.907348633E-06  0.00000E+00  9.000E+00
#rwgt            1           1   4.5359154433073604E-002           6       98034           0
</event>
<event>
      5   9999  3.79277E-02  8.81080E+01 -1.00000E+00  1.26353E-01
      21    -1     0     0   511   501  0.000000000E+00  0.000000000E+00  5.519146935E+02  5.519146935E+02  0.000000000E+00  0.00000E+00  9.000E+00
      21    -1     0     0   501   502  0.000000000E+00  0.000000000E+00 -1.920291504E+02  1.920291504E+02  0.000000000E+00  0.00000E+00  9.000E+00
      25     1     1     2     0     0 -1.379372639E+02  1.296818183E+02  2.400454254E+02  3.302890689E+02  1.250000000E+02  0.00000E+00  9.000E+00
      25     1     1     2     0     0  4.982990134E+01 -1.300250433E+02 -7.361419649E+01  2.010810306E+02  1.250000000E+02  0.00000E+00  9.000E+00
      21     1     1     2   511   502  8.810736252E+01  3.432249860E-01  1.934543142E+02  2.125737444E+02  2.697398305E-06  0.00000E+00  9.000E+00
#rwgt            1           1   2.9807989349644938E-002           6       98304           0
</event>
<event>
      5   9999  3.79277E-02  1.55733E+01 -1.00000E+00  1.75863E-01
      21    -1     0     0   512   501  0.000000000E+00  0.000000000E+00  8.245444524E+01  8.245444524E+01  0.000000000E+00  0.00000E+00  9.000E+00
      21    -1     0     0   501   502  0.000000000E+00  0.000000000E+00 -9.225061436E+02  9.225061436E+02  0.000000000E+00  0.00000E+00  9.000E+00
      25     1     1     2     0     0 -1.930523985E+02  5.979885216E+01 -6.307969952E+02  6.740734237E+02  1.250000000E+02  0.00000E+00  9.000E+00
      25     1     1     2     0     0  1.999725137E+02 -4.584751416E+01 -1.911694299E+02  3.070207676E+02  1.250000000E+02  0.00000E+00  9.000E+00
      21     1     1     2   512   502 -6.920115172E+00 -1.395133801E+01 -1.808527312E+01  2.386639751E+01  3.371747881E-07  0.00000E+00  9.000E+00
#rwgt            1           1   4.1523404759755647E-002           6       98454           0
</event>
<event>
      5   9999  3.79277E-02  1.75803E+01 -1.00000E+00  1.71126E-01
      21    -1     0     0   502   501  0.000000000E+00  0.000000000E+00  4.321500650E+02  4.321500650E+02  0.000000000E+00  0.00000E+00  9.000E+00
       4    -1     0     0   501     0  0.000000000E+00  0.000000000E+00 -2.664533984E+02  2.664533984E+02  0.000000000E+00  0.00000E+00  9.000E+00
      25     1     1     2     0     0 -5.713743577E+00 -2.501926319E+02  1.521190353E+02  3.184245607E+02  1.250000000E+02  0.00000E+00  9.000E+00
      25     1     1     2     0     0 -8.553187408E+00  2.399202436E+02  1.025835410E+02  2.894533869E+02  1.250000000E+02  0.00000E+00  9.000E+00
       4     1     1     2   502     0  1.426693098E+01  1.027238833E+01 -8.900590962E+01  9.072551586E+01  0.000000000E+00  0.00000E+00  9.000E+00
#rwgt            1           1   2.0194427985904199E-002           6       98678           0
</event>
<event>
      5   9999  3.79277E-02  1.67719E+02 -1.00000E+00  1.14504E-01
      21    -1     0     0   511   501  0.000000000E+00  0.000000000E+00  7.137832475E+01  7.137832475E+01  0.000000000E+00  0.00000E+00  9.000E+00
      21    -1     0     0   501   502  0.000000000E+00  0.000000000E+00 -2.956113046E+03  2.956113046E+03  0.000000000E+00  0.00000E+00  9.000E+00
      25     1     1     2     0     0  2.183234637E+02 -1.412260944E+02 -8.383800607E+02  8.866318688E+02  1.250000000E+02  0.00000E+00  9.000E+00
      25     1     1     2     0     0 -5.185343640E+01  1.207955927E+02 -1.925762590E+03  1.934287184E+03  1.250000000E+02  0.00000E+00  9.000E+00
      21     1     1     2   511   502 -1.664700273E+02  2.043050171E+01 -1.205920704E+02  2.065723186E+02  3.303624740E-06  0.00000E+00  9.000E+00
#rwgt            1           1   3.3425567090249853E-002           6       98905           0
</event>
<event>
      5   9999  3.79277E-02  4.86947E+01 -1.00000E+00  1.39734E-01
      21    -1     0     0   502   501  0.000000000E+00  0.000000000E+00  1.234479658E+02  1.234479658E+02  0.000000000E+00  0.00000E+00  9.000E+00
      21    -1     0     0   501   512  0.000000000E+00  0.000000000E+00 -3.333835088E+02  3.333835088E+02  0.000000000E+00  0.00000E+00  9.000E+00
      25     1     1     2     0     0 -7.036571847E+01 -3.195144420E+01 -1.738069156E+02  2.276094748E+02  1.250000000E+02  0.00000E+00  9.000E+00
      25     1     1     2     0     0  2.899886367E+01  5.764111263E+01  3.316661905E+01  1.445283937E+02  1.250000000E+02  0.00000E+00  9.000E+00
      21     1     1     2   502   512  4.136685480E+01 -2.568966843E+01 -6.929524641E+01  8.469360610E+01  1.348699152E-06  0.00000E+00  9.000E+00
#rwgt            1           1   4.8622653194783580E-002           6       98965           0
</event>
<event>
      5   9999  3.79277E-02  6.90994E+01 -1.00000E+00  1.31506E-01
      21    -1     0     0   511   501  0.000000000E+00  0.000000000E+00  1.635318212E+02  1.635318212E+02  0.000000000E+00  0.00000E+00  9.000E+00
      21    -1     0     0   501   502  0.000000000E+00  0.000000000E+00 -5.838438069E+02  5.838438069E+02  0.000000000E+00  0.00000E+00  9.000E+00
      25     1     1     2     0     0 -1.584011762E+02 -1.332732598E+02 -1.961883384E+02  3.113961440E+02  1.250000000E+02  0.00000E+00  9.000E+00
      25     1     1     2     0     0  2.085867045E+02  1.807720677E+02 -1.987335097E+02  3.623630247E+02  1.250000000E+02  0.00000E+00  9.000E+00
      21     1     1     2   511   502 -5.018552825E+01 -4.749880795E+01 -2.539013762E+01  7.361645937E+01  8.920806376E-07  0.00000E+00  9.000E+00
#rwgt            1           1   4.2410042810704131E-002           6       99054           0
</event>
<event>
      5   9999  3.79277E-02  9.27453E+01 -1.00000E+00  1.25317E-01
       2    -1     0     0   502     0  0.000000000E+00  0.000000000E+00  1.142846668E+03  1.142846668E+03  0.000000000E+00  0.00000E+00  9.000E+00
      21    -1     0     0   501   502  0.000000000E+00  0.000000000E+00 -4.496741667E+02  4.496741667E+02  0.000000000E+00  0.00000E+00  9.000E+00
      25     1     1     2     0     0  6.293930431E+01 -2.641098254E+02 -2.134816743E+02  3.673074749E+02  1.250000000E+02  0.00000E+00  9.000E+00
      25     1     1     2     0     0  1.576018829E+01  2.150377003E+02 -5.818255133E+01  2.559292976E+02  1.250000000E+02  0.00000E+00  9.000E+00
       2     1     1     2   501     0 -7.869949260E+01  4.907212502E+01  9.648367271E+02  9.692840623E+02  0.000000000E+00  0.00000E+00  9.000E+00
#rwgt            1           1   7.4113630762158836E-002           6       99145           0
</event>
<event>
      5   9999 -3.79277E-02  7.48060E+01 -1.00000E+00  1.29777E-01
      21    -1     0     0   502   511  0.000000000E+00  0.000000000E+00  1.140836874E+03  1.140836874E+03  0.000000000E+00  0.00000E+00  9.000E+00
      21    -1     0     0   501   502  0.000000000E+00  0.000000000E+00 -5.763784634E+01  5.763784634E+01  0.000000000E+00  0.00000E+00  9.000E+00
      25     1     1     2     0     0  6.827868262E+01  1.909990767E+02  5.553983584E+02  6.043467236E+02  1.250000000E+02  0.00000E+00  9.000E+00
      25     1     1     2     0     0 -4.084500825E+01 -1.214050325E+02  2.569623647E+02  3.131487721E+02  1.250000000E+02  0.00000E+00  9.000E+00
      21     1     1     2   501   511 -2.743367436E+01 -6.959404417E+01  2.708383051E+02  2.809792252E+02  0.000000000E+00  0.00000E+00  9.000E+00
#rwgt            1           1  -3.1314319377339334E-002           6       99290           0
</event>
<event>
      5   9999  3.79277E-02  7.57266E+01 -1.00000E+00  1.29514E-01
      21    -1     0     0   512   501  0.000000000E+00  0.000000000E+00  4.514149222E+02  4.514149222E+02  0.000000000E+00  0.00000E+00  9.000E+00
      21    -1     0     0   501   502  0.000000000E+00  0.000000000E+00 -2.043785765E+02  2.043785765E+02  0.000000000E+00  0.00000E+00  9.000E+00
      25     1     1     2     0     0 -6.314943225E+01 -1.429412499E+02  1.552753646E+02  2.532893416E+02  1.250000000E+02  0.00000E+00  9.000E+00
      25     1     1     2     0     0  9.751616703E+01  2.104204323E+02 -2.359362574E+01  2.645143102E+02  1.250000000E+02  0.00000E+00  9.000E+00
      21     1     1     2   512   502 -3.436673479E+01 -6.747918238E+01  1.153546069E+02  1.379898469E+02  1.907348633E-06  0.00000E+00  9.000E+00
#rwgt            1           1   3.7549344311305848E-002           6       99387           0
</event>
<event>
      5   9999  3.79277E-02  1.05965E+01 -1.00000E+00  1.92893E-01
      21    -1     0     0   502   501  0.000000000E+00  0.000000000E+00  3.926027602E+01  3.926027602E+01  0.000000000E+00  0.00000E+00  9.000E+00
      21    -1     0     0   501   511  0.000000000E+00  0.000000000E+00 -2.088321791E+03  2.088321791E+03  0.000000000E+00  0.00000E+00  9.000E+00
      25     1     1     2     0     0 -1.821980977E+02 -7.107803027E+01 -6.749274376E+02  7.137228308E+02  1.250000000E+02  0.00000E+00  9.000E+00
      25     1     1     2     0     0  1.906515400E+02  6.468854885E+01 -6.884650321E+02  7.281083151E+02  1.250000000E+02  0.00000E+00  9.000E+00
      21     1     1     2   502   511 -8.453442299E+00  6.389481420E+00 -6.856690456E+02  6.857509215E+02  7.629394531E-06  0.00000E+00  9.000E+00
#rwgt            1           1   3.7966260104270767E-002           6       99501           0
</event>
<event>
      5   9999  3.79277E-02  6.45265E+01 -1.00000E+00  1.33037E-01
      21    -1     0     0   512   501  0.000000000E+00  0.000000000E+00  6.886065679E+02  6.886065679E+02  0.000000000E+00  0.00000E+00  9.000E+00
      21    -1     0     0   501   502  0.000000000E+00  0.000000000E+00 -1.459061145E+02  1.459061145E+02  0.000000000E+00  0.00000E+00  9.000E+00
      25     1     1     2     0     0  3.685699948E+01  1.135431945E+02  1.368118263E+02  2.204381348E+02  1.250000000E+02  0.00000E+00  9.000E+00
      25     1     1     2     0     0 -7.700500092E+01 -6.302773968E+01 -3.905481001E+01  1.644765768E+02  1.250000000E+02  0.00000E+00  9.000E+00
      21     1     1     2   512   502  4.014800144E+01 -5.051545487E+01  4.449434370E+02  4.495979708E+02  7.629394531E-06  0.00000E+00  9.000E+00
#rwgt            1           1   3.1448766053282742E-002           6       99878           0
</event>
<event>
      5   9999  3.79277E-02  7.79017E+01 -1.00000E+00  1.28911E-01
      21    -1     0     0   511   501  0.000000000E+00  0.000000000E+00  1.720913085E+02  1.720913085E+02  0.000000000E+00  0.00000E+00  9.000E+00
      21    -1     0     0   501   502  0.000000000E+00  0.000000000E+00 -6.537841007E+02  6.537841007E+02  0.000000000E+00  0.00000E+00  9.000E+00
      25     1     1     2     0     0 -2.376510563E+02  2.911112009E+01 -2.225850876E+02  3.499922900E+02  1.250000000E+02  0.00000E+00  9.000E+00
      25     1     1     2     0     0  2.795884036E+02 -9.476123792E+01 -2.191525527E+02  3.883326009E+02  1.250000000E+02  0.00000E+00  9.000E+00
      21     1     1     2   511   502 -4.193734726E+01  6.565011783E+01 -3.995515201E+01  8.755051821E+01  6.743495762E-07  0.00000E+00  9.000E+00
#rwgt            1           1   3.2453584925848468E-002           6       99936           0
</event>
<event>
      5   9999  3.79277E-02  5.69217E+01 -1.00000E+00  1.35937E-01
      21    -1     0     0   502   512  0.000000000E+00  0.000000000E+00  4.509247673E+01  4.509247673E+01  0.000000000E+00  0.00000E+00  9.000E+00
      21    -1     0     0   501   502  0.000000000E+00  0.000000000E+00 -1.290783241E+03  1.290783241E+03  0.000000000E+00  0.00000E+00  9.000E+00
      25     1     1     2     0     0 -1.058170444E+02 -1.903438672E+01 -1.720701138E+02  2.383121457E+02  1.250000000E+02  0.00000E+00  9.000E+00
      25     1     1     2     0     0  6.032126866E+01 -1.517408713E+01 -9.638706028E+02  9.739304120E+02  1.250000000E+02  0.00000E+00  9.000E+00
      21     1     1     2   501   512  4.549577572E+01  3.420847385E+01 -1.097500478E+02  1.236331601E+02  0.000000000E+00  0.00000E+00  9.000E+00
#rwgt            2          11   3.0699015372572486E-003           6      100045           0
</event>
<event>
      5   9999  3.79277E-02  5.72469E+01 -1.00000E+00  1.35803E-01
      21    -1     0     0   502   501  0.000000000E+00  0.000000000E+00  1.461910207E+02  1.461910207E+02  0.000000000E+00  0.00000E+00  9.000E+00
      -1    -1     0     0     0   502  0.000000000E+00  0.000000000E+00 -4.091960348E+02  4.091960348E+02  0.000000000E+00  0.00000E+00  9.000E+00
      25     1     1     2     0     0  2.660553962E+00 -6.946144482E+01 -1.211259481E+02  1.874258951E+02  1.250000000E+02  0.00000E+00  9.000E+00
      25     1     1     2     0     0 -3.207611091E+00  1.221712940E+01  7.319199685E+01  1.454015661E+02  1.250000000E+02  0.00000E+00  9.000E+00
      -1     1     1     2     0   501  5.470571284E-01  5.724431542E+01 -2.150710629E+02  2.225595943E+02  2.697398305E-06  0.00000E+00  9.000E+00
#rwgt            1           1   3.8719419238663205E-002           6      100170           0
</event>
<event>
      5   9999  3.79277E-02  5.63388E+01 -1.00000E+00  1.36181E-01
      21    -1     0     0   502   511  0.000000000E+00  0.000000000E+00  3.605773549E+02  3.605773549E+02  0.000000000E+00  0.00000E+00  9.000E+00
      21    -1     0     0   501   502  0.000000000E+00  0.000000000E+00 -4.769705798E+02  4.769705798E+02  0.000000000E+00  0.00000E+00  9.000E+00
      25     1     1     2     0     0 -5.800190158E+01  8.107873235E+01  4.858466113E+01  1.671031140E+02  1.250000000E+02  0.00000E+00  9.000E+00
      25     1     1     2     0     0  1.671141957E+00 -8.012481076E+01 -4.010960832E+02  4.276983119E+02  1.250000000E+02  0.00000E+00  9.000E+00
      21     1     1     2   501   511  5.633075962E+01 -9.539215830E-01  2.361181973E+02  2.427465088E+02  2.697398305E-06  0.00000E+00  9.000E+00
#rwgt            1           1   4.8642504767511030E-002           6      100278           0
</event>
<event>
      5   9999  3.79277E-02  2.85450E+01 -1.00000E+00  1.54555E-01
      21    -1     0     0   512   501  0.000000000E+00  0.000000000E+00  3.501095666E+02  3.501095666E+02  0.000000000E+00  0.00000E+00  9.000E+00
      21    -1     0     0   501   502  0.000000000E+00  0.000000000E+00 -1.179347130E+02  1.179347130E+02  0.000000000E+00  0.00000E+00  9.000E+00
      25     1     1     2     0     0  7.087668144E+01  8.895552516E+01  3.279290892E+01  1.721538971E+02  1.250000000E+02  0.00000E+00  9.000E+00
      25     1     1     2     0     0 -9.897747877E+01 -9.397152906E+01  1.474477615E+02  2.366284682E+02  1.250000000E+02  0.00000E+00  9.000E+00
      21     1     1     2   512   502  2.810079734E+01  5.016003905E+00  5.193418318E+01  5.926191432E+01  6.743495762E-07  0.00000E+00  9.000E+00
#rwgt            1           1   4.5788395649817334E-002           6      100379           0
</event>
<event>
      5   9999  3.79277E-02  2.39229E+02 -1.00000E+00  1.08888E-01
      21    -1     0     0   502   501  0.000000000E+00  0.000000000E+00  1.888275879E+03  1.888275879E+03  0.000000000E+00  0.00000E+00  9.000E+00
      21    -1     0     0   501   511  0.000000000E+00  0.000000000E+00 -9.052746708E+01  9.052746708E+01  0.000000000E+00  0.00000E+00  9.000E+00
      25     1     1     2     0     0 -7.031559183E+01  2.214595963E+02  6.566360798E+02  7.076613431E+02  1.250000000E+02  0.00000E+00  9.000E+00
      25     1     1     2     0     0 -1.685196185E+02 -2.351805607E+02  7.364092613E+02  8.010195741E+02  1.250000000E+02  0.00000E+00  9.000E+00
      21     1     1     2   502   511  2.388352104E+02  1.372096441E+01  4.047030709E+02  4.701224289E+02  1.078959322E-05  0.00000E+00  9.000E+00
#rwgt            1           1  0.12275613001182027                6      100519           0
</event>
<event>
      5   9999  3.79277E-02  1.55221E+02 -1.00000E+00  1.15808E-01
      21    -1     0     0   502   501  0.000000000E+00  0.000000000E+00  7.460863858E+02  7.460863858E+02  0.000000000E+00  0.00000E+00  9.000E+00
      21    -1     0     0   512   502  0.000000000E+00  0.000000000E+00 -1.436680050E+02  1.436680050E+02  0.000000000E+00  0.00000E+00  9.000E+00
      25     1     1     2     0     0 -2.199668676E+02  7.442655336E+01  3.542098579E+02  4.416043004E+02  1.250000000E+02  0.00000E+00  9.000E+00
      25     1     1     2     0     0  7.804611749E+01 -1.372917556E+02  2.041909529E+02  2.868085910E+02  1.250000000E+02  0.00000E+00  9.000E+00
      21     1     1     2   512   501  1.419207501E+02  6.286520224E+01  4.401757008E+01  1.613414994E+02  1.907348633E-06  0.00000E+00  9.000E+00
#rwgt            2          11   2.4564767681812751E-003           6      100706           0
</event>
<event>
      5   9999  3.79277E-02  1.10376E+01 -1.00000E+00  1.90928E-01
      21    -1     0     0   502   511  0.000000000E+00  0.000000000E+00  1.472237988E+03  1.472237988E+03  0.000000000E+00  0.00000E+00  9.000E+00
      21    -1     0     0   501   502  0.000000000E+00  0.000000000E+00 -3.134391261E+01  3.134391261E+01  0.000000000E+00  0.00000E+00  9.000E+00
      25     1     1     2     0     0 -1.147410016E+02 -3.479886347E+01  6.437940447E+02  6.666875058E+02  1.250000000E+02  0.00000E+00  9.000E+00
      25     1     1     2     0     0  1.082447225E+02  4.372229445E+01  3.489895315E+02  3.886479796E+02  1.250000000E+02  0.00000E+00  9.000E+00
      21     1     1     2   501   511  6.496279063E+00 -8.923430981E+00  4.481104990E+02  4.482464150E+02  0.000000000E+00  0.00000E+00  9.000E+00
#rwgt            1           1   4.1719888044525789E-002           6      100741           0
</event>
<event>
      5   9999  3.79277E-02  2.98727E+01 -1.00000E+00  1.53168E-01
      21    -1     0     0   512   501  0.000000000E+00  0.000000000E+00  2.514283378E+02  2.514283378E+02  0.000000000E+00  0.00000E+00  9.000E+00
      21    -1     0     0   501   502  0.000000000E+00  0.000000000E+00 -8.006106665E+02  8.006106665E+02  0.000000000E+00  0.00000E+00  9.000E+00
      25     1     1     2     0     0 -1.069517330E+02  1.649105574E+02 -1.943012311E+02  3.033350186E+02  1.250000000E+02  0.00000E+00  9.000E+00
      25     1     1     2     0     0  1.053357114E+02 -1.947394749E+02 -5.211019943E+02  5.798201132E+02  1.250000000E+02  0.00000E+00  9.000E+00
      21     1     1     2   512   502  1.616021531E+00  2.982891751E+01  1.662208967E+02  1.688838724E+02  0.000000000E+00  0.00000E+00  9.000E+00
#rwgt            1           1   3.5320357034005490E-002           6      100893           0
</event>
<event>
      5   9999  3.79277E-02  8.30571E+01 -1.00000E+00  1.27566E-01
      21    -1     0     0   502   501  0.000000000E+00  0.000000000E+00  1.638656848E+02  1.638656848E+02  0.000000000E+00  0.00000E+00  9.000E+00
      21    -1     0     0   501   511  0.000000000E+00  0.000000000E+00 -3.029844273E+02  3.029844273E+02  0.000000000E+00  0.00000E+00  9.000E+00
      25     1     1     2     0     0  7.386151392E+01 -8.182148751E+00 -9.976406047E+01  1.763528808E+02  1.250000000E+02  0.00000E+00  9.000E+00
      25     1     1     2     0     0 -1.377372434E+02 -4.490618258E+01  1.387338849E+01  1.918478156E+02  1.250000000E+02  0.00000E+00  9.000E+00
      21     1     1     2   502   511  6.387572947E+01  5.308833133E+01 -5.322807050E+01  9.864941576E+01  2.023048729E-06  0.00000E+00  9.000E+00
#rwgt            1           1   4.0277121737535934E-002           6      101042           0
</event>
<event>
      5   9999  3.79277E-02  1.32359E+02 -1.00000E+00  1.18589E-01
      21    -1     0     0   502   501  0.000000000E+00  0.000000000E+00  1.219441236E+03  1.219441236E+03  0.000000000E+00  0.00000E+00  9.000E+00
      21    -1     0     0   501   512  0.000000000E+00  0.000000000E+00 -6.405032512E+02  6.405032512E+02  0.000000000E+00  0.00000E+00  9.000E+00
      25     1     1     2     0     0  1.299351310E+02  3.181100566E+02  7.001112382E+02  7.898467524E+02  1.250000000E+02  0.00000E+00  9.000E+00
      25     1     1     2     0     0 -2.618685814E+02 -3.075083832E+02  3.697325478E+02  5.616615677E+02  1.250000000E+02  0.00000E+00  9.000E+00
      21     1     1     2   502   512  1.319334504E+02 -1.060167335E+01 -4.909058010E+02  5.084361674E+02  9.344061824E-06  0.00000E+00  9.000E+00
#rwgt            1           1   6.2172949861107558E-002           6      101126           0
</event>
<event>
      5   9999  3.79277E-02  1.45420E+02 -1.00000E+00  1.16930E-01
      21    -1     0     0   502   501  0.000000000E+00  0.000000000E+00  2.309709237E+02  2.309709237E+02  0.000000000E+00  0.00000E+00  9.000E+00
      21    -1     0     0   501   511  0.000000000E+00  0.000000000E+00 -1.657639854E+03  1.657639854E+03  0.000000000E+00  0.00000E+00  9.000E+00
      25     1     1     2     0     0 -1.403164919E+02  9.709435115E+01 -1.293725588E+02  2.479481597E+02  1.250000000E+02  0.00000E+00  9.000E+00
      25     1     1     2     0     0  2.163123384E+01 -1.811223190E+02  9.508650480E+01  2.407065602E+02  1.250000000E+02  0.00000E+00  9.000E+00
      21     1     1     2   502   511  1.186852581E+02  8.402796783E+01 -1.392382876E+03  1.399956058E+03  1.525878906E-05  0.00000E+00  9.000E+00
#rwgt            1           1   4.1874261598845886E-002           6      101192           0
</event>
<event>
      5   9999  3.79277E-02  4.37706E+01 -1.00000E+00  1.42455E-01
      21    -1     0     0   502   501  0.000000000E+00  0.000000000E+00  1.968153737E+02  1.968153737E+02  0.000000000E+00  0.00000E+00  9.000E+00
      21    -1     0     0   501   512  0.000000000E+00  0.000000000E+00 -4.468755363E+02  4.468755363E+02  0.000000000E+00  0.00000E+00  9.000E+00
      25     1     1     2     0     0  1.047897659E+02 -1.027428004E+02  1.080808332E+02  2.210055307E+02  1.250000000E+02  0.00000E+00  9.000E+00
      25     1     1     2     0     0 -6.203828523E+01  9.335260661E+01 -2.137401471E+02  2.717964468E+02  1.250000000E+02  0.00000E+00  9.000E+00
      21     1     1     2   502   512 -4.275148069E+01  9.390193828E+00 -1.444008487E+02  1.508889325E+02  2.697398305E-06  0.00000E+00  9.000E+00
#rwgt            1           1   4.0526087636552424E-002           6      101318           0
</event>
<event>
      5   9999  3.79277E-02  2.57907E+01 -1.00000E+00  1.57745E-01
      21    -1     0     0   502   511  0.000000000E+00  0.000000000E+00  9.736715698E+01  9.736715698E+01  0.000000000E+00  0.00000E+00  9.000E+00
      21    -1     0     0   501   502  0.000000000E+00  0.000000000E+00 -6.753762756E+02  6.753762756E+02  0.000000000E+00  0.00000E+00  9.000E+00
      25     1     1     2     0     0 -1.561743473E+02  1.421558507E+01 -3.735885790E+02  4.240117168E+02  1.250000000E+02  0.00000E+00  9.000E+00
      25     1     1     2     0     0  1.490125967E+02  1.056080820E+01 -2.372603130E+02  3.069751468E+02  1.250000000E+02  0.00000E+00  9.000E+00
      21     1     1     2   501   511  7.161750654E+00 -2.477639328E+01  3.283977337E+01  4.175656896E+01  1.430511475E-06  0.00000E+00  9.000E+00
#rwgt            1           1   3.1467135654811899E-002           6      101437           0
</event>
<event>
      5   9999  3.79277E-02  6.28658E+01 -1.00000E+00  1.33629E-01
      21    -1     0     0   502   501  0.000000000E+00  0.000000000E+00  4.897332037E+02  4.897332037E+02  0.000000000E+00  0.00000E+00  9.000E+00
      21    -1     0     0   512   502  0.000000000E+00  0.000000000E+00 -1.885878070E+02  1.885878070E+02  0.000000000E+00  0.00000E+00  9.000E+00
      25     1     1     2     0     0 -1.016450248E+02  2.318474388E+02  1.657060165E+02  3.273658960E+02  1.250000000E+02  0.00000E+00  9.000E+00
      25     1     1     2     0     0  3.946584484E+01 -2.225812205E+02  1.259334562E+02  2.873746475E+02  1.250000000E+02  0.00000E+00  9.000E+00
      21     1     1     2   512   501  6.217917999E+01 -9.266218382E+00  9.505923977E+00  6.358046726E+01  1.186117455E-06  0.00000E+00  9.000E+00
#rwgt            1           1   4.3674013732870547E-002           6      101599           0
</event>
<event>
      5   9999  3.79277E-02  1.39641E+01 -1.00000E+00  1.80362E-01
      21    -1     0     0   502   501  0.000000000E+00  0.000000000E+00  1.734405924E+02  1.734405924E+02  0.000000000E+00  0.00000E+00  9.000E+00
      21    -1     0     0   501   511  0.000000000E+00  0.000000000E+00 -1.812373839E+02  1.812373839E+02  0.000000000E+00  0.00000E+00  9.000E+00
      25     1     1     2     0     0 -3.421370669E+00 -8.972261739E+01  2.193825824E+01  1.554610595E+02  1.250000000E+02  0.00000E+00  9.000E+00
      25     1     1     2     0     0 -6.332928159E+00  9.971516697E+01  6.732462221E+00  1.601672456E+02  1.250000000E+02  0.00000E+00  9.000E+00
      21     1     1     2   502   511  9.754298828E+00 -9.992549584E+00 -3.646751196E+01  3.904967121E+01  0.000000000E+00  0.00000E+00  9.000E+00
#rwgt            1           1   3.6851966542160886E-002           6      101697           0
</event>
<event>
      5   9999 -3.79277E-02  5.72678E+01 -1.00000E+00  1.35794E-01
      21    -1     0     0   502   512  0.000000000E+00  0.000000000E+00  4.650919058E+01  4.650919058E+01  0.000000000E+00  0.00000E+00  9.000E+00
      21    -1     0     0   501   502  0.000000000E+00  0.000000000E+00 -1.131026390E+03  1.131026390E+03  0.000000000E+00  0.00000E+00  9.000E+00
      25     1     1     2     0     0 -3.203886187E+00 -1.141454489E+02 -2.275561539E+02  2.836304842E+02  1.250000000E+02  0.00000E+00  9.000E+00
      25     1     1     2     0     0  5.825491321E+01  1.299246683E+02 -7.371569127E+02  7.611171843E+02  1.250000000E+02  0.00000E+00  9.000E+00
      21     1     1     2   501   512 -5.505102702E+01 -1.577921934E+01 -1.198041325E+02  1.327879118E+02  1.348699152E-06  0.00000E+00  9.000E+00
#rwgt            1           1  -1.8432873164902545E-002           6      101858           0
</event>
<event>
      5   9999  3.79277E-02  4.42288E+01 -1.00000E+00  1.42184E-01
      -2    -1     0     0     0   501  0.000000000E+00  0.000000000E+00  7.338361330E+02  7.338361330E+02  0.000000000E+00  0.00000E+00  9.000E+00
      21    -1     0     0   501   502  0.000000000E+00  0.000000000E+00 -2.679940189E+02  2.679940189E+02  0.000000000E+00  0.00000E+00  9.000E+00
      25     1     1     2     0     0  5.897929721E+01 -1.216790611E+02 -1.737224235E+01  1.849625535E+02  1.250000000E+02  0.00000E+00  9.000E+00
      25     1     1     2     0     0 -2.672071605E+01  9.142059747E+01 -1.288411927E+02  2.032160801E+02  1.250000000E+02  0.00000E+00  9.000E+00
      -2     1     1     2     0   502 -3.225858116E+01  3.025846363E+01  6.120555491E+02  6.136515182E+02  1.078959322E-05  0.00000E+00  9.000E+00
#rwgt            1           1   4.0606636819041961E-002           6      102115           0
</event>
<event>
      5   9999  3.79277E-02  1.38637E+02 -1.00000E+00  1.17766E-01
      21    -1     0     0   502   501  0.000000000E+00  0.000000000E+00  3.021532657E+02  3.021532657E+02  0.000000000E+00  0.00000E+00  9.000E+00
      21    -1     0     0   501   511  0.000000000E+00  0.000000000E+00 -1.962691976E+02  1.962691976E+02  0.000000000E+00  0.00000E+00  9.000E+00
      25     1     1     2     0     0  1.186151092E+02 -4.824477992E+01  7.940035520E+01  1.957715999E+02  1.250000000E+02  0.00000E+00  9.000E+00
      25     1     1     2     0     0  1.234275176E+01  9.374374078E+01  4.430198128E+01  1.628738714E+02  1.250000000E+02  0.00000E+00  9.000E+00
      21     1     1     2   502   511 -1.309578609E+02 -4.549896085E+01 -1.781826838E+01  1.397769919E+02  3.982375404E-06  0.00000E+00  9.000E+00
#rwgt            1           1   3.1020756428240179E-002           6      102370           0
</event>
<event>
      5   9999  3.79277E-02  5.40897E+01 -1.00000E+00  1.37155E-01
      21    -1     0     0   502   501  0.000000000E+00  0.000000000E+00  5.261460086E+02  5.261460086E+02  0.000000000E+00  0.00000E+00  9.000E+00
      21    -1     0     0   501   512  0.000000000E+00  0.000000000E+00 -2.010291795E+02  2.010291795E+02  0.000000000E+00  0.00000E+00  9.000E+00
      25     1     1     2     0     0  1.164065760E+02  1.732419194E+02  1.970015451E+02  3.130461026E+02  1.250000000E+02  0.00000E+00  9.000E+00
      25     1     1     2     0     0 -1.668682611E+02 -1.537658766E+02  1.977802682E+02  3.259309679E+02  1.250000000E+02  0.00000E+00  9.000E+00
      21     1     1     2   502   512  5.046168517E+01 -1.947604277E+01 -6.966498424E+01  8.819811756E+01  9.536743164E-07  0.00000E+00  9.000E+00
#rwgt            1           1  0.10753419366902899                6      102442           0
</event>
<event>
      5   9999  3.79277E-02  2.35497E+02 -1.00000E+00  1.09125E-01
      21    -1     0     0   502   511  0.000000000E+00  0.000000000E+00  1.227960667E+02  1.227960667E+02  0.000000000E+00  0.00000E+00  9.000E+00
      21    -1     0     0   501   502  0.000000000E+00  0.000000000E+00 -1.214666561E+03  1.214666561E+03  0.000000000E+00  0.00000E+00  9.000E+00
      25     1     1     2     0     0  2.007962501E+02 -2.584919849E+01 -8.202703849E+02  8.540818575E+02  1.250000000E+02  0.00000E+00  9.000E+00
      25     1     1     2     0     0  3.469202317E+01  2.788312537E+01 -1.253925335E+01  1.332787981E+02  1.250000000E+02  0.00000E+00  9.000E+00
      21     1     1     2   501   511 -2.354882732E+02 -2.033926878E+00 -2.590608559E+02  3.501019719E+02  3.814697266E-06  0.00000E+00  9.000E+00
#rwgt            1           1   3.3050153970936906E-002           6      102529           0
</event>
<event>
      5   9999  3.79277E-02  1.39149E+02 -1.00000E+00  1.17701E-01
      21    -1     0     0   502   501  0.000000000E+00  0.000000000E+00  2.810387796E+02  2.810387796E+02  0.000000000E+00  0.00000E+00  9.000E+00
      21    -1     0     0   512   502  0.000000000E+00  0.000000000E+00 -3.805986363E+02  3.805986363E+02  0.000000000E+00  0.00000E+00  9.000E+00
      25     1     1     2     0     0  7.633447655E+01 -2.425945728E+02 -5.104889431E+01  2.879410854E+02  1.250000000E+02  0.00000E+00  9.000E+00
      25     1     1     2     0     0  4.811176004E+01  1.803411273E+02  4.785829450E+00  2.246899370E+02  1.250000000E+02  0.00000E+00  9.000E+00
      21     1     1     2   512   501 -1.244462366E+02  6.225344554E+01 -5.329679177E+01  1.490063935E+02  0.000000000E+00  0.00000E+00  9.000E+00
#rwgt            1           1   3.0087749898013692E-002           6      102574           0
</event>
<event>
      5   9999  3.79277E-02  5.98427E+01 -1.00000E+00  1.34764E-01
      21    -1     0     0   511   501  0.000000000E+00  0.000000000E+00  1.148856624E+02  1.148856624E+02  0.000000000E+00  0.00000E+00  9.000E+00
      21    -1     0     0   501   502  0.000000000E+00  0.000000000E+00 -7.669780874E+02  7.669780874E+02  0.000000000E+00  0.00000E+00  9.000E+00
      25     1     1     2     0     0 -1.921722424E+02 -1.657697184E+01 -9.748159643E+01  2.496650323E+02  1.250000000E+02  0.00000E+00  9.000E+00
      25     1     1     2     0     0  1.505193317E+02 -2.639020998E+01 -5.333066602E+02  5.686769788E+02  1.250000000E+02  0.00000E+00  9.000E+00
      21     1     1     2   511   502  4.165291062E+01  4.296718182E+01 -2.130416833E+01  6.352173852E+01  6.743495762E-07  0.00000E+00  9.000E+00
#rwgt            1           1   4.1324706780424297E-002           6      102621           0
</event>
<event>
      5   9999  3.79277E-02  1.05259E+02 -1.00000E+00  1.22835E-01
      21    -1     0     0   502   501  0.000000000E+00  0.000000000E+00  1.192228447E+03  1.192228447E+03  0.000000000E+00  0.00000E+00  9.000E+00
      21    -1     0     0   501   512  0.000000000E+00  0.000000000E+00 -7.677346297E+01  7.677346297E+01  0.000000000E+00  0.00000E+00  9.000E+00
      25     1     1     2     0     0 -2.041814515E+02 -5.818799207E+01  6.819946170E+02  7.251327914E+02  1.250000000E+02  0.00000E+00  9.000E+00
      25     1     1     2     0     0  1.248376780E+02 -1.097878388E+01  3.931458103E+02  4.311538098E+02  1.250000000E+02  0.00000E+00  9.000E+00
      21     1     1     2   502   512  7.934377350E+01  6.916677595E+01  4.031455631E+01  1.127153084E+02  1.430511475E-06  0.00000E+00  9.000E+00
#rwgt            1           1   4.0515505920386226E-002           6      102698           0
</event>
<event>
      5   9999  3.79277E-02  6.48577E+01 -1.00000E+00  1.32921E-01
      21    -1     0     0   502   501  0.000000000E+00  0.000000000E+00  1.229656748E+02  1.229656748E+02  0.000000000E+00  0.00000E+00  9.000E+00
      21    -1     0     0   501   511  0.000000000E+00  0.000000000E+00 -5.495260815E+02  5.495260815E+02  0.000000000E+00  0.00000E+00  9.000E+00
      25     1     1     2     0     0  6.726083129E+01  1.778528150E+02 -7.832121185E+01  2.406550549E+02  1.250000000E+02  0.00000E+00  9.000E+00
      25     1     1     2     0     0 -3.249159632E+01 -1.231023048E+02 -1.890967746E+02  2.599855216E+02  1.250000000E+02  0.00000E+00  9.000E+00
      21     1     1     2   502   511 -3.476923497E+01 -5.475051020E+01 -1.591424202E+02  1.718511797E+02  0.000000000E+00  0.00000E+00  9.000E+00
#rwgt            1           1   3.6434444720875696E-002           6      102766           0
</event>
<event>
      5   9999  3.79277E-02  1.24819E+01 -1.00000E+00  1.85248E-01
      21    -1     0     0   502   501  0.000000000E+00  0.000000000E+00  2.804495293E+02  2.804495293E+02  0.000000000E+00  0.00000E+00  9.000E+00
      21    -1     0     0   512   502  0.000000000E+00  0.000000000E+00 -3.488971181E+02  3.488971181E+02  0.000000000E+00  0.00000E+00  9.000E+00
      25     1     1     2     0     0 -1.406187009E+02 -2.187656282E+02 -7.343372048E+00  2.886363530E+02  1.250000000E+02  0.00000E+00  9.000E+00
      25     1     1     2     0     0  1.290114459E+02  2.141754494E+02 -1.219022992E+00  2.795381232E+02  1.250000000E+02  0.00000E+00  9.000E+00
      21     1     1     2   512   501  1.160725499E+01  4.590178854E+00 -5.988519376E+01  6.117217131E+01  6.743495762E-07  0.00000E+00  9.000E+00
#rwgt            1           1   3.8399441893209936E-002           6      102871           0
</event>
<event>
      5   9999  3.79277E-02  1.73655E+02 -1.00000E+00  1.13928E-01
       2    -1     0     0   502     0  0.000000000E+00  0.000000000E+00  1.532330896E+03  1.532330896E+03  0.000000000E+00  0.00000E+00  9.000E+00
      21    -1     0     0   501   502  0.000000000E+00  0.000000000E+00 -1.153784409E+02  1.153784409E+02  0.000000000E+00  0.00000E+00  9.000E+00
      25     1     1     2     0     0 -4.192288126E+00 -5.541186087E+00 -3.965944182E+01  1.313246030E+02  1.250000000E+02  0.00000E+00  9.000E+00
      25     1     1     2     0     0 -1.663424656E+02  3.831493103E+01  4.815292901E+02  5.259594157E+02  1.250000000E+02  0.00000E+00  9.000E+00
       2     1     1     2   501     0  1.705347537E+02 -3.277374494E+01  9.750826065E+02  9.904253177E+02  1.525878906E-05  0.00000E+00  9.000E+00
#rwgt            1           1   4.3303865227590110E-002           6      103127           0
</event>
<event>
      5   9999 -3.79277E-02  4.12469E+01 -1.00000E+00  1.44018E-01
      21    -1     0     0   502   501  0.000000000E+00  0.000000000E+00  1.316186022E+03  1.316186022E+03  0.000000000E+00  0.00000E+00  9.000E+00
      -1    -1     0     0     0   502  0.000000000E+00  0.000000000E+00 -6.667753987E+01  6.667753987E+01  0.000000000E+00  0.00000E+00  9.000E+00
      25     1     1     2     0     0  2.008561976E+02  1.272754737E+02  7.715491333E+02  8.169793898E+02  1.250000000E+02  0.00000E+00  9.000E+00
      25     1     1     2     0     0 -1.700247444E+02 -1.546749330E+02  4.166820871E+02  4.920179979E+02  1.250000000E+02  0.00000E+00  9.000E+00
      -1     1     1     2     0   501 -3.083145317E+01  2.739945929E+01  6.127726215E+01  7.386617447E+01  9.536743164E-07  0.00000E+00  9.000E+00
#rwgt            1           1  -8.2789940870927226E-002           6      103265           0
</event>
<event>
      5   9999  3.79277E-02  1.09992E+02 -1.00000E+00  1.21996E-01
      21    -1     0     0   502   501  0.000000000E+00  0.000000000E+00  1.310513050E+02  1.310513050E+02  0.000000000E+00  0.00000E+00  9.000E+00
       1    -1     0     0   501     0  0.000000000E+00  0.000000000E+00 -5.088553708E+02  5.088553708E+02  0.000000000E+00  0.00000E+00  9.000E+00
      25     1     1     2     0     0 -8.174241922E+01  9.764409956E+01 -1.381316649E+02  2.256580380E+02  1.250000000E+02  0.00000E+00  9.000E+00
      25     1     1     2     0     0  1.798704394E+02 -4.795370777E+01 -1.313208838E+02  2.598520879E+02  1.250000000E+02  0.00000E+00  9.000E+00
       1     1     1     2   502     0 -9.812802016E+01 -4.969039179E+01 -1.083515171E+02  1.543965500E+02  1.348699152E-06  0.00000E+00  9.000E+00
#rwgt            1           1   4.1852847954601875E-002           6      103453           0
</event>
<event>
      5   9999  3.79277E-02  2.70141E+01 -1.00000E+00  1.56271E-01
       1    -1     0     0   502     0  0.000000000E+00  0.000000000E+00  1.465136374E+03  1.465136374E+03  0.000000000E+00  0.00000E+00  9.000E+00
      21    -1     0     0   501   502  0.000000000E+00  0.000000000E+00 -9.218757042E+01  9.218757042E+01  0.000000000E+00  0.00000E+00  9.000E+00
      25     1     1     2     0     0 -1.622738455E+02 -1.212737788E+02  1.120766134E+02  2.631089083E+02  1.250000000E+02  0.00000E+00  9.000E+00
      25     1     1     2     0     0  1.816076107E+02  1.024066580E+02  8.974518221E+02  9.297920310E+02  1.250000000E+02  0.00000E+00  9.000E+00
       1     1     1     2   501     0 -1.933376525E+01  1.886712083E+01  3.634203684E+02  3.644230054E+02  0.000000000E+00  0.00000E+00  9.000E+00
#rwgt            2          17   5.8391545422021374E-005           6      103539           0
</event>
<event>
      5   9999  3.79277E-02  2.29648E+01 -1.00000E+00  1.61564E-01
      21    -1     0     0   511   501  0.000000000E+00  0.000000000E+00  1.895905712E+02  1.895905712E+02  0.000000000E+00  0.00000E+00  9.000E+00
      21    -1     0     0   501   502  0.000000000E+00  0.000000000E+00 -3.574736020E+02  3.574736020E+02  0.000000000E+00  0.00000E+00  9.000E+00
      25     1     1     2     0     0  1.643294694E+01 -9.546783208E+01  8.842468233E+01  1.811851902E+02  1.250000000E+02  0.00000E+00  9.000E+00
      25     1     1     2     0     0 -7.745852191E+00  7.420953320E+01 -2.903585319E+02  3.248078356E+02  1.250000000E+02  0.00000E+00  9.000E+00
      21     1     1     2   511   502 -8.687094753E+00  2.125829888E+01  3.405081877E+01  4.107114735E+01  6.743495762E-07  0.00000E+00  9.000E+00
#rwgt            1           1   4.7887205276521995E-002           6      103708           0
</event>
<event>
      5   9999  3.79277E-02  1.81054E+01 -1.00000E+00  1.70016E-01
      21    -1     0     0   512   501  0.000000000E+00  0.000000000E+00  7.634465308E+02  7.634465308E+02  0.000000000E+00  0.00000E+00  9.000E+00
      21    -1     0     0   501   502  0.000000000E+00  0.000000000E+00 -7.690487795E+01  7.690487795E+01  0.000000000E+00  0.00000E+00  9.000E+00
      25     1     1     2     0     0 -1.137078006E+02 -3.269249578E+01  6.054229903E+02  6.294126313E+02  1.250000000E+02  0.00000E+00  9.000E+00
      25     1     1     2     0     0  1.061361262E+02  1.624640517E+01  4.544862646E+01  1.709368322E+02  1.250000000E+02  0.00000E+00  9.000E+00
      21     1     1     2   512   502  7.571674421E+00  1.644609061E+01  3.567003609E+01  4.000194526E+01  4.768371582E-07  0.00000E+00  9.000E+00
#rwgt            1           1   3.5729797089514216E-002           6      103863           0
</event>
<event>
      5   9999  3.79277E-02  5.33931E+01 -1.00000E+00  1.37468E-01
      21    -1     0     0   502   511  0.000000000E+00  0.000000000E+00  1.024578578E+02  1.024578578E+02  0.000000000E+00  0.00000E+00  9.000E+00
      21    -1     0     0   501   502  0.000000000E+00  0.000000000E+00 -5.951905979E+02  5.951905979E+02  0.000000000E+00  0.00000E+00  9.000E+00
      25     1     1     2     0     0  1.216572242E+01 -6.987834789E+01  1.243302003E+01  1.442586853E+02  1.250000000E+02  0.00000E+00  9.000E+00
      25     1     1     2     0     0 -8.075271664E+00  1.664216105E+01 -4.761298903E+02  4.926122654E+02  1.250000000E+02  0.00000E+00  9.000E+00
      21     1     1     2   501   511 -4.090450758E+00  5.323618684E+01 -2.903586985E+01  6.077750501E+01  0.000000000E+00  0.00000E+00  9.000E+00
#rwgt            1           1   4.5508744476591007E-002           6      104088           0
</event>
<event>
      5   9999  3.79277E-02  2.86740E+01 -1.00000E+00  1.54416E-01
      21    -1     0     0   502   501  0.000000000E+00  0.000000000E+00  4.239794309E+02  4.239794309E+02  0.000000000E+00  0.00000E+00  9.000E+00
      21    -1     0     0   512   502  0.000000000E+00  0.000000000E+00 -1.394107811E+02  1.394107811E+02  0.000000000E+00  0.00000E+00  9.000E+00
      25     1     1     2     0     0  1.534296172E+02  5.990550220E+01  6.529001775E+01  2.168342756E+02  1.250000000E+02  0.00000E+00  9.000E+00
      25     1     1     2     0     0 -1.352250363E+02 -8.205933060E+01  2.383048496E+02  3.121437898E+02  1.250000000E+02  0.00000E+00  9.000E+00
      21     1     1     2   512   501 -1.820458091E+01  2.215382841E+01 -1.902621759E+01  3.441214662E+01  4.768371582E-07  0.00000E+00  9.000E+00
#rwgt            1           1   5.9829411760194441E-002           6      104289           0
</event>
<event>
      5   9999  3.79277E-02  1.65702E+02 -1.00000E+00  1.14705E-01
      21    -1     0     0   502   501  0.000000000E+00  0.000000000E+00  2.030575048E+02  2.030575048E+02  0.000000000E+00  0.00000E+00  9.000E+00
       1    -1     0     0   501     0  0.000000000E+00  0.000000000E+00 -1.034771317E+03  1.034771317E+03  0.000000000E+00  0.00000E+00  9.000E+00
      25     1     1     2     0     0 -1.742141693E+02  6.977954618E+01 -1.689728580E+02  2.817740027E+02  1.250000000E+02  0.00000E+00  9.000E+00
      25     1     1     2     0     0  2.482417126E+02  7.846712458E+01 -1.689930031E+01  2.892950464E+02  1.250000000E+02  0.00000E+00  9.000E+00
       1     1     1     2   502     0 -7.402754329E+01 -1.482466708E+02 -6.458416534E+02  6.667597722E+02  7.629394531E-06  0.00000E+00  9.000E+00
#rwgt            1           1   4.2139760780260258E-002           6      104723           0
</event>
<event>
      5   9999  3.79277E-02  3.18957E+01 -1.00000E+00  1.51214E-01
      21    -1     0     0   511   501  0.000000000E+00  0.000000000E+00  6.461736286E+01  6.461736286E+01  0.000000000E+00  0.00000E+00  9.000E+00
      21    -1     0     0   501   502  0.000000000E+00  0.000000000E+00 -6.110283489E+02  6.110283489E+02  0.000000000E+00  0.00000E+00  9.000E+00
      25     1     1     2     0     0 -6.685593950E+01 -1.093368509E+02 -3.632061704E+02  4.049296060E+02  1.250000000E+02  0.00000E+00  9.000E+00
      25     1     1     2     0     0  3.583447007E+01  1.019201714E+02 -1.670898874E+02  2.349805547E+02  1.250000000E+02  0.00000E+00  9.000E+00
      21     1     1     2   511   502  3.102146943E+01  7.416679448E+00 -1.611492823E+01  3.573555108E+01  2.384185791E-07  0.00000E+00  9.000E+00
#rwgt            1           1   2.5136780128251043E-002           6      104816           0
</event>
<event>
      5   9999  3.79277E-02  2.43080E+01 -1.00000E+00  1.59669E-01
      21    -1     0     0   502   501  0.000000000E+00  0.000000000E+00  2.302979315E+02  2.302979315E+02  0.000000000E+00  0.00000E+00  9.000E+00
      21    -1     0     0   501   512  0.000000000E+00  0.000000000E+00 -2.858338506E+02  2.858338506E+02  0.000000000E+00  0.00000E+00  9.000E+00
      25     1     1     2     0     0 -6.361650053E+01 -9.117108147E+01  1.221196625E+02  2.071169650E+02  1.250000000E+02  0.00000E+00  9.000E+00
      25     1     1     2     0     0  8.739798918E+01  8.613915343E+01 -5.445025527E+01  1.834344367E+02  1.250000000E+02  0.00000E+00  9.000E+00
      21     1     1     2   502   512 -2.378148865E+01  5.031928034E+00 -1.232053263E+02  1.255803804E+02  1.907348633E-06  0.00000E+00  9.000E+00
#rwgt            1           1   3.6559288082342996E-002           6      104919           0
</event>
<event>
      5   9999  3.79277E-02  1.24685E+01 -1.00000E+00  1.85296E-01
      21    -1     0     0   502   501  0.000000000E+00  0.000000000E+00  1.605005920E+03  1.605005920E+03  0.000000000E+00  0.00000E+00  9.000E+00
      21    -1     0     0   511   502  0.000000000E+00  0.000000000E+00 -5.344527868E+02  5.344527868E+02  0.000000000E+00  0.00000E+00  9.000E+00
      25     1     1     2     0     0  1.366891354E+02 -1.693312255E+01  1.418087194E+02  2.338917768E+02  1.250000000E+02  0.00000E+00  9.000E+00
      25     1     1     2     0     0 -1.317785412E+02  2.839391468E+01  1.411112691E+03  1.423037534E+03  1.250000000E+02  0.00000E+00  9.000E+00
      21     1     1     2   511   501 -4.910594235E+00 -1.146079213E+01 -4.823682766E+02  4.825293960E+02  1.078959322E-05  0.00000E+00  9.000E+00
#rwgt            1           1   1.6877177739843170E-002           6      105070           0
</event>
<event>
      5   9999  3.79277E-02  6.71414E+01 -1.00000E+00  1.32144E-01
      21    -1     0     0   502   501  0.000000000E+00  0.000000000E+00  8.666105722E+02  8.666105722E+02  0.000000000E+00  0.00000E+00  9.000E+00
      21    -1     0     0   512   502  0.000000000E+00  0.000000000E+00 -5.542810788E+01  5.542810788E+01  0.000000000E+00  0.00000E+00  9.000E+00
      25     1     1     2     0     0  1.739491699E+01 -4.019596356E+01  1.104639159E+02  1.724690562E+02  1.250000000E+02  0.00000E+00  9.000E+00
      25     1     1     2     0     0 -2.040693248E+01  1.072697481E+02  6.322555229E+02  6.536782756E+02  1.250000000E+02  0.00000E+00  9.000E+00
      21     1     1     2   512   501  3.012015490E+00 -6.707378456E+01  6.846302542E+01  9.589134821E+01  1.348699152E-06  0.00000E+00  9.000E+00
#rwgt            1           1   4.9841188288641779E-002           6      105283           0
</event>
<event>
      5   9999  3.79277E-02  9.14917E+01 -1.00000E+00  1.25590E-01
      21    -1     0     0   511   501  0.000000000E+00  0.000000000E+00  8.836949954E+01  8.836949954E+01  0.000000000E+00  0.00000E+00  9.000E+00
      21    -1     0     0   501   502  0.000000000E+00  0.000000000E+00 -7.691864149E+02  7.691864149E+02  0.000000000E+00  0.00000E+00  9.000E+00
      25     1     1     2     0     0  5.655059561E+01  1.418389861E+02 -2.823095155E+02  3.444414760E+02  1.250000000E+02  0.00000E+00  9.000E+00
      25     1     1     2     0     0 -1.452767496E+02 -1.195141837E+02 -3.248717290E+02  3.956710937E+02  1.250000000E+02  0.00000E+00  9.000E+00
      21     1     1     2   511   502  8.872615395E+01 -2.232480240E+01 -7.363567080E+01  1.174433447E+02  1.651812370E-06  0.00000E+00  9.000E+00
#rwgt            1           1   3.8875921604022583E-002           6      105445           0
</event>
<event>
      5   9999  3.79277E-02  1.24573E+02 -1.00000E+00  1.19683E-01
      21    -1     0     0   512   501  0.000000000E+00  0.000000000E+00  9.440365047E+01  9.440365047E+01  0.000000000E+00  0.00000E+00  9.000E+00
      21    -1     0     0   501   502  0.000000000E+00  0.000000000E+00 -1.703677915E+03  1.703677915E+03  0.000000000E+00  0.00000E+00  9.000E+00
      25     1     1     2     0     0  6.151970011E+01 -1.139932365E+02 -8.675667541E+02  8.860452608E+02  1.250000000E+02  0.00000E+00  9.000E+00
      25     1     1     2     0     0 -4.500469135E+00  3.235357999E+00 -7.734314713E+02  7.834870532E+02  1.250000000E+02  0.00000E+00  9.000E+00
      21     1     1     2   512   502 -5.701923097E+01  1.107578785E+02  3.172396082E+01  1.285492514E+02  1.907348633E-06  0.00000E+00  9.000E+00
#rwgt            1           1   3.4020728264555669E-002           6      105534           0
</event>
<event>
      5   9999  3.79277E-02  7.37419E+01 -1.00000E+00  1.30085E-01
      21    -1     0     0   502   501  0.000000000E+00  0.000000000E+00  2.537352889E+02  2.537352889E+02  0.000000000E+00  0.00000E+00  9.000E+00
      21    -1     0     0   501   511  0.000000000E+00  0.000000000E+00 -7.258590082E+02  7.258590082E+02  0.000000000E+00  0.00000E+00  9.000E+00
      25     1     1     2     0     0  2.121696034E+02  2.079618785E+02 -1.850116862E+01  3.228488451E+02  1.250000000E+02  0.00000E+00  9.000E+00
      25     1     1     2     0     0 -2.106772614E+02 -2.816887104E+02 -2.754937542E+02  4.639560826E+02  1.250000000E+02  0.00000E+00  9.000E+00
      21     1     1     2   502   511 -1.492342067E+00  7.372683180E+01 -1.781287965E+02  1.927893694E+02  2.697398305E-06  0.00000E+00  9.000E+00
#rwgt            1           1   3.9363873156398416E-002           6      105562           0
</event>
<event>
      5   9999 -3.79277E-02  3.72986E+01 -1.00000E+00  1.46749E-01
      21    -1     0     0   502   512  0.000000000E+00  0.000000000E+00  2.026448570E+02  2.026448570E+02  0.000000000E+00  0.00000E+00  9.000E+00
      21    -1     0     0   501   502  0.000000000E+00  0.000000000E+00 -4.815971742E+02  4.815971742E+02  0.000000000E+00  0.00000E+00  9.000E+00
      25     1     1     2     0     0  5.565123851E+01 -1.615311244E+02 -1.455589304E+02  2.569080900E+02  1.250000000E+02  0.00000E+00  9.000E+00
      25     1     1     2     0     0 -2.365021602E+01  1.423706509E+02 -2.444526469E+02  3.101787090E+02  1.250000000E+02  0.00000E+00  9.000E+00
      21     1     1     2   501   512 -3.200102250E+01  1.916047350E+01  1.110592600E+02  1.171552322E+02  0.000000000E+00  0.00000E+00  9.000E+00
#rwgt            1           1  -9.4188565053427639E-002           6      105752           0
</event>
<event>
      5   9999  3.79277E-02  5.06339E+01 -1.00000E+00  1.38764E-01
      21    -1     0     0   502   501  0.000000000E+00  0.000000000E+00  6.695847308E+02  6.695847308E+02  0.000000000E+00  0.00000E+00  9.000E+00
      21    -1     0     0   511   502  0.000000000E+00  0.000000000E+00 -4.541430125E+02  4.541430125E+02  0.000000000E+00  0.00000E+00  9.000E+00
      25     1     1     2     0     0  1.231535286E+02 -8.831356894E+01  4.516833576E+02  4.925534829E+02  1.250000000E+02  0.00000E+00  9.000E+00
      25     1     1     2     0     0 -1.265402427E+02  1.388341093E+02  1.306982851E+02  2.607573291E+02  1.250000000E+02  0.00000E+00  9.000E+00
      21     1     1     2   511   501  3.386714067E+00 -5.052054039E+01 -3.669399244E+02  3.704169313E+02  5.394796609E-06  0.00000E+00  9.000E+00
#rwgt            1           1   4.6938357302308761E-002           6      106011           0
</event>
<event>
      5   9999  3.79277E-02  3.00835E+01 -1.00000E+00  1.52956E-01
      -5    -1     0     0     0   501  0.000000000E+00  0.000000000E+00  1.440874755E+02  1.440874755E+02  0.000000000E+00  0.00000E+00  9.000E+00
      21    -1     0     0   501   502  0.000000000E+00  0.000000000E+00 -2.863456588E+02  2.863456588E+02  0.000000000E+00  0.00000E+00  9.000E+00
      25     1     1     2     0     0 -3.422776895E+01  5.267734166E+01 -4.444759596E+01  1.467890707E+02  1.250000000E+02  0.00000E+00  9.000E+00
      25     1     1     2     0     0  5.122905145E+01 -7.749614306E+01 -1.545579957E+02  2.194156830E+02  1.250000000E+02  0.00000E+00  9.000E+00
      -5     1     1     2     0   502 -1.700128250E+01  2.481880139E+01  5.674740840E+01  6.422838056E+01  0.000000000E+00  0.00000E+00  9.000E+00
#rwgt            2           1   2.7030620999590516E-006           6      106069           0
</event>
<event>
      5   9999  3.79277E-02  1.79031E+01 -1.00000E+00  1.70438E-01
      21    -1     0     0   502   511  0.000000000E+00  0.000000000E+00  1.109633607E+03  1.109633607E+03  0.000000000E+00  0.00000E+00  9.000E+00
      21    -1     0     0   501   502  0.000000000E+00  0.000000000E+00 -1.115361479E+02  1.115361479E+02  0.000000000E+00  0.00000E+00  9.000E+00
      25     1     1     2     0     0 -1.409548301E+02  3.928629883E+01  1.931098865E+02  2.726318134E+02  1.250000000E+02  0.00000E+00  9.000E+00
      25     1     1     2     0     0  1.436790679E+02 -5.698087355E+01  6.617786048E+01  2.095113451E+02  1.250000000E+02  0.00000E+00  9.000E+00
      21     1     1     2   501   511 -2.724237830E+00  1.769457472E+01  7.388097120E+02  7.390265962E+02  1.078959322E-05  0.00000E+00  9.000E+00
#rwgt            1           1   3.6403899576854228E-002           6      106163           0
</event>
<event>
      5   9999  3.79277E-02  6.57171E+01 -1.00000E+00  1.32625E-01
      21    -1     0     0   502   501  0.000000000E+00  0.000000000E+00  1.700979228E+02  1.700979228E+02  0.000000000E+00  0.00000E+00  9.000E+00
      21    -1     0     0   512   502  0.000000000E+00  0.000000000E+00 -1.125759645E+03  1.125759645E+03  0.000000000E+00  0.00000E+00  9.000E+00
      25     1     1     2     0     0  4.055956521E+02 -3.366229567E+01 -4.113467510E+02  5.920068688E+02  1.250000000E+02  0.00000E+00  9.000E+00
      25     1     1     2     0     0 -3.591682283E+02 -1.284819511E+01 -4.630737664E+02  5.993573270E+02  1.250000000E+02  0.00000E+00  9.000E+00
      21     1     1     2   512   501 -4.642742385E+01  4.651049078E+01 -8.124120510E+01  1.044933723E+02  1.907348633E-06  0.00000E+00  9.000E+00
#rwgt            1           1  0.11064377906486915                6      106435           0
</event>
<event>
      5   9999  3.79277E-02  2.61305E+01 -1.00000E+00  1.57326E-01
      21    -1     0     0   502   511  0.000000000E+00  0.000000000E+00  9.928913632E+01  9.928913632E+01  0.000000000E+00  0.00000E+00  9.000E+00
      21    -1     0     0   501   502  0.000000000E+00  0.000000000E+00 -5.454760799E+02  5.454760799E+02  0.000000000E+00  0.00000E+00  9.000E+00
      25     1     1     2     0     0  8.515133636E+01  1.141143414E+02 -2.848451133E+02  3.421031592E+02  1.250000000E+02  0.00000E+00  9.000E+00
      25     1     1     2     0     0 -1.061572499E+02 -1.296563751E+02 -1.754871936E+02  2.729485160E+02  1.250000000E+02  0.00000E+00  9.000E+00
      21     1     1     2   501   511  2.100591355E+01  1.554203369E+01  1.414536326E+01  2.971354097E+01  2.384185791E-07  0.00000E+00  9.000E+00
#rwgt            1           1   3.4734045810165350E-002           6      106605           0
</event>
<event>
      5   9999  3.79277E-02  1.78935E+01 -1.00000E+00  1.70458E-01
      21    -1     0     0   502   512  0.000000000E+00  0.000000000E+00  1.277094636E+02  1.277094636E+02  0.000000000E+00  0.00000E+00  9.000E+00
      21    -1     0     0   501   502  0.000000000E+00  0.000000000E+00 -3.640493417E+02  3.640493417E+02  0.000000000E+00  0.00000E+00  9.000E+00
      25     1     1     2     0     0 -1.280638868E+02 -1.203282235E+01 -2.251920071E+02  2.878916254E+02  1.250000000E+02  0.00000E+00  9.000E+00
      25     1     1     2     0     0  1.186546038E+02  2.725264288E+01 -3.091177590E+01  1.772065445E+02  1.250000000E+02  0.00000E+00  9.000E+00
      21     1     1     2   501   512  9.409282975E+00 -1.521982053E+01  1.976390489E+01  2.666063540E+01  7.152557373E-07  0.00000E+00  9.000E+00
#rwgt            1           1   2.5245986415269605E-002           6      106737           0
</event>
<event>
      5   9999  3.79277E-02  8.38427E+01 -1.00000E+00  1.27371E-01
      21    -1     0     0   502   501  0.000000000E+00  0.000000000E+00  4.947377157E+02  4.947377157E+02  0.000000000E+00  0.00000E+00  9.000E+00
      21    -1     0     0   501   511  0.000000000E+00  0.000000000E+00 -7.993223470E+02  7.993223470E+02  0.000000000E+00  0.00000E+00  9.000E+00
      25     1     1     2     0     0 -7.530451176E+01  1.531461568E+02  2.535018524E+02  3.301707195E+02  1.250000000E+02  0.00000E+00  9.000E+00
      25     1     1     2     0     0  1.097064062E+02 -7.668632608E+01  1.586268642E+02  2.422886093E+02  1.250000000E+02  0.00000E+00  9.000E+00
      21     1     1     2   502   511 -3.440189446E+01 -7.645983073E+01 -7.167133479E+02  7.216007339E+02  7.629394531E-06  0.00000E+00  9.000E+00
#rwgt            1           1   3.6259778884674770E-002           6      107004           0
</event>
<event>
      5   9999  3.79277E-02  7.15996E+01 -1.00000E+00  1.30726E-01
      -2    -1     0     0     0   501  0.000000000E+00  0.000000000E+00  5.855880556E+02  5.855880556E+02  0.000000000E+00  0.00000E+00  9.000E+00
      21    -1     0     0   501   502  0.000000000E+00  0.000000000E+00 -3.042585462E+02  3.042585462E+02  0.000000000E+00  0.00000E+00  9.000E+00
      25     1     1     2     0     0  7.987871803E+01 -8.676140131E+01  7.787309257E+01  1.886726501E+02  1.250000000E+02  0.00000E+00  9.000E+00
      25     1     1     2     0     0 -1.304522735E+02  1.374449105E+02 -1.932079709E+02  2.980993444E+02  1.250000000E+02  0.00000E+00  9.000E+00
      -2     1     1     2     0   502  5.057355549E+01 -5.068350922E+01  3.966643877E+02  4.030746073E+02  5.394796609E-06  0.00000E+00  9.000E+00
#rwgt            1           1   3.0880877413021774E-002           6      107111           0
</event>
<event>
      5   9999  3.79277E-02  6.31561E+01 -1.00000E+00  1.33524E-01
      21    -1     0     0   511   501  0.000000000E+00  0.000000000E+00  5.374745594E+02  5.374745594E+02  0.000000000E+00  0.00000E+00  9.000E+00
      21    -1     0     0   501   502  0.000000000E+00  0.000000000E+00 -1.604340233E+02  1.604340233E+02  0.000000000E+00  0.00000E+00  9.000E+00
      25     1     1     2     0     0 -1.275039106E+02 -1.900036830E+02  2.914367949E+02  3.910486571E+02  1.250000000E+02  0.00000E+00  9.000E+00
      25     1     1     2     0     0  1.324919352E+02  1.270448270E+02  3.270173170E+01  2.244747296E+02  1.250000000E+02  0.00000E+00  9.000E+00
      21     1     1     2   511   502 -4.988024574E+00  6.295885597E+01  5.290200943E+01  8.238519609E+01  0.000000000E+00  0.00000E+00  9.000E+00
#rwgt            1           1   3.6976029621568950E-002           6      107239           0
</event>
<event>
      5   9999  3.79277E-02  1.05520E+02 -1.00000E+00  1.22787E-01
      21    -1     0     0   502   501  0.000000000E+00  0.000000000E+00  6.248646707E+02  6.248646707E+02  0.000000000E+00  0.00000E+00  9.000E+00
      -3    -1     0     0     0   502  0.000000000E+00  0.000000000E+00 -3.136359671E+02  3.136359671E+02  0.000000000E+00  0.00000E+00  9.000E+00
      25     1     1     2     0     0 -1.116431279E+02 -1.498067053E+02  5.023079500E+02  5.503131051E+02  1.250000000E+02  0.00000E+00  9.000E+00
      25     1     1     2     0     0  6.697762071E+00  1.388096389E+02 -2.107988900E+01  1.881019340E+02  1.250000000E+02  0.00000E+00  9.000E+00
      -3     1     1     2     0   501  1.049453658E+02  1.099706649E+01 -1.699993575E+02  2.000855987E+02  3.303624740E-06  0.00000E+00  9.000E+00
#rwgt            1           1   3.5055945512692824E-002           6      107413           0
</event>
<event>
      5   9999  3.79277E-02  1.24163E+02 -1.00000E+00  1.19743E-01
       2    -1     0     0   502     0  0.000000000E+00  0.000000000E+00  3.831924824E+03  3.831924824E+03  0.000000000E+00  0.00000E+00  9.000E+00
      21    -1     0     0   501   502  0.000000000E+00  0.000000000E+00 -1.091371337E+02  1.091371337E+02  0.000000000E+00  0.00000E+00  9.000E+00
      25     1     1     2     0     0 -1.367884808E+02  2.706593128E+01  1.932051503E+02  2.690666891E+02  1.250000000E+02  0.00000E+00  9.000E+00
      25     1     1     2     0     0  1.445512148E+01 -5.830378906E+00 -1.354382289E+01  1.266940369E+02  1.250000000E+02  0.00000E+00  9.000E+00
       2     1     1     2   501     0  1.223333593E+02 -2.123555238E+01  3.543126363E+03  3.545301231E+03  6.103515625E-05  0.00000E+00  9.000E+00
#rwgt            1           1   4.2672113595265015E-002           6      107462           0
</event>
<event>
      5   9999  3.79277E-02  3.02000E+01 -1.00000E+00  1.52840E-01
      21    -1     0     0   511   501  0.000000000E+00  0.000000000E+00  4.830121731E+02  4.830121731E+02  0.000000000E+00  0.00000E+00  9.000E+00
      21    -1     0     0   501   502  0.000000000E+00  0.000000000E+00 -1.345173335E+03  1.345173335E+03  0.000000000E+00  0.00000E+00  9.000E+00
      25     1     1     2     0     0 -5.070701580E+01 -7.210279821E+01 -1.142449161E+03  1.152642659E+03  1.250000000E+02  0.00000E+00  9.000E+00
      25     1     1     2     0     0  7.806995673E+01  5.932360420E+01 -1.651054941E+02  2.291266732E+02  1.250000000E+02  0.00000E+00  9.000E+00
      21     1     1     2   511   502 -2.736294093E+01  1.277919401E+01  4.453934930E+02  4.464161758E+02  9.344061824E-06  0.00000E+00  9.000E+00
#rwgt            1           1   2.9809308609571067E-002           6      107524           0
</event>
<event>
      5   9999  4.29957E-02  2.78856E+01 -1.00000E+00  1.55278E-01
      21    -1     0     0   502   512  0.000000000E+00  0.000000000E+00  1.275484577E+02  1.275484577E+02  0.000000000E+00  0.00000E+00  9.000E+00
      21    -1     0     0   501   502  0.000000000E+00  0.000000000E+00 -9.371537289E+02  9.371537289E+02  0.000000000E+00  0.00000E+00  9.000E+00
      25     1     1     2     0     0 -8.417552315E+01  6.417986280E+01 -3.692066776E+02  4.039098220E+02  1.250000000E+02  0.00000E+00  9.000E+00
      25     1     1     2     0     0  6.584625791E+01 -8.519522648E+01 -5.362039378E+02  5.610112469E+02  1.250000000E+02  0.00000E+00  9.000E+00
      21     1     1     2   501   512  1.832926524E+01  2.101536368E+01  9.580534415E+01  9.978111766E+01  3.303624740E-06  0.00000E+00  9.000E+00
#rwgt            1           1  0.39282950704402769                6      107680           0
</event>
<event>
      5   9999  3.79277E-02  2.90706E+02 -1.00000E+00  1.06038E-01
      21    -1     0     0   502   501  0.000000000E+00  0.000000000E+00  1.946049956E+02  1.946049956E+02  0.000000000E+00  0.00000E+00  9.000E+00
       2    -1     0     0   501     0  0.000000000E+00  0.000000000E+00 -2.366397800E+03  2.366397800E+03  0.000000000E+00  0.00000E+00  9.000E+00
      25     1     1     2     0     0 -1.894108703E+02 -4.246825542E+00  5.304423413E+01  2.330948393E+02  1.250000000E+02  0.00000E+00  9.000E+00
      25     1     1     2     0     0 -4.348322614E+01  1.782309769E+02 -2.608698829E+02  3.425422133E+02  1.250000000E+02  0.00000E+00  9.000E+00
       2     1     1     2   502     0  2.328940965E+02 -1.739841514E+02 -1.963967156E+03  1.985365743E+03  2.157918644E-05  0.00000E+00  9.000E+00
#rwgt            1           1   4.3510770417200959E-002           6      107811           0
</event>
<event>
      5   9999 -3.79277E-02  2.54273E+01 -1.00000E+00  1.58202E-01
      21    -1     0     0   511   501  0.000000000E+00  0.000000000E+00  2.780803539E+02  2.780803539E+02  0.000000000E+00  0.00000E+00  9.000E+00
      21    -1     0     0   501   502  0.000000000E+00  0.000000000E+00 -3.473686155E+02  3.473686155E+02  0.000000000E+00  0.00000E+00  9.000E+00
      25     1     1     2     0     0 -1.811918202E+02  3.328566079E+01 -6.783244404E+01  2.327330045E+02  1.250000000E+02  0.00000E+00  9.000E+00
      25     1     1     2     0     0  1.936323880E+02 -5.546181552E+01 -1.240241867E+02  2.675378731E+02  1.250000000E+02  0.00000E+00  9.000E+00
      21     1     1     2   511   502 -1.244056776E+01  2.217615473E+01  1.225683691E+02  1.251780918E+02  1.348699152E-06  0.00000E+00  9.000E+00
#rwgt            1           1 -0.48061036704075266                6      107847           0
</event>
<event>
      5   9999  3.79277E-02  3.54657E+01 -1.00000E+00  1.48157E-01
      21    -1     0     0   512   501  0.000000000E+00  0.000000000E+00  1.174056159E+02  1.174056159E+02  0.000000000E+00  0.00000E+00  9.000E+00
      21    -1     0     0   501   502  0.000000000E+00  0.000000000E+00 -5.980359365E+02  5.980359365E+02  0.000000000E+00  0.00000E+00  9.000E+00
      25     1     1     2     0     0 -1.291691510E+02  1.510727120E+02 -2.313061612E+02  3.295985044E+02  1.250000000E+02  0.00000E+00  9.000E+00
      25     1     1     2     0     0  1.355053659E+02 -1.161775994E+02 -2.682818089E+02  3.456285112E+02  1.250000000E+02  0.00000E+00  9.000E+00
      21     1     1     2   512   502 -6.336214873E+00 -3.489511260E+01  1.895764951E+01  4.021453689E+01  4.768371582E-07  0.00000E+00  9.000E+00
#rwgt            1           1   3.7007056566660784E-002           6      108066           0
</event>
<event>
      5   9999  3.79277E-02  1.79346E+01 -1.00000E+00  1.70372E-01
      21    -1     0     0   502   501  0.000000000E+00  0.000000000E+00  4.838911277E+02  4.838911277E+02  0.000000000E+00  0.00000E+00  9.000E+00
      21    -1     0     0   501   511  0.000000000E+00  0.000000000E+00 -3.053276717E+02  3.053276717E+02  0.000000000E+00  0.00000E+00  9.000E+00
      25     1     1     2     0     0 -5.219489544E+01  5.156539462E+01 -1.882984748E+02  2.376228370E+02  1.250000000E+02  0.00000E+00  9.000E+00
      25     1     1     2     0     0  4.539375836E+01 -3.497033811E+01  4.479332793E+02  4.685645532E+02  1.250000000E+02  0.00000E+00  9.000E+00
      21     1     1     2   502   511  6.801137081E+00 -1.659505650E+01 -8.107134853E+01  8.303140922E+01  0.000000000E+00  0.00000E+00  9.000E+00
#rwgt            1           1   5.0609380286736963E-002           6      108215           0
</event>
<event>
      5   9999  3.79277E-02  1.79136E+02 -1.00000E+00  1.13418E-01
      21    -1     0     0   512   501  0.000000000E+00  0.000000000E+00  6.397369045E+02  6.397369045E+02  0.000000000E+00  0.00000E+00  9.000E+00
      21    -1     0     0   501   502  0.000000000E+00  0.000000000E+00 -1.887531787E+02  1.887531787E+02  0.000000000E+00  0.00000E+00  9.000E+00
      25     1     1     2     0     0  6.212089119E+00  9.451809096E+01  2.359475863E+02  2.833170010E+02  1.250000000E+02  0.00000E+00  9.000E+00
      25     1     1     2     0     0  3.485884446E+01 -2.688825615E+02  5.220243937E+01  3.030892040E+02  1.250000000E+02  0.00000E+00  9.000E+00
      21     1     1     2   512   502 -4.107093358E+01  1.743644705E+02  1.628337001E+02  2.420838782E+02  1.907348633E-06  0.00000E+00  9.000E+00
#rwgt            1           1   5.3772089397946060E-002           6      108580           0
</event>
<event>
      5   9999  3.79277E-02  3.06287E+01 -1.00000E+00  1.52417E-01
       1    -1     0     0   502     0  0.000000000E+00  0.000000000E+00  2.175652519E+02  2.175652519E+02  0.000000000E+00  0.00000E+00  9.000E+00
      21    -1     0     0   501   502  0.000000000E+00  0.000000000E+00 -4.148774773E+02  4.148774773E+02  0.000000000E+00  0.00000E+00  9.000E+00
      25     1     1     2     0     0 -9.338786753E+01 -1.206416474E+02 -3.088079831E+01  1.996354793E+02  1.250000000E+02  0.00000E+00  9.000E+00
      25     1     1     2     0     0  1.184499022E+02  1.030345083E+02 -2.633888168E+02  3.311271026E+02  1.250000000E+02  0.00000E+00  9.000E+00
       1     1     1     2   501     0 -2.506203467E+01  1.760713915E+01  9.695738974E+01  1.016801473E+02  1.907348633E-06  0.00000E+00  9.000E+00
#rwgt            1           1   4.0423502281043251E-002           6      108663           0
</event>
<event>
      5   9999 -4.29266E-02  6.06647E+01 -1.00000E+00  1.34448E-01
      21    -1     0     0   502   511  0.000000000E+00  0.000000000E+00  5.707310814E+02  5.707310814E+02  0.000000000E+00  0.00000E+00  9.000E+00
      21    -1     0     0   501   502  0.000000000E+00  0.000000000E+00 -1.189367378E+02  1.189367378E+02  0.000000000E+00  0.00000E+00  9.000E+00
      25     1     1     2     0     0  2.964311695E+01  1.313807902E+02  4.453008643E+00  1.838054833E+02  1.250000000E+02  0.00000E+00  9.000E+00
      25     1     1     2     0     0 -7.708367929E+01 -9.357077182E+01  3.065084589E+02  3.525192454E+02  1.250000000E+02  0.00000E+00  9.000E+00
      21     1     1     2   501   511  4.744056234E+01 -3.781001838E+01  1.408328760E+02  1.533430905E+02  2.697398305E-06  0.00000E+00  9.000E+00
#rwgt            1           1 -0.24264612832817384                6      108920           0
</event>
<event>
      5   9999  3.79277E-02  7.42955E+01 -1.00000E+00  1.29924E-01
      21    -1     0     0   502   501  0.000000000E+00  0.000000000E+00  4.359578745E+01  4.359578745E+01  0.000000000E+00  0.00000E+00  9.000E+00
      21    -1     0     0   501   512  0.000000000E+00  0.000000000E+00 -1.796898099E+03  1.796898099E+03  0.000000000E+00  0.00000E+00  9.000E+00
      25     1     1     2     0     0  7.860828418E+01 -1.515366499E+02 -7.978855511E+02  8.254628830E+02  1.250000000E+02  0.00000E+00  9.000E+00
      25     1     1     2     0     0 -1.209221840E+01  1.846338912E+02 -4.313076692E+02  4.856822017E+02  1.250000000E+02  0.00000E+00  9.000E+00
      21     1     1     2   502   512 -6.651606578E+01 -3.309724128E+01 -5.241090911E+02  5.293488016E+02  0.000000000E+00  0.00000E+00  9.000E+00
#rwgt            1           1   4.5772993463708680E-002           6      109011           0
</event>
<event>
      5   9999  3.79277E-02  6.96746E+01 -1.00000E+00  1.31323E-01
      21    -1     0     0   502   511  0.000000000E+00  0.000000000E+00  5.067730564E+02  5.067730564E+02  0.000000000E+00  0.00000E+00  9.000E+00
      21    -1     0     0   501   502  0.000000000E+00  0.000000000E+00 -1.941963599E+02  1.941963599E+02  0.000000000E+00  0.00000E+00  9.000E+00
      25     1     1     2     0     0  7.098644548E+00 -1.214915752E+02  8.882673733E+01  1.957697190E+02  1.250000000E+02  0.00000E+00  9.000E+00
      25     1     1     2     0     0  5.346028596E+01  8.703627604E+01 -8.930684211E+01  1.844831363E+02  1.250000000E+02  0.00000E+00  9.000E+00
      21     1     1     2   501   511 -6.055893051E+01  3.445529914E+01  3.130568013E+02  3.207165611E+02  3.814697266E-06  0.00000E+00  9.000E+00
#rwgt            1           1   7.1810046322006410E-002           6      109073           0
</event>
<event>
      5   9999 -3.79277E-02  4.16719E+00 -1.00000E+00  2.59349E-01
      21    -1     0     0   512   501  0.000000000E+00  0.000000000E+00  9.592219583E+00  9.592219583E+00  0.000000000E+00  0.00000E+00  9.000E+00
      21    -1     0     0   501   502  0.000000000E+00  0.000000000E+00 -3.823595697E+03  3.823595697E+03  0.000000000E+00  0.00000E+00  9.000E+00
      25     1     1     2     0     0  6.444489672E+00 -3.483564510E+01 -6.174785759E+02  6.309990850E+02  1.250000000E+02  0.00000E+00  9.000E+00
      25     1     1     2     0     0 -3.627965694E+00  3.790690735E+01 -3.195120372E+03  3.197791314E+03  1.250000000E+02  0.00000E+00  9.000E+00
      21     1     1     2   512   502 -2.816523978E+00 -3.071262255E+00 -1.404529674E+00  4.397517796E+00  1.555726902E-07  0.00000E+00  9.000E+00
#rwgt            1           1  -1.1391729347187744E-002           6      109173           0
</event>
<event>
      5   9999  3.79277E-02  2.45159E+01 -1.00000E+00  1.59390E-01
      21    -1     0     0   502   501  0.000000000E+00  0.000000000E+00  1.331377708E+02  1.331377708E+02  0.000000000E+00  0.00000E+00  9.000E+00
      21    -1     0     0   501   511  0.000000000E+00  0.000000000E+00 -1.206444249E+03  1.206444249E+03  0.000000000E+00  0.00000E+00  9.000E+00
      25     1     1     2     0     0  2.413886835E+02  3.078601410E+01 -8.747158493E+02  9.164982773E+02  1.250000000E+02  0.00000E+00  9.000E+00
      25     1     1     2     0     0 -2.659021449E+02 -3.043820049E+01 -8.571321564E+01  3.075746902E+02  1.250000000E+02  0.00000E+00  9.000E+00
      21     1     1     2   502   511  2.451346147E+01 -3.478136105E-01 -1.128774135E+02  1.155090527E+02  0.000000000E+00  0.00000E+00  9.000E+00
#rwgt            1           1   3.8503726746805883E-002           6      109750           0
</event>
<event>
      5   9999 -3.79277E-02  1.55382E+01 -1.00000E+00  1.75953E-01
      21    -1     0     0   512   501  0.000000000E+00  0.000000000E+00  2.101833732E+02  2.101833732E+02  0.000000000E+00  0.00000E+00  9.000E+00
      21    -1     0     0   501   502  0.000000000E+00  0.000000000E+00 -4.739326124E+02  4.739326124E+02  0.000000000E+00  0.00000E+00  9.000E+00
      25     1     1     2     0     0  1.406136409E+02  9.771696263E+01 -9.982575513E+01  2.343309245E+02  1.250000000E+02  0.00000E+00  9.000E+00
      25     1     1     2     0     0 -1.257807496E+02 -9.308860916E+01 -2.735686487E+02  3.390443801E+02  1.250000000E+02  0.00000E+00  9.000E+00
      21     1     1     2   512   502 -1.483289131E+01 -4.628353471E+00  1.096451646E+02  1.107406811E+02  0.000000000E+00  0.00000E+00  9.000E+00
#rwgt            1           1 -0.23290436989368327                6      109950           0
</event>
<event>
      5   9999  3.79277E-02  6.94351E+01 -1.00000E+00  1.31399E-01
      21    -1     0     0   502   501  0.000000000E+00  0.000000000E+00  3.021566157E+02  3.021566157E+02  0.000000000E+00  0.00000E+00  9.000E+00
      21    -1     0     0   511   502  0.000000000E+00  0.000000000E+00 -2.511377493E+02  2.511377493E+02  0.000000000E+00  0.00000E+00  9.000E+00
      25     1     1     2     0     0 -1.235046922E+02  1.104257936E+02 -3.275037324E+01  2.101067629E+02  1.250000000E+02  0.00000E+00  9.000E+00
      25     1     1     2     0     0  1.926394406E+02 -1.168774063E+02  9.124476613E+01  2.733512201E+02  1.250000000E+02  0.00000E+00  9.000E+00
      21     1     1     2   511   501 -6.913474837E+01  6.451612750E+00 -7.475526526E+00  6.983638189E+01  3.576278687E-07  0.00000E+00  9.000E+00
#rwgt            1           1   3.2788837345794838E-002           6      110220           0
</event>
<event>
      5   9999  3.79277E-02  1.68702E+02 -1.00000E+00  1.14406E-01
      21    -1     0     0   502   501  0.000000000E+00  0.000000000E+00  3.516157240E+02  3.516157240E+02  0.000000000E+00  0.00000E+00  9.000E+00
      21    -1     0     0   501   512  0.000000000E+00  0.000000000E+00 -3.452672849E+02  3.452672849E+02  0.000000000E+00  0.00000E+00  9.000E+00
      25     1     1     2     0     0  1.948859551E+01 -6.725968866E+01 -4.818042200E+01  1.511622444E+02  1.250000000E+02  0.00000E+00  9.000E+00
      25     1     1     2     0     0 -7.287880062E+01 -9.277113699E+01  2.398726980E+02  2.950961109E+02  1.250000000E+02  0.00000E+00  9.000E+00
      21     1     1     2   502   512  5.339020511E+01  1.600308256E+02 -1.853438369E+02  2.506246537E+02  2.697398305E-06  0.00000E+00  9.000E+00
#rwgt            2          11   1.9847753474415164E-003           6      110338           0
</event>
<event>
      5   9999  3.79277E-02  1.29015E+01 -1.00000E+00  1.83780E-01
      21    -1     0     0   511   501  0.000000000E+00  0.000000000E+00  9.144320389E+01  9.144320389E+01  0.000000000E+00  0.00000E+00  9.000E+00
      21    -1     0     0   501   502  0.000000000E+00  0.000000000E+00 -4.732492666E+02  4.732492666E+02  0.000000000E+00  0.00000E+00  9.000E+00
      25     1     1     2     0     0  6.039807520E+01 -1.323756264E+02 -1.084806217E+02  2.203730456E+02  1.250000000E+02  0.00000E+00  9.000E+00
      25     1     1     2     0     0 -7.055953932E+01  1.244261994E+02 -2.713992408E+02  3.312749245E+02  1.250000000E+02  0.00000E+00  9.000E+00
      21     1     1     2   511   502  1.016146412E+01  7.949427013E+00 -1.926200153E+00  1.304450037E+01  1.896608183E-07  0.00000E+00  9.000E+00
#rwgt            1           1   4.3738703681603250E-002           6      110463           0
</event>
<event>
      5   9999  3.79277E-02  8.92092E+01 -1.00000E+00  1.26100E-01
      21    -1     0     0   502   501  0.000000000E+00  0.000000000E+00  1.178289062E+02  1.178289062E+02  0.000000000E+00  0.00000E+00  9.000E+00
      21    -1     0     0   512   502  0.000000000E+00  0.000000000E+00 -1.132627100E+03  1.132627100E+03  0.000000000E+00  0.00000E+00  9.000E+00
      25     1     1     2     0     0 -1.755638583E+01 -2.787139700E+02 -3.103109842E+02  4.357839036E+02  1.250000000E+02  0.00000E+00  9.000E+00
      25     1     1     2     0     0  8.392796210E+01  2.191061227E+02 -3.016750212E+02  4.020997566E+02  1.250000000E+02  0.00000E+00  9.000E+00
      21     1     1     2   512   501 -6.637157627E+01  5.960784727E+01 -4.028121888E+02  4.125723464E+02  0.000000000E+00  0.00000E+00  9.000E+00
#rwgt            1           1   3.4991384592906884E-002           6      110652           0
</event>
<event>
      5   9999  3.79277E-02  8.89525E+01 -1.00000E+00  1.26159E-01
      21    -1     0     0   502   501  0.000000000E+00  0.000000000E+00  8.324477501E+01  8.324477501E+01  0.000000000E+00  0.00000E+00  9.000E+00
      21    -1     0     0   511   502  0.000000000E+00  0.000000000E+00 -9.650289654E+02  9.650289654E+02  0.000000000E+00  0.00000E+00  9.000E+00
      25     1     1     2     0     0  6.176390460E+01  8.344158172E+01 -7.898339734E+01  1.806672481E+02  1.250000000E+02  0.00000E+00  9.000E+00
      25     1     1     2     0     0 -1.392278792E+02 -3.971649530E+01 -2.916844233E+02  3.488074041E+02  1.250000000E+02  0.00000E+00  9.000E+00
      21     1     1     2   511   501  7.746397462E+01 -4.372508642E+01 -5.111163698E+02  5.187990883E+02  5.394796609E-06  0.00000E+00  9.000E+00
#rwgt            1           1   3.7897556305228876E-002           6      110749           0
</event>
<event>
      5   9999  3.79277E-02  9.93986E+01 -1.00000E+00  1.23946E-01
      21    -1     0     0   502   501  0.000000000E+00  0.000000000E+00  2.617345433E+03  2.617345433E+03  0.000000000E+00  0.00000E+00  9.000E+00
      21    -1     0     0   512   502  0.000000000E+00  0.000000000E+00 -6.645921446E+01  6.645921446E+01  0.000000000E+00  0.00000E+00  9.000E+00
      25     1     1     2     0     0 -1.122274752E+02  1.090299074E+02  2.281828662E+03  2.290600264E+03  1.250000000E+02  0.00000E+00  9.000E+00
      25     1     1     2     0     0  1.283547278E+01 -1.101793621E+02  2.345254274E+02  2.879781542E+02  1.250000000E+02  0.00000E+00  9.000E+00
      21     1     1     2   512   501  9.939200246E+01  1.149454673E+00  3.453212935E+01  1.052262294E+02  2.477718555E-06  0.00000E+00  9.000E+00
#rwgt            1           1  0.15784281883148518                6      110850           0
</event>
<event>
      5   9999  3.79277E-02  2.37031E+01 -1.00000E+00  1.60503E-01
      21    -1     0     0   502   501  0.000000000E+00  0.000000000E+00  3.407510361E+02  3.407510361E+02  0.000000000E+00  0.00000E+00  9.000E+00
      21    -1     0     0   511   502  0.000000000E+00  0.000000000E+00 -2.474148056E+02  2.474148056E+02  0.000000000E+00  0.00000E+00  9.000E+00
      25     1     1     2     0     0 -2.094618855E+02  5.163082633E+01  1.543994922E+02  2.932647727E+02  1.250000000E+02  0.00000E+00  9.000E+00
      25     1     1     2     0     0  2.292796408E+02 -3.862727481E+01 -6.205541455E+01  2.711772382E+02  1.250000000E+02  0.00000E+00  9.000E+00
      21     1     1     2   511   501 -1.981775527E+01 -1.300355152E+01  9.921528402E-01  2.372383071E+01  3.488272402E-07  0.00000E+00  9.000E+00
#rwgt            1           1   1.0227219565497925E-002           6      110973           0
</event>
<event>
      5   9999  3.79277E-02  2.06855E+01 -1.00000E+00  1.65171E-01
      21    -1     0     0   502   501  0.000000000E+00  0.000000000E+00  3.460035175E+02  3.460035175E+02  0.000000000E+00  0.00000E+00  9.000E+00
      21    -1     0     0   501   512  0.000000000E+00  0.000000000E+00 -5.065183392E+02  5.065183392E+02  0.000000000E+00  0.00000E+00  9.000E+00
      25     1     1     2     0     0 -7.727243419E+01  2.913083837E+02 -3.019724707E+02  4.445716777E+02  1.250000000E+02  0.00000E+00  9.000E+00
      25     1     1     2     0     0  6.827056278E+01 -2.726843435E+02  1.855370824E+02  3.592584445E+02  1.250000000E+02  0.00000E+00  9.000E+00
      21     1     1     2   502   512  9.001871410E+00 -1.862404020E+01 -4.407943346E+01  4.869173458E+01  4.768371582E-07  0.00000E+00  9.000E+00
#rwgt            1           1   3.7460934350696869E-002           6      111248           0
</event>
<event>
      5   9999  3.79277E-02  1.04390E+02 -1.00000E+00  1.22995E-01
      21    -1     0     0   502   501  0.000000000E+00  0.000000000E+00  8.522073354E+01  8.522073354E+01  0.000000000E+00  0.00000E+00  9.000E+00
      21    -1     0     0   501   511  0.000000000E+00  0.000000000E+00 -1.866545550E+03  1.866545550E+03  0.000000000E+00  0.00000E+00  9.000E+00
      25     1     1     2     0     0 -1.727826855E+02 -4.183613179E+01 -1.153430941E+03  1.173725715E+03  1.250000000E+02  0.00000E+00  9.000E+00
      25     1     1     2     0     0  2.646368466E+02 -7.762458918E+00 -2.468392736E+02  3.829458752E+02  1.250000000E+02  0.00000E+00  9.000E+00
      21     1     1     2   502   511 -9.185416111E+01  4.959859071E+01 -3.810546012E+02  3.950946927E+02  7.629394531E-06  0.00000E+00  9.000E+00
#rwgt            1           1   7.3302067679875862E-002           6      111508           0
</event>
<event>
      5   9999  3.79277E-02  2.99269E+01 -1.00000E+00  1.53113E-01
      21    -1     0     0   512   501  0.000000000E+00  0.000000000E+00  4.227490751E+02  4.227490751E+02  0.000000000E+00  0.00000E+00  9.000E+00
      21    -1     0     0   501   502  0.000000000E+00  0.000000000E+00 -1.672009824E+02  1.672009824E+02  0.000000000E+00  0.00000E+00  9.000E+00
      25     1     1     2     0     0 -1.964516409E+02  3.255559884E+00  6.697135261E+01  2.423097356E+02  1.250000000E+02  0.00000E+00  9.000E+00
      25     1     1     2     0     0  2.023592898E+02 -3.259356534E+01  1.110073861E+02  2.644981332E+02  1.250000000E+02  0.00000E+00  9.000E+00
      21     1     1     2   512   502 -5.907648898E+00  2.933800546E+01  7.756935392E+01  8.314218873E+01  1.651812370E-06  0.00000E+00  9.000E+00
#rwgt            1           1  0.25763534609156691                6      111574           0
</event>
<event>
      5   9999  3.79277E-02  1.45792E+01 -1.00000E+00  1.78556E-01
      21    -1     0     0   502   501  0.000000000E+00  0.000000000E+00  1.104881611E+03  1.104881611E+03  0.000000000E+00  0.00000E+00  9.000E+00
      21    -1     0     0   501   511  0.000000000E+00  0.000000000E+00 -6.246916654E+01  6.246916654E+01  0.000000000E+00  0.00000E+00  9.000E+00
      25     1     1     2     0     0  5.329572004E+01 -1.372964233E+01  7.483818243E+01  1.557391743E+02  1.250000000E+02  0.00000E+00  9.000E+00
      25     1     1     2     0     0 -6.765445570E+01  1.625529520E+01  9.812489690E+02  9.916228613E+02  1.250000000E+02  0.00000E+00  9.000E+00
      21     1     1     2   502   511  1.435873566E+01 -2.525652868E+00 -1.367470668E+01  1.998874221E+01  1.685873940E-07  0.00000E+00  9.000E+00
#rwgt            1           1   4.9442113170905411E-002           6      111719           0
</event>
<event>
      5   9999  3.79277E-02  1.43544E+02 -1.00000E+00  1.17156E-01
      21    -1     0     0   502   501  0.000000000E+00  0.000000000E+00  9.050928865E+02  9.050928865E+02  0.000000000E+00  0.00000E+00  9.000E+00
      21    -1     0     0   512   502  0.000000000E+00  0.000000000E+00 -1.716086132E+02  1.716086132E+02  0.000000000E+00  0.00000E+00  9.000E+00
      25     1     1     2     0     0 -2.020553604E+01 -2.465321934E+02  6.840540958E+01  2.854657355E+02  1.250000000E+02  0.00000E+00  9.000E+00
      25     1     1     2     0     0  1.485311468E+02  1.822100114E+02  5.346988814E+02  5.973189128E+02  1.250000000E+02  0.00000E+00  9.000E+00
      21     1     1     2   512   501 -1.283256107E+02  6.432218198E+01  1.303799823E+02  1.939168514E+02  2.697398305E-06  0.00000E+00  9.000E+00
#rwgt            1           1   3.8064842597630627E-002           6      111898           0
</event>
<event>
      5   9999  3.79277E-02  1.05664E+02 -1.00000E+00  1.22761E-01
      21    -1     0     0   502   501  0.000000000E+00  0.000000000E+00  6.768001659E+01  6.768001659E+01  0.000000000E+00  0.00000E+00  9.000E+00
      21    -1     0     0   511   502  0.000000000E+00  0.000000000E+00 -1.091303695E+03  1.091303695E+03  0.000000000E+00  0.00000E+00  9.000E+00
      25     1     1     2     0     0  7.176975312E+01 -9.313107276E+01 -8.886065941E+01  1.932498667E+02  1.250000000E+02  0.00000E+00  9.000E+00
      25     1     1     2     0     0 -1.336557443E+01  5.075792487E+00 -3.603307475E+02  3.816643157E+02  1.250000000E+02  0.00000E+00  9.000E+00
      21     1     1     2   511   501 -5.840417870E+01  8.805528027E+01 -5.744322713E+02  5.840695291E+02  7.629394531E-06  0.00000E+00  9.000E+00
#rwgt            1           1   4.0356354795063366E-002           6      111966           0
</event>
<event>
      5   9999  3.79277E-02  1.20293E+01 -1.00000E+00  1.86917E-01
      21    -1     0     0   502   501  0.000000000E+00  0.000000000E+00  1.072612361E+02  1.072612361E+02  0.000000000E+00  0.00000E+00  9.000E+00
      21    -1     0     0   512   502  0.000000000E+00  0.000000000E+00 -5.038395092E+02  5.038395092E+02  0.000000000E+00  0.00000E+00  9.000E+00
      25     1     1     2     0     0 -6.192589219E+01  1.758277984E+02 -2.536608817E+02  3.387020427E+02  1.250000000E+02  0.00000E+00  9.000E+00
      25     1     1     2     0     0  6.870808872E+01 -1.658927447E+02 -1.289181467E+02  2.539411206E+02  1.250000000E+02  0.00000E+00  9.000E+00
      21     1     1     2   512   501 -6.782196532E+00 -9.935053668E+00 -1.399924470E+01  1.845758200E+01  1.685873940E-07  0.00000E+00  9.000E+00
#rwgt            1           1   3.1680778842833483E-002           6      112097           0
</event>
<event>
      5   9999  3.79277E-02  3.57903E+01 -1.00000E+00  1.47900E-01
      -1    -1     0     0     0   501  0.000000000E+00  0.000000000E+00  3.577822673E+02  3.577822673E+02  0.000000000E+00  0.00000E+00  9.000E+00
      21    -1     0     0   501   502  0.000000000E+00  0.000000000E+00 -7.704378637E+02  7.704378637E+02  0.000000000E+00  0.00000E+00  9.000E+00
      25     1     1     2     0     0 -3.669518422E+02 -1.244874875E+02 -2.236323952E+01  4.077694244E+02  1.250000000E+02  0.00000E+00  9.000E+00
      25     1     1     2     0     0  3.865472691E+02  9.453806095E+01 -4.728132640E+02  6.305026715E+02  1.250000000E+02  0.00000E+00  9.000E+00
      -1     1     1     2     0   502 -1.959542699E+01  2.994942653E+01  8.252090709E+01  8.994803508E+01  9.536743164E-07  0.00000E+00  9.000E+00
#rwgt            1           1  0.10115673220474546                6      112275           0
</event>
<event>
      5   9999  3.79277E-02  1.65984E+01 -1.00000E+00  1.73339E-01
      21    -1     0     0   502   511  0.000000000E+00  0.000000000E+00  2.523074382E+02  2.523074382E+02  0.000000000E+00  0.00000E+00  9.000E+00
      21    -1     0     0   501   502  0.000000000E+00  0.000000000E+00 -6.626662821E+02  6.626662821E+02  0.000000000E+00  0.00000E+00  9.000E+00
      25     1     1     2     0     0  1.091727599E+02  1.550272719E+02 -8.975656776E+01  2.441994840E+02  1.250000000E+02  0.00000E+00  9.000E+00
      25     1     1     2     0     0 -1.203929112E+02 -1.427954924E+02 -4.697294410E+02  5.207261790E+02  1.250000000E+02  0.00000E+00  9.000E+00
      21     1     1     2   501   511  1.122015130E+01 -1.223177944E+01  1.491271649E+02  1.500480574E+02  3.303624740E-06  0.00000E+00  9.000E+00
#rwgt            1           1   7.3315149173072663E-002           6      112406           0
</event>
<event>
      5   9999  3.79277E-02  4.00641E+01 -1.00000E+00  1.44797E-01
      21    -1     0     0   512   501  0.000000000E+00  0.000000000E+00  5.278255111E+01  5.278255111E+01  0.000000000E+00  0.00000E+00  9.000E+00
      21    -1     0     0   501   502  0.000000000E+00  0.000000000E+00 -6.182593703E+02  6.182593703E+02  0.000000000E+00  0.00000E+00  9.000E+00
      25     1     1     2     0     0  1.931090333E+01  3.034232609E+01 -4.105812198E+02  4.306918919E+02  1.250000000E+02  0.00000E+00  9.000E+00
      25     1     1     2     0     0 -1.226912921E+01 -6.978273356E+01 -1.192333355E+02  1.867130143E+02  1.250000000E+02  0.00000E+00  9.000E+00
      21     1     1     2   512   502 -7.041774120E+00  3.944040748E+01 -3.566226393E+01  5.363701514E+01  1.261592536E-06  0.00000E+00  9.000E+00
#rwgt            1           1   4.7601305649322669E-002           6      112568           0
</event>
<event>
      5   9999  3.79277E-02  1.15247E+02 -1.00000E+00  1.21118E-01
      21    -1     0     0   502   501  0.000000000E+00  0.000000000E+00  5.541554032E+02  5.541554032E+02  0.000000000E+00  0.00000E+00  9.000E+00
      21    -1     0     0   501   511  0.000000000E+00  0.000000000E+00 -2.770021849E+02  2.770021849E+02  0.000000000E+00  0.00000E+00  9.000E+00
      25     1     1     2     0     0 -1.747841798E+01 -2.480864562E+01  3.214849523E+02  3.462636835E+02  1.250000000E+02  0.00000E+00  9.000E+00
      25     1     1     2     0     0  1.197489988E+02 -2.831886417E+01  1.682686097E+02  2.430660523E+02  1.250000000E+02  0.00000E+00  9.000E+00
      21     1     1     2   502   511 -1.022705808E+02  5.312750979E+01 -2.126003437E+02  2.418278522E+02  3.814697266E-06  0.00000E+00  9.000E+00
#rwgt            1           1   3.1646491435227339E-002           6      112652           0
</event>
<event>
      5   9999  3.79277E-02  3.27014E+01 -1.00000E+00  1.50484E-01
      21    -1     0     0   502   501  0.000000000E+00  0.000000000E+00  5.321972617E+01  5.321972617E+01  0.000000000E+00  0.00000E+00  9.000E+00
      21    -1     0     0   512   502  0.000000000E+00  0.000000000E+00 -1.483975537E+03  1.483975537E+03  0.000000000E+00  0.00000E+00  9.000E+00
      25     1     1     2     0     0  2.243706605E+02  8.983438539E+01 -8.106967367E+02  8.551412801E+02  1.250000000E+02  0.00000E+00  9.000E+00
      25     1     1     2     0     0 -2.075336049E+02 -6.180055087E+01 -5.243135493E+02  5.808779590E+02  1.250000000E+02  0.00000E+00  9.000E+00
      21     1     1     2   512   501 -1.683705567E+01 -2.803383452E+01 -9.574552495E+01  1.011760242E+02  1.348699152E-06  0.00000E+00  9.000E+00
#rwgt            1           1  0.26062007303256618                6      112808           0
</event>
<event>
      5   9999  3.79277E-02  3.09087E+01 -1.00000E+00  1.52145E-01
      21    -1     0     0   511   501  0.000000000E+00  0.000000000E+00  4.794085815E+01  4.794085815E+01  0.000000000E+00  0.00000E+00  9.000E+00
      21    -1     0     0   501   502  0.000000000E+00  0.000000000E+00 -1.319181895E+03  1.319181895E+03  0.000000000E+00  0.00000E+00  9.000E+00
      25     1     1     2     0     0  1.343185339E+02 -9.007109245E+01 -5.533657441E+02  5.899092447E+02  1.250000000E+02  0.00000E+00  9.000E+00
      25     1     1     2     0     0 -1.284866914E+02  5.971751290E+01 -7.217418358E+02  7.460638637E+02  1.250000000E+02  0.00000E+00  9.000E+00
      21     1     1     2   511   502 -5.831842426E+00  3.035357955E+01  3.866543529E+00  3.114964424E+01  4.420398764E-07  0.00000E+00  9.000E+00
#rwgt            1           1   3.9238965470924009E-002           6      112940           0
</event>
<event>
      5   9999  3.79277E-02  1.17879E+02 -1.00000E+00  1.20698E-01
      21    -1     0     0   502   501  0.000000000E+00  0.000000000E+00  4.909223368E+02  4.909223368E+02  0.000000000E+00  0.00000E+00  9.000E+00
      21    -1     0     0   501   512  0.000000000E+00  0.000000000E+00 -1.403491715E+02  1.403491715E+02  0.000000000E+00  0.00000E+00  9.000E+00
      25     1     1     2     0     0 -1.215843709E+02 -1.992375595E+00  1.076186544E+02  2.049231651E+02  1.250000000E+02  0.00000E+00  9.000E+00
      25     1     1     2     0     0  4.401186143E+01  9.074982956E+01  2.616313588E+02  3.069992564E+02  1.250000000E+02  0.00000E+00  9.000E+00
      21     1     1     2   502   512  7.757250951E+01 -8.875745396E+01 -1.867684796E+01  1.193490868E+02  1.563415176E-06  0.00000E+00  9.000E+00
#rwgt            1           1   4.4508420671953694E-002           6      113070           0
</event>
<event>
      5   9999  3.79277E-02  4.50064E+01 -1.00000E+00  1.41734E-01
      21    -1     0     0   502   511  0.000000000E+00  0.000000000E+00  2.016650856E+03  2.016650856E+03  0.000000000E+00  0.00000E+00  9.000E+00
      21    -1     0     0   501   502  0.000000000E+00  0.000000000E+00 -1.768436373E+02  1.768436373E+02  0.000000000E+00  0.00000E+00  9.000E+00
      25     1     1     2     0     0  5.073305764E+01  6.669903774E+01 -9.075417060E+01  1.757382265E+02  1.250000000E+02  0.00000E+00  9.000E+00
      25     1     1     2     0     0 -3.288780771E+01 -1.080164020E+02  1.204382832E+02  2.070737333E+02  1.250000000E+02  0.00000E+00  9.000E+00
      21     1     1     2   501   511 -1.784524993E+01  4.131736424E+01  1.810123106E+03  1.810682533E+03  2.157918644E-05  0.00000E+00  9.000E+00
#rwgt            1           1   3.8839932041777284E-002           6      113153           0
</event>
<event>
      5   9999  3.79277E-02  3.59582E+01 -1.00000E+00  1.47769E-01
      21    -1     0     0   502   512  0.000000000E+00  0.000000000E+00  5.482083295E+01  5.482083295E+01  0.000000000E+00  0.00000E+00  9.000E+00
      21    -1     0     0   501   502  0.000000000E+00  0.000000000E+00 -6.760421407E+02  6.760421407E+02  0.000000000E+00  0.00000E+00  9.000E+00
      25     1     1     2     0     0 -1.293873234E+02 -1.880109873E+01 -3.397496655E+02  3.849018004E+02  1.250000000E+02  0.00000E+00  9.000E+00
      25     1     1     2     0     0  1.075425049E+02 -9.761031489E+00 -2.297025981E+02  2.829292343E+02  1.250000000E+02  0.00000E+00  9.000E+00
      21     1     1     2   501   512  2.184481853E+01  2.856213022E+01 -5.176904421E+01  6.303193887E+01  9.536743164E-07  0.00000E+00  9.000E+00
#rwgt            1           1   3.4707151060039083E-002           6      113241           0
</event>
<event>
      5   9999  3.79277E-02  4.56496E+01 -1.00000E+00  1.41369E-01
      21    -1     0     0   502   511  0.000000000E+00  0.000000000E+00  1.603260502E+02  1.603260502E+02  0.000000000E+00  0.00000E+00  9.000E+00
      21    -1     0     0   501   502  0.000000000E+00  0.000000000E+00 -4.545623282E+02  4.545623282E+02  0.000000000E+00  0.00000E+00  9.000E+00
      25     1     1     2     0     0  1.255471458E+02  1.254246707E+02  1.132150635E+01  2.173628541E+02  1.250000000E+02  0.00000E+00  9.000E+00
      25     1     1     2     0     0 -8.001393785E+01 -1.221663948E+02 -2.925596323E+02  3.500614185E+02  1.250000000E+02  0.00000E+00  9.000E+00
      21     1     1     2   501   511 -4.553320792E+01 -3.258275968E+00 -1.299815206E+01  4.746410583E+01  4.129530925E-07  0.00000E+00  9.000E+00
#rwgt            1           1   2.5441115637729297E-002           6      113316           0
</event>
<event>
      5   9999  3.79277E-02  2.47401E+01 -1.00000E+00  1.59092E-01
      21    -1     0     0   502   512  0.000000000E+00  0.000000000E+00  1.439187667E+03  1.439187667E+03  0.000000000E+00  0.00000E+00  9.000E+00
      21    -1     0     0   501   502  0.000000000E+00  0.000000000E+00 -3.417938056E+01  3.417938056E+01  0.000000000E+00  0.00000E+00  9.000E+00
      25     1     1     2     0     0  8.636244813E+01 -1.382728532E+01  1.077672203E+03  1.088417219E+03  1.250000000E+02  0.00000E+00  9.000E+00
      25     1     1     2     0     0 -1.025237320E+02  3.255919884E+01  2.208540523E+02  2.756315103E+02  1.250000000E+02  0.00000E+00  9.000E+00
      21     1     1     2   501   512  1.616128386E+01 -1.873191353E+01  1.064820315E+02  1.093183183E+02  1.348699152E-06  0.00000E+00  9.000E+00
#rwgt            1           1   3.9870378234722184E-002           6      113403           0
</event>
<event>
      5   9999  3.79277E-02  1.32820E+01 -1.00000E+00  1.82509E-01
      21    -1     0     0   502   501  0.000000000E+00  0.000000000E+00  7.028960694E+02  7.028960694E+02  0.000000000E+00  0.00000E+00  9.000E+00
      21    -1     0     0   511   502  0.000000000E+00  0.000000000E+00 -1.245527199E+02  1.245527199E+02  0.000000000E+00  0.00000E+00  9.000E+00
      25     1     1     2     0     0  5.262347841E+01 -6.572566732E+01  6.170433002E+02  6.351822795E+02  1.250000000E+02  0.00000E+00  9.000E+00
      25     1     1     2     0     0 -3.939762389E+01  6.694606194E+01  4.329828098E+00  1.472334724E+02  1.250000000E+02  0.00000E+00  9.000E+00
      21     1     1     2   511   501 -1.322585452E+01 -1.220394614E+00 -4.302977884E+01  4.503303741E+01  1.261592536E-06  0.00000E+00  9.000E+00
#rwgt            1           1   3.6954922774563394E-002           6      113580           0
</event>
<event>
      5   9999  3.79277E-02  4.17576E+01 -1.00000E+00  1.43691E-01
      21    -1     0     0   502   512  0.000000000E+00  0.000000000E+00  1.151908906E+02  1.151908906E+02  0.000000000E+00  0.00000E+00  9.000E+00
      21    -1     0     0   501   502  0.000000000E+00  0.000000000E+00 -7.503547788E+02  7.503547788E+02  0.000000000E+00  0.00000E+00  9.000E+00
      25     1     1     2     0     0  9.593248433E+01 -1.755407545E+02 -1.384265936E+02  2.735041496E+02  1.250000000E+02  0.00000E+00  9.000E+00
      25     1     1     2     0     0 -1.274458351E+02  2.029379610E+02 -4.708524559E+02  5.429118641E+02  1.250000000E+02  0.00000E+00  9.000E+00
      21     1     1     2   501   512  3.151335081E+01 -2.739720644E+01 -2.588483866E+01  4.912965573E+01  0.000000000E+00  0.00000E+00  9.000E+00
#rwgt            1           1   4.5715839889172175E-002           6      113800           0
</event>
<event>
      5   9999 -3.79277E-02  3.17630E+01 -1.00000E+00  1.51337E-01
      21    -1     0     0   502   501  0.000000000E+00  0.000000000E+00  3.634522821E+01  3.634522821E+01  0.000000000E+00  0.00000E+00  9.000E+00
       1    -1     0     0   501     0  0.000000000E+00  0.000000000E+00 -2.845500651E+03  2.845500651E+03  0.000000000E+00  0.00000E+00  9.000E+00
      25     1     1     2     0     0 -2.547639126E+02 -9.447889403E+01 -9.962485500E+02  1.040176469E+03  1.250000000E+02  0.00000E+00  9.000E+00
      25     1     1     2     0     0  2.354225595E+02  1.196741372E+02 -1.656268100E+03  1.681842650E+03  1.250000000E+02  0.00000E+00  9.000E+00
       1     1     1     2   502     0  1.934135305E+01 -2.519524318E+01 -1.566387731E+02  1.598267607E+02  2.697398305E-06  0.00000E+00  9.000E+00
#rwgt            1           1 -0.12566623694783760                6      113889           0
</event>
<event>
      5   9999  3.79277E-02  2.77886E+01 -1.00000E+00  1.55386E-01
      21    -1     0     0   502   501  0.000000000E+00  0.000000000E+00  1.148495211E+02  1.148495211E+02  0.000000000E+00  0.00000E+00  9.000E+00
      21    -1     0     0   501   511  0.000000000E+00  0.000000000E+00 -4.584261741E+02  4.584261741E+02  0.000000000E+00  0.00000E+00  9.000E+00
      25     1     1     2     0     0 -1.124935727E+02 -4.556021769E+01 -2.726578434E+02  3.235704513E+02  1.250000000E+02  0.00000E+00  9.000E+00
      25     1     1     2     0     0  1.075573860E+02  1.821358692E+01  7.936040147E+00  1.660972810E+02  1.250000000E+02  0.00000E+00  9.000E+00
      21     1     1     2   502   511  4.936186743E+00  2.734663076E+01 -7.885484962E+01  8.360796291E+01  1.651812370E-06  0.00000E+00  9.000E+00
#rwgt            2          11   1.1887100140448013E-003           6      114169           0
</event>
<event>
      5   9999  3.79277E-02  2.36670E+01 -1.00000E+00  1.60554E-01
      21    -1     0     0   502   512  0.000000000E+00  0.000000000E+00  6.298464253E+02  6.298464253E+02  0.000000000E+00  0.00000E+00  9.000E+00
      21    -1     0     0   501   502  0.000000000E+00  0.000000000E+00 -1.728195672E+02  1.728195672E+02  0.000000000E+00  0.00000E+00  9.000E+00
      25     1     1     2     0     0 -7.322365747E+01  5.362327039E+01  2.750990242E+02  3.155021906E+02  1.250000000E+02  0.00000E+00  9.000E+00
      25     1     1     2     0     0  4.989552799E+01 -5.761398907E+01 -1.169317716E+02  1.873685530E+02  1.250000000E+02  0.00000E+00  9.000E+00
      21     1     1     2   501   512  2.332812948E+01  3.990718673E+00  2.988596055E+02  2.997952489E+02  6.607249480E-06  0.00000E+00  9.000E+00
#rwgt            1           1   3.8587830564211667E-002           6      114384           0
</event>
<event>
      5   9999  3.79277E-02  2.34789E+01 -1.00000E+00  1.60820E-01
      21    -1     0     0   502   501  0.000000000E+00  0.000000000E+00  7.020122760E+02  7.020122760E+02  0.000000000E+00  0.00000E+00  9.000E+00
      21    -1     0     0   511   502  0.000000000E+00  0.000000000E+00 -9.698851984E+01  9.698851984E+01  0.000000000E+00  0.00000E+00  9.000E+00
      25     1     1     2     0     0 -1.693831941E+02 -1.187477797E+02  3.031540789E+02  3.877100684E+02  1.250000000E+02  0.00000E+00  9.000E+00
      25     1     1     2     0     0  1.471075527E+02  1.113279337E+02  3.138614791E+02  3.849267059E+02  1.250000000E+02  0.00000E+00  9.000E+00
      21     1     1     2   511   501  2.227564142E+01  7.419846020E+00 -1.199180186E+01  2.636402146E+01  3.371747881E-07  0.00000E+00  9.000E+00
#rwgt            1           1   4.2593585358625681E-002           6      114542           0
</event>
<event>
      5   9999  3.79277E-02  8.60173E+01 -1.00000E+00  1.26843E-01
      21    -1     0     0   502   501  0.000000000E+00  0.000000000E+00  2.926659283E+02  2.926659283E+02  0.000000000E+00  0.00000E+00  9.000E+00
       2    -1     0     0   501     0  0.000000000E+00  0.000000000E+00 -1.903157251E+03  1.903157251E+03  0.000000000E+00  0.00000E+00  9.000E+00
      25     1     1     2     0     0  3.225427399E+01 -2.143855018E+02  5.871430712E+01  2.570483446E+02  1.250000000E+02  0.00000E+00  9.000E+00
      25     1     1     2     0     0  1.915397360E+00  1.354462469E+02  7.020497235E+01  1.972386694E+02  1.250000000E+02  0.00000E+00  9.000E+00
       2     1     1     2   502     0 -3.416967136E+01  7.893925491E+01 -1.739410602E+03  1.741536165E+03  0.000000000E+00  0.00000E+00  9.000E+00
#rwgt            1           1   3.2217796367595197E-002           6      114861           0
</event>
<event>
      5   9999  3.79277E-02  2.43519E+01 -1.00000E+00  1.59610E-01
      21    -1     0     0   502   501  0.000000000E+00  0.000000000E+00  5.683752181E+02  5.683752181E+02  0.000000000E+00  0.00000E+00  9.000E+00
      21    -1     0     0   501   511  0.000000000E+00  0.000000000E+00 -8.489576603E+01  8.489576603E+01  0.000000000E+00  0.00000E+00  9.000E+00
      25     1     1     2     0     0  5.858271868E+01 -1.616812292E+02  2.749180197E+02  3.475308222E+02  1.250000000E+02  0.00000E+00  9.000E+00
      25     1     1     2     0     0 -6.125789015E+01  1.374767209E+02  2.003748226E+02  2.800490089E+02  1.250000000E+02  0.00000E+00  9.000E+00
      21     1     1     2   502   511  2.675171467E+00  2.420450832E+01  8.186609835E+00  2.569115307E+01  0.000000000E+00  0.00000E+00  9.000E+00
#rwgt            1           1   2.5504286751816731E-002           6      115109           0
</event>
<event>
      5   9999  3.79277E-02  1.87999E+01 -1.00000E+00  1.68617E-01
      21    -1     0     0   512   501  0.000000000E+00  0.000000000E+00  4.990792948E+02  4.990792948E+02  0.000000000E+00  0.00000E+00  9.000E+00
      21    -1     0     0   501   502  0.000000000E+00  0.000000000E+00 -5.343059247E+02  5.343059247E+02  0.000000000E+00  0.00000E+00  9.000E+00
      25     1     1     2     0     0 -2.556880431E+01 -2.038648382E+01 -2.158332849E+01  1.309969944E+02  1.250000000E+02  0.00000E+00  9.000E+00
      25     1     1     2     0     0  4.297026844E+01  2.750171677E+01 -4.478586225E+02  4.677661105E+02  1.250000000E+02  0.00000E+00  9.000E+00
      21     1     1     2   512   502 -1.740146413E+01 -7.115232947E+00  4.342153210E+02  4.346221146E+02  7.629394531E-06  0.00000E+00  9.000E+00
#rwgt            1           1   4.6135496473139505E-002           6      115286           0
</event>
<event>
      5   9999  3.79277E-02  2.06048E+02 -1.00000E+00  1.11179E-01
      21    -1     0     0   502   501  0.000000000E+00  0.000000000E+00  1.604393494E+03  1.604393494E+03  0.000000000E+00  0.00000E+00  9.000E+00
      21    -1     0     0   511   502  0.000000000E+00  0.000000000E+00 -1.711436536E+02  1.711436536E+02  0.000000000E+00  0.00000E+00  9.000E+00
      25     1     1     2     0     0 -1.283634342E+02 -1.225619481E+02  1.041750773E+03  1.064127941E+03  1.250000000E+02  0.00000E+00  9.000E+00
      25     1     1     2     0     0 -5.402589156E+01  2.184262679E+02  4.306157527E+02  5.016809324E+02  1.250000000E+02  0.00000E+00  9.000E+00
      21     1     1     2   511   501  1.823893258E+02 -9.586431978E+01 -3.911668492E+01  2.097282742E+02  3.568322551E-06  0.00000E+00  9.000E+00
#rwgt            1           1   3.7217710816894824E-002           6      115481           0
</event>
<event>
      5   9999  3.79277E-02  1.50495E+02 -1.00000E+00  1.16337E-01
       3    -1     0     0   502     0  0.000000000E+00  0.000000000E+00  9.994356009E+02  9.994356009E+02  0.000000000E+00  0.00000E+00  9.000E+00
      21    -1     0     0   501   502  0.000000000E+00  0.000000000E+00 -1.252267085E+02  1.252267085E+02  0.000000000E+00  0.00000E+00  9.000E+00
      25     1     1     2     0     0 -1.982098312E+02  1.089459178E+02  9.705373613E+01  2.760448838E+02  1.250000000E+02  0.00000E+00  9.000E+00
      25     1     1     2     0     0  5.724663122E+01 -5.623668567E+01  1.829979706E+02  2.356968368E+02  1.250000000E+02  0.00000E+00  9.000E+00
       3     1     1     2   501     0  1.409632000E+02 -5.270923213E+01  5.941571857E+02  6.129205888E+02  1.078959322E-05  0.00000E+00  9.000E+00
#rwgt            1           1   5.0865594001729669E-003           6      115730           0
</event>
<event>
      5   9999  3.79277E-02  1.32350E+01 -1.00000E+00  1.82663E-01
      21    -1     0     0   502   501  0.000000000E+00  0.000000000E+00  6.620694217E+01  6.620694217E+01  0.000000000E+00  0.00000E+00  9.000E+00
       2    -1     0     0   501     0  0.000000000E+00  0.000000000E+00 -1.296151290E+03  1.296151290E+03  0.000000000E+00  0.00000E+00  9.000E+00
      25     1     1     2     0     0 -1.648466423E+02 -1.252609772E+02 -6.454461178E+02  6.892680313E+02  1.250000000E+02  0.00000E+00  9.000E+00
      25     1     1     2     0     0  1.775132771E+02  1.214239469E+02 -3.063464663E+02  3.946237396E+02  1.250000000E+02  0.00000E+00  9.000E+00
       2     1     1     2   502     0 -1.266663483E+01  3.837030323E+00 -2.781517633E+02  2.784664609E+02  3.814697266E-06  0.00000E+00  9.000E+00
#rwgt            1           1   4.8137750989650271E-002           6      115779           0
</event>
<event>
      5   9999  3.79277E-02  3.47488E+01 -1.00000E+00  1.48736E-01
      21    -1     0     0   502   501  0.000000000E+00  0.000000000E+00  1.748123829E+02  1.748123829E+02  0.000000000E+00  0.00000E+00  9.000E+00
      21    -1     0     0   511   502  0.000000000E+00  0.000000000E+00 -4.749843900E+02  4.749843900E+02  0.000000000E+00  0.00000E+00  9.000E+00
      25     1     1     2     0     0  7.357243171E+01 -1.762970770E+01  8.391606114E+01  1.684951472E+02  1.250000000E+02  0.00000E+00  9.000E+00
      25     1     1     2     0     0 -1.021062606E+02  3.746145115E+01 -9.675266209E+01  1.918726828E+02  1.250000000E+02  0.00000E+00  9.000E+00
      21     1     1     2   511   501  2.853382892E+01 -1.983174345E+01 -2.873354061E+02  2.894289430E+02  5.394796609E-06  0.00000E+00  9.000E+00
#rwgt            1           1   3.6911177811349401E-002           6      115966           0
</event>
<event>
      5   9999  3.79277E-02  6.02576E+01 -1.00000E+00  1.34604E-01
      21    -1     0     0   502   501  0.000000000E+00  0.000000000E+00  1.517684356E+02  1.517684356E+02  0.000000000E+00  0.00000E+00  9.000E+00
       3    -1     0     0   501     0  0.000000000E+00  0.000000000E+00 -5.860984687E+02  5.860984687E+02  0.000000000E+00  0.00000E+00  9.000E+00
      25     1     1     2     0     0 -1.200341290E+02  2.121926744E+02 -1.128721895E+02  2.963090521E+02  1.250000000E+02  0.00000E+00  9.000E+00
      25     1     1     2     0     0  6.228932107E+01 -1.949729561E+02 -2.786172883E+02  3.676234575E+02  1.250000000E+02  0.00000E+00  9.000E+00
       3     1     1     2   502     0  5.774480796E+01 -1.721971829E+01 -4.284055529E+01  7.393439472E+01  0.000000000E+00  0.00000E+00  9.000E+00
#rwgt            1           1   4.0072270386247354E-002           6      116042           0
</event>
<event>
      5   9999  3.79277E-02  1.03683E+01 -1.00000E+00  1.93959E-01
      21    -1     0     0   511   501  0.000000000E+00  0.000000000E+00  8.653600985E+02  8.653600985E+02  0.000000000E+00  0.00000E+00  9.000E+00
      21    -1     0     0   501   502  0.000000000E+00  0.000000000E+00 -8.598798192E+01  8.598798192E+01  0.000000000E+00  0.00000E+00  9.000E+00
      25     1     1     2     0     0  6.940975102E+01 -1.734950895E+02  1.341842855E+02  2.618180324E+02  1.250000000E+02  0.00000E+00  9.000E+00
      25     1     1     2     0     0 -7.686211225E+01  1.807037541E+02  6.127985943E+02  6.555217374E+02  1.250000000E+02  0.00000E+00  9.000E+00
      21     1     1     2   511   502  7.452361227E+00 -7.208664598E+00  3.238923685E+01  3.400831070E+01  4.768371582E-07  0.00000E+00  9.000E+00
#rwgt            2          11   3.4277889267274619E-003           6      116360           0
</event>
<event>
      5   9999  3.79277E-02  3.20608E+01 -1.00000E+00  1.51062E-01
      21    -1     0     0   502   512  0.000000000E+00  0.000000000E+00  1.376613861E+02  1.376613861E+02  0.000000000E+00  0.00000E+00  9.000E+00
      21    -1     0     0   501   502  0.000000000E+00  0.000000000E+00 -4.606925517E+02  4.606925517E+02  0.000000000E+00  0.00000E+00  9.000E+00
      25     1     1     2     0     0  1.343350231E+01  9.051309229E+01 -3.594347605E+02  3.913967628E+02  1.250000000E+02  0.00000E+00  9.000E+00
      25     1     1     2     0     0  1.059804418E+01 -1.117351944E+02  4.470175558E+01  1.738399240E+02  1.250000000E+02  0.00000E+00  9.000E+00
      21     1     1     2   501   512 -2.403154649E+01  2.122210213E+01 -8.298160638E+00  3.311725103E+01  2.064765462E-07  0.00000E+00  9.000E+00
#rwgt            1           1   1.8082185057307250E-002           6      116425           0
</event>
<event>
      5   9999 -3.79277E-02  1.07931E+01 -1.00000E+00  1.92002E-01
      21    -1     0     0   511   501  0.000000000E+00  0.000000000E+00  1.088458141E+03  1.088458141E+03  0.000000000E+00  0.00000E+00  9.000E+00
      21    -1     0     0   501   502  0.000000000E+00  0.000000000E+00 -4.652759150E+02  4.652759150E+02  0.000000000E+00  0.00000E+00  9.000E+00
      25     1     1     2     0     0 -2.976251280E+02  3.303954858E+01 -3.597113514E+02  4.844477112E+02  1.250000000E+02  0.00000E+00  9.000E+00
      25     1     1     2     0     0  3.080786268E+02 -3.035356061E+01  6.030972509E+02  6.893366906E+02  1.250000000E+02  0.00000E+00  9.000E+00
      21     1     1     2   511   502 -1.045349886E+01 -2.685987962E+00  3.797963260E+02  3.799496538E+02  5.394796609E-06  0.00000E+00  9.000E+00
#rwgt            1           1 -0.36849304956111950                6      116588           0
</event>
<event>
      5   9999  3.79277E-02  3.95804E+01 -1.00000E+00  1.45125E-01
      21    -1     0     0   512   501  0.000000000E+00  0.000000000E+00  1.728931381E+02  1.728931381E+02  0.000000000E+00  0.00000E+00  9.000E+00
      21    -1     0     0   501   502  0.000000000E+00  0.000000000E+00 -6.925897216E+02  6.925897216E+02  0.000000000E+00  0.00000E+00  9.000E+00
      25     1     1     2     0     0  1.357945515E+00  6.632157424E+01 -4.025931948E+02  4.267395877E+02  1.250000000E+02  0.00000E+00  9.000E+00
      25     1     1     2     0     0  3.562443757E+01 -8.042513842E+01 -2.538882338E+02  2.963469904E+02  1.250000000E+02  0.00000E+00  9.000E+00
      21     1     1     2   512   502 -3.698238308E+01  1.410356419E+01  1.367848451E+02  1.423962816E+02  4.264961200E-06  0.00000E+00  9.000E+00
#rwgt            1           1   9.2676286670459671E-002           6      117039           0
</event>
<event>
      5   9999  3.79277E-02  1.64044E+02 -1.00000E+00  1.14874E-01
      21    -1     0     0   502   501  0.000000000E+00  0.000000000E+00  1.892223076E+03  1.892223076E+03  0.000000000E+00  0.00000E+00  9.000E+00
      -2    -1     0     0     0   502  0.000000000E+00  0.000000000E+00 -5.953170625E+02  5.953170625E+02  0.000000000E+00  0.00000E+00  9.000E+00
      25     1     1     2     0     0 -1.516535654E+02  4.840411689E+01  5.148986976E+02  5.532516888E+02  1.250000000E+02  0.00000E+00  9.000E+00
      25     1     1     2     0     0  8.532400147E+01  1.016322489E+02  1.340173178E+03  1.352515599E+03  1.250000000E+02  0.00000E+00  9.000E+00
      -2     1     1     2     0   501  6.632956397E+01 -1.500363658E+02 -5.581658611E+02  5.817728514E+02  7.629394531E-06  0.00000E+00  9.000E+00
#rwgt            1           1   3.6011637695666510E-002           6      117130           0
</event>
<event>
      5   9999  3.79277E-02  1.19338E+02 -1.00000E+00  1.20470E-01
      21    -1     0     0   502   501  0.000000000E+00  0.000000000E+00  3.984079297E+02  3.984079297E+02  0.000000000E+00  0.00000E+00  9.000E+00
      21    -1     0     0   501   511  0.000000000E+00  0.000000000E+00 -2.211440106E+02  2.211440106E+02  0.000000000E+00  0.00000E+00  9.000E+00
      25     1     1     2     0     0  8.622726194E+01  9.892080971E+00 -1.006938278E+02  1.824753159E+02  1.250000000E+02  0.00000E+00  9.000E+00
      25     1     1     2     0     0  2.816090429E+01  2.412226606E+01  2.891774232E+02  3.172120779E+02  1.250000000E+02  0.00000E+00  9.000E+00
      21     1     1     2   502   511 -1.143881662E+02 -3.401434703E+01 -1.121967626E+01  1.198645465E+02  2.454669509E-06  0.00000E+00  9.000E+00
#rwgt            1           1   3.8872843240807788E-002           6      117175           0
</event>
<event>
      5   9999  3.79277E-02  3.67947E+01 -1.00000E+00  1.47126E-01
      21    -1     0     0   502   501  0.000000000E+00  0.000000000E+00  3.803127147E+02  3.803127147E+02  0.000000000E+00  0.00000E+00  9.000E+00
      21    -1     0     0   512   502  0.000000000E+00  0.000000000E+00 -1.772040213E+02  1.772040213E+02  0.000000000E+00  0.00000E+00  9.000E+00
      25     1     1     2     0     0  1.053364117E+02  1.583364168E+02  1.176059540E+02  2.561685791E+02  1.250000000E+02  0.00000E+00  9.000E+00
      25     1     1     2     0     0 -1.001135309E+02 -1.947585201E+02  7.582134254E+01  2.633011132E+02  1.250000000E+02  0.00000E+00  9.000E+00
      21     1     1     2   512   501 -5.222880847E+00  3.642210328E+01  9.681396884E+00  3.804704374E+01  6.307962682E-07  0.00000E+00  9.000E+00
#rwgt            1           1   3.0963927513164170E-002           6      117388           0
</event>
<event>
      5   9999  3.79277E-02  3.93841E+01 -1.00000E+00  1.45259E-01
      21    -1     0     0   502   501  0.000000000E+00  0.000000000E+00  1.137665678E+02  1.137665678E+02  0.000000000E+00  0.00000E+00  9.000E+00
      21    -1     0     0   511   502  0.000000000E+00  0.000000000E+00 -6.110742768E+02  6.110742768E+02  0.000000000E+00  0.00000E+00  9.000E+00
      25     1     1     2     0     0 -9.596019641E+01  3.370254473E+01  1.784905175E+01  1.621351580E+02  1.250000000E+02  0.00000E+00  9.000E+00
      25     1     1     2     0     0  1.306599553E+02 -1.507369627E+01 -3.670338697E+02  4.094363220E+02  1.250000000E+02  0.00000E+00  9.000E+00
      21     1     1     2   511   501 -3.469975892E+01 -1.862884846E+01 -1.481228911E+02  1.532693646E+02  1.907348633E-06  0.00000E+00  9.000E+00
#rwgt            1           1   4.1164296732745471E-002           6      117699           0
</event>
<event>
      5   9999  3.79277E-02  6.08929E+01 -1.00000E+00  1.34361E-01
      21    -1     0     0   502   512  0.000000000E+00  0.000000000E+00  2.025550681E+02  2.025550681E+02  0.000000000E+00  0.00000E+00  9.000E+00
      21    -1     0     0   501   502  0.000000000E+00  0.000000000E+00 -4.172202132E+02  4.172202132E+02  0.000000000E+00  0.00000E+00  9.000E+00
      25     1     1     2     0     0 -5.748134994E+01  1.904378706E+02 -1.325777027E+02  2.697638512E+02  1.250000000E+02  0.00000E+00  9.000E+00
      25     1     1     2     0     0  1.081778178E+02 -2.241693651E+02 -7.659997115E+01  2.888717710E+02  1.250000000E+02  0.00000E+00  9.000E+00
      21     1     1     2   501   512 -5.069646783E+01  3.373149457E+01 -5.487471255E+00  6.113965912E+01  1.076189881E-06  0.00000E+00  9.000E+00
#rwgt            1           1   2.7059601998786216E-002           6      117908           0
</event>
<event>
      5   9999  3.79277E-02  6.43005E+00 -1.00000E+00  2.20902E-01
      21    -1     0     0   511   501  0.000000000E+00  0.000000000E+00  1.185411117E+02  1.185411117E+02  0.000000000E+00  0.00000E+00  9.000E+00
      21    -1     0     0   501   502  0.000000000E+00  0.000000000E+00 -5.130134936E+02  5.130134936E+02  0.000000000E+00  0.00000E+00  9.000E+00
      25     1     1     2     0     0  2.606572296E+01 -1.518328741E+01  3.914232219E+01  1.344138219E+02  1.250000000E+02  0.00000E+00  9.000E+00
      25     1     1     2     0     0 -2.214702589E+01  1.008530959E+01 -4.562089145E+02  4.736494251E+02  1.250000000E+02  0.00000E+00  9.000E+00
      21     1     1     2   511   502 -3.918697063E+00  5.097977822E+00  2.259421048E+01  2.349135823E+01  5.331201500E-07  0.00000E+00  9.000E+00
#rwgt            1           1   4.3705016615843618E-002           6      118028           0
</event>
<event>
      5   9999  3.79277E-02  4.85293E+01 -1.00000E+00  1.39819E-01
      21    -1     0     0   512   501  0.000000000E+00  0.000000000E+00  3.813203931E+02  3.813203931E+02  0.000000000E+00  0.00000E+00  9.000E+00
      21    -1     0     0   501   502  0.000000000E+00  0.000000000E+00 -1.258963876E+02  1.258963876E+02  0.000000000E+00  0.00000E+00  9.000E+00
      25     1     1     2     0     0  5.023838906E+01  6.704038106E+01  2.133789088E+02  2.611012584E+02  1.250000000E+02  0.00000E+00  9.000E+00
      25     1     1     2     0     0 -3.791321940E+01 -1.139784246E+02 -1.163677558E+01  1.737495555E+02  1.250000000E+02  0.00000E+00  9.000E+00
      21     1     1     2   512   502 -1.232516965E+01  4.693804355E+01  5.368187235E+01  7.236596685E+01  6.743495762E-07  0.00000E+00  9.000E+00
#rwgt            1           1   2.7475301513728394E-002           6      118433           0
</event>
<event>
      5   9999  3.79277E-02  4.21600E+01 -1.00000E+00  1.43438E-01
      21    -1     0     0   511   501  0.000000000E+00  0.000000000E+00  2.646303081E+02  2.646303081E+02  0.000000000E+00  0.00000E+00  9.000E+00
      21    -1     0     0   501   502  0.000000000E+00  0.000000000E+00 -1.988513823E+02  1.988513823E+02  0.000000000E+00  0.00000E+00  9.000E+00
      25     1     1     2     0     0  5.197659427E+00 -1.055370481E+02  1.216729968E+02  2.039470577E+02  1.250000000E+02  0.00000E+00  9.000E+00
      25     1     1     2     0     0 -4.689488878E+01  1.117667571E+02 -9.812508712E+01  1.998611300E+02  1.250000000E+02  0.00000E+00  9.000E+00
      21     1     1     2   511   502  4.169722935E+01 -6.229708911E+00  4.223101605E+01  5.967350271E+01  4.768371582E-07  0.00000E+00  9.000E+00
#rwgt            1           1  0.13213994237951382                6      118567           0
</event>
<event>
      5   9999  3.79277E-02  1.26029E+01 -1.00000E+00  1.84817E-01
      21    -1     0     0   502   501  0.000000000E+00  0.000000000E+00  1.009950633E+02  1.009950633E+02  0.000000000E+00  0.00000E+00  9.000E+00
      21    -1     0     0   501   512  0.000000000E+00  0.000000000E+00 -5.486719440E+02  5.486719440E+02  0.000000000E+00  0.00000E+00  9.000E+00
      25     1     1     2     0     0  1.394680493E+02  8.543669755E+01 -2.201186478E+02  3.013768160E+02  1.250000000E+02  0.00000E+00  9.000E+00
      25     1     1     2     0     0 -1.293856657E+02 -7.787512120E+01 -9.992180890E+01  2.200330722E+02  1.250000000E+02  0.00000E+00  9.000E+00
      21     1     1     2   502   512 -1.008238367E+01 -7.561576352E+00 -1.276364239E+02  1.282571191E+02  0.000000000E+00  0.00000E+00  9.000E+00
#rwgt            1           1   2.3122277777990811E-002           6      118794           0
</event>
<event>
      5   9999  3.79277E-02  3.79505E+01 -1.00000E+00  1.46271E-01
      21    -1     0     0   502   501  0.000000000E+00  0.000000000E+00  2.266567530E+02  2.266567530E+02  0.000000000E+00  0.00000E+00  9.000E+00
      21    -1     0     0   511   502  0.000000000E+00  0.000000000E+00 -2.380482596E+02  2.380482596E+02  0.000000000E+00  0.00000E+00  9.000E+00
      25     1     1     2     0     0 -2.529820267E+01  1.429632837E+02 -4.810371123E+01  1.975283944E+02  1.250000000E+02  0.00000E+00  9.000E+00
      25     1     1     2     0     0  3.897665274E+01 -1.783630428E+02  5.022476818E+01  2.268922252E+02  1.250000000E+02  0.00000E+00  9.000E+00
      21     1     1     2   511   501 -1.367845007E+01  3.539975915E+01 -1.351256355E+01  4.028439298E+01  3.371747881E-07  0.00000E+00  9.000E+00
#rwgt            1           1   4.2805128013686300E-002           6      118961           0
</event>
<event>
      5   9999  3.79277E-02  6.81355E+01 -1.00000E+00  1.31817E-01
      21    -1     0     0   512   501  0.000000000E+00  0.000000000E+00  2.705417700E+02  2.705417700E+02  0.000000000E+00  0.00000E+00  9.000E+00
      21    -1     0     0   501   502  0.000000000E+00  0.000000000E+00 -3.580767015E+02  3.580767015E+02  0.000000000E+00  0.00000E+00  9.000E+00
      25     1     1     2     0     0 -1.144694509E+02 -3.592733021E+01 -2.688237350E+02  3.198206197E+02  1.250000000E+02  0.00000E+00  9.000E+00
      25     1     1     2     0     0  7.637656919E+01 -2.056501466E+01  1.892467505E+02  2.401991522E+02  1.250000000E+02  0.00000E+00  9.000E+00
      21     1     1     2   512   502  3.809288172E+01  5.649234487E+01 -7.957947020E+00  6.859869960E+01  9.684608465E-07  0.00000E+00  9.000E+00
#rwgt            1           1   3.6827198478203427E-002           6      119115           0
</event>
<event>
      5   9999  3.79277E-02  1.98831E+01 -1.00000E+00  1.66579E-01
      21    -1     0     0   502   501  0.000000000E+00  0.000000000E+00  5.239161618E+01  5.239161618E+01  0.000000000E+00  0.00000E+00  9.000E+00
      21    -1     0     0   511   502  0.000000000E+00  0.000000000E+00 -2.849785160E+03  2.849785160E+03  0.000000000E+00  0.00000E+00  9.000E+00
      25     1     1     2     0     0  9.809326228E+01 -2.718073052E+01 -1.046113549E+02  1.921707985E+02  1.250000000E+02  0.00000E+00  9.000E+00
      25     1     1     2     0     0 -1.035478019E+02  8.060412197E+00 -7.627593748E+02  7.798807482E+02  1.250000000E+02  0.00000E+00  9.000E+00
      21     1     1     2   511   501  5.454539593E+00  1.912031832E+01 -1.930022815E+03  1.930125230E+03  4.825252777E-05  0.00000E+00  9.000E+00
#rwgt            1           1   3.7394498515075834E-002           6      119239           0
</event>
<event>
      5   9999  3.79277E-02  6.38654E+01 -1.00000E+00  1.33270E-01
      21    -1     0     0   502   501  0.000000000E+00  0.000000000E+00  7.626188896E+02  7.626188896E+02  0.000000000E+00  0.00000E+00  9.000E+00
      21    -1     0     0   512   502  0.000000000E+00  0.000000000E+00 -1.548796640E+02  1.548796640E+02  0.000000000E+00  0.00000E+00  9.000E+00
      25     1     1     2     0     0  4.990248629E+01  4.289203723E+01  9.041283283E+01  1.677184108E+02  1.250000000E+02  0.00000E+00  9.000E+00
      25     1     1     2     0     0 -6.304219024E+01 -1.053911388E+02  6.114334458E+02  6.360483224E+02  1.250000000E+02  0.00000E+00  9.000E+00
      21     1     1     2   512   501  1.313970395E+01  6.249910157E+01 -9.410705300E+01  1.137318203E+02  0.000000000E+00  0.00000E+00  9.000E+00
#rwgt            1           1   5.2417256927216514E-002           6      119529           0
</event>
<event>
      5   9999  3.79277E-02  2.53159E+01 -1.00000E+00  1.58343E-01
      21    -1     0     0   502   501  0.000000000E+00  0.000000000E+00  4.963444772E+02  4.963444772E+02  0.000000000E+00  0.00000E+00  9.000E+00
      21    -1     0     0   511   502  0.000000000E+00  0.000000000E+00 -1.425489442E+02  1.425489442E+02  0.000000000E+00  0.00000E+00  9.000E+00
      25     1     1     2     0     0 -3.237314444E+01  6.342915011E+01  4.325612605E+02  4.558569092E+02  1.250000000E+02  0.00000E+00  9.000E+00
      25     1     1     2     0     0  2.153960620E+01 -4.054836787E+01 -8.364245365E+01  1.572551583E+02  1.250000000E+02  0.00000E+00  9.000E+00
      21     1     1     2   511   501  1.083353824E+01 -2.288078224E+01  4.876726093E+00  2.578135380E+01  3.998401125E-07  0.00000E+00  9.000E+00
#rwgt            1           1   3.8262533013158941E-002           6      119636           0
</event>
<event>
      5   9999  3.79277E-02  8.12362E+01 -1.00000E+00  1.28028E-01
      21    -1     0     0   512   501  0.000000000E+00  0.000000000E+00  1.599413517E+02  1.599413517E+02  0.000000000E+00  0.00000E+00  9.000E+00
      21    -1     0     0   501   502  0.000000000E+00  0.000000000E+00 -4.024468158E+02  4.024468158E+02  0.000000000E+00  0.00000E+00  9.000E+00
      25     1     1     2     0     0 -8.981878220E+01 -1.307295772E+02 -2.380492214E+02  3.121699342E+02  1.250000000E+02  0.00000E+00  9.000E+00
      25     1     1     2     0     0  9.941104636E+01  5.006167012E+01  1.014522022E+01  1.676802089E+02  1.250000000E+02  0.00000E+00  9.000E+00
      21     1     1     2   512   502 -9.592264158E+00  8.066790705E+01 -1.460146292E+01  8.253802445E+01  1.440411326E-06  0.00000E+00  9.000E+00
#rwgt            1           1   8.6527780497979212E-002           6      119801           0
</event>
<event>
      5   9999  3.79277E-02  1.01912E+02  7.55638E-03  1.23459E-01
      -2    -1     0     0     0   501  0.000000000E+00  0.000000000E+00  4.177974676E+02  4.177974676E+02  0.000000000E+00  0.00000E+00  9.000E+00
       2    -1     0     0   502     0  0.000000000E+00  0.000000000E+00 -1.654227374E+02  1.654227374E+02  0.000000000E+00  0.00000E+00  9.000E+00
      25     1     1     2     0     0  5.790136349E+01 -3.744403714E+01  3.054950925E+02  3.372045007E+02  1.250000000E+02  0.00000E+00  9.000E+00
      25     1     1     2     0     0  4.400151680E+01  3.879431525E+01 -3.576272806E+01  1.426362685E+02  1.250000000E+02  0.00000E+00  9.000E+00
      21     1     1     2   502   501 -1.019028803E+02 -1.350278111E+00 -1.735763425E+01  1.033794357E+02  1.390207266E-06  0.00000E+00  9.000E+00
#rwgt            3           4   1.8726904836030799E-005           6      120021           0
</event>
<event>
      5   9999 -3.79277E-02  6.75978E+01 -1.00000E+00  1.31993E-01
      21    -1     0     0   502   511  0.000000000E+00  0.000000000E+00  1.641332771E+02  1.641332771E+02  0.000000000E+00  0.00000E+00  9.000E+00
      21    -1     0     0   501   502  0.000000000E+00  0.000000000E+00 -3.925979054E+02  3.925979054E+02  0.000000000E+00  0.00000E+00  9.000E+00
      25     1     1     2     0     0 -7.643808812E+01  1.341735388E+02 -2.283105890E+02  3.026483849E+02  1.250000000E+02  0.00000E+00  9.000E+00
      25     1     1     2     0     0  8.869644326E+00 -1.321818511E+02 -2.098807794E+01  1.833472437E+02  1.250000000E+02  0.00000E+00  9.000E+00
      21     1     1     2   501   511  6.756844379E+01 -1.991687694E+00  2.083403866E+01  7.073555389E+01  4.129530925E-07  0.00000E+00  9.000E+00
#rwgt            1           1 -0.16375018961478871                6      120115           0
</event>
<event>
      5   9999  3.79277E-02  2.89825E+01 -1.00000E+00  1.54088E-01
      21    -1     0     0   502   501  0.000000000E+00  0.000000000E+00  1.624615118E+02  1.624615118E+02  0.000000000E+00  0.00000E+00  9.000E+00
      21    -1     0     0   512   502  0.000000000E+00  0.000000000E+00 -2.538779461E+02  2.538779461E+02  0.000000000E+00  0.00000E+00  9.000E+00
      25     1     1     2     0     0  4.519916883E+01 -4.538097176E+01  9.513324810E+01  1.696400081E+02  1.250000000E+02  0.00000E+00  9.000E+00
      25     1     1     2     0     0 -3.671078792E+01  1.766941804E+01 -1.625997565E+02  2.091018199E+02  1.250000000E+02  0.00000E+00  9.000E+00
      21     1     1     2   512   501 -8.488380908E+00  2.771155372E+01 -2.394992596E+01  3.759762990E+01  3.371747881E-07  0.00000E+00  9.000E+00
#rwgt            1           1   4.0197936024105943E-002           6      120216           0
</event>
<event>
      5   9999  3.79277E-02  5.20049E+01 -1.00000E+00  1.38108E-01
       1    -1     0     0   502     0  0.000000000E+00  0.000000000E+00  1.266057447E+03  1.266057447E+03  0.000000000E+00  0.00000E+00  9.000E+00
      21    -1     0     0   501   502  0.000000000E+00  0.000000000E+00 -6.884290575E+01  6.884290575E+01  0.000000000E+00  0.00000E+00  9.000E+00
      25     1     1     2     0     0 -1.712658335E+02  7.150015029E+01  9.998102893E+02  1.024543738E+03  1.250000000E+02  0.00000E+00  9.000E+00
      25     1     1     2     0     0  1.226671727E+02 -5.298841598E+01  1.767435306E+02  2.543978834E+02  1.250000000E+02  0.00000E+00  9.000E+00
       1     1     1     2   501     0  4.859866080E+01 -1.851173431E+01  2.066072101E+01  5.595873061E+01  1.118282261E-06  0.00000E+00  9.000E+00
#rwgt            1           1   2.5129865993331724E-002           6      120486           0
</event>
<event>
      5   9999  3.79277E-02  2.98238E+01 -1.00000E+00  1.53218E-01
      21    -1     0     0   502   501  0.000000000E+00  0.000000000E+00  1.028675669E+02  1.028675669E+02  0.000000000E+00  0.00000E+00  9.000E+00
       2    -1     0     0   501     0  0.000000000E+00  0.000000000E+00 -9.202111171E+02  9.202111171E+02  0.000000000E+00  0.00000E+00  9.000E+00
      25     1     1     2     0     0  1.290379267E+02  8.881079612E+01 -1.214260120E+02  2.343233245E+02  1.250000000E+02  0.00000E+00  9.000E+00
      25     1     1     2     0     0 -1.198065939E+02 -1.171699337E+02 -1.916740433E+02  2.836306616E+02  1.250000000E+02  0.00000E+00  9.000E+00
       2     1     1     2   502     0 -9.231332795E+00  2.835913755E+01 -5.042434950E+02  5.051246979E+02  7.629394531E-06  0.00000E+00  9.000E+00
#rwgt            1           1   3.8754890525111760E-002           6      120603           0
</event>
<event>
      5   9999  3.79277E-02  5.37081E+01 -1.00000E+00  1.37326E-01
      21    -1     0     0   502   501  0.000000000E+00  0.000000000E+00  3.982534949E+01  3.982534949E+01  0.000000000E+00  0.00000E+00  9.000E+00
       1    -1     0     0   501     0  0.000000000E+00  0.000000000E+00 -3.130042494E+03  3.130042494E+03  0.000000000E+00  0.00000E+00  9.000E+00
      25     1     1     2     0     0 -3.613802678E+01 -2.397706981E+02 -1.709045509E+03  1.730681223E+03  1.250000000E+02  0.00000E+00  9.000E+00
      25     1     1     2     0     0 -2.221321460E+00  2.021792335E+02 -4.724693954E+02  5.288985785E+02  1.250000000E+02  0.00000E+00  9.000E+00
       1     1     1     2   502     0  3.835934824E+01  3.759146465E+01 -9.087022395E+02  9.102880412E+02  0.000000000E+00  0.00000E+00  9.000E+00
#rwgt            1           1  0.11895397523851549                6      120841           0
</event>
<event>
      5   9999  3.79277E-02  3.75464E+01 -1.00000E+00  1.46566E-01
      -2    -1     0     0     0   501  0.000000000E+00  0.000000000E+00  5.243568135E+01  5.243568135E+01  0.000000000E+00  0.00000E+00  9.000E+00
      21    -1     0     0   501   502  0.000000000E+00  0.000000000E+00 -1.520569462E+03  1.520569462E+03  0.000000000E+00  0.00000E+00  9.000E+00
      25     1     1     2     0     0  6.264033840E+01  8.898883237E+01 -1.115895687E+03  1.128136078E+03  1.250000000E+02  0.00000E+00  9.000E+00
      25     1     1     2     0     0 -8.221419442E+01 -5.694824050E+01 -3.701385304E+02  4.032738617E+02  1.250000000E+02  0.00000E+00  9.000E+00
      -2     1     1     2     0   502  1.957385602E+01 -3.204059187E+01  1.790043703E+01  4.159520420E+01  1.980453459E-06  0.00000E+00  9.000E+00
#rwgt            1           1   4.2318545267438785E-002           6      120941           0
</event>
<event>
      5   9999  3.79277E-02  2.92822E+01 -1.00000E+00  1.53774E-01
      21    -1     0     0   502   501  0.000000000E+00  0.000000000E+00  1.178176330E+03  1.178176330E+03  0.000000000E+00  0.00000E+00  9.000E+00
      21    -1     0     0   501   511  0.000000000E+00  0.000000000E+00 -5.013776804E+01  5.013776804E+01  0.000000000E+00  0.00000E+00  9.000E+00
      25     1     1     2     0     0 -5.891773465E+00  1.711719130E+02  4.255765244E+02  4.754733588E+02  1.250000000E+02  0.00000E+00  9.000E+00
      25     1     1     2     0     0 -3.498235006E+00 -1.989077532E+02  6.650489066E+02  7.053308303E+02  1.250000000E+02  0.00000E+00  9.000E+00
      21     1     1     2   502   511  9.390008471E+00  2.773584025E+01  3.741313123E+01  4.750990930E+01  4.768371582E-07  0.00000E+00  9.000E+00
#rwgt            1           1   4.0359613962826356E-002           6      121152           0
</event>
<event>
      5   9999  3.79277E-02  1.49195E+02 -1.00000E+00  1.16486E-01
      21    -1     0     0   502   512  0.000000000E+00  0.000000000E+00  1.670356071E+03  1.670356071E+03  0.000000000E+00  0.00000E+00  9.000E+00
      21    -1     0     0   501   502  0.000000000E+00  0.000000000E+00 -2.417315187E+02  2.417315187E+02  0.000000000E+00  0.00000E+00  9.000E+00
      25     1     1     2     0     0  6.939896565E+01  1.195537845E+02 -2.544010973E+01  1.880997687E+02  1.250000000E+02  0.00000E+00  9.000E+00
      25     1     1     2     0     0 -1.512483377E+01 -2.585267179E+02  2.664262254E+01  2.887899821E+02  1.250000000E+02  0.00000E+00  9.000E+00
      21     1     1     2   501   512 -5.427413188E+01  1.389729334E+02  1.427422039E+03  1.435197839E+03  1.525878906E-05  0.00000E+00  9.000E+00
#rwgt            1           1   3.8723649691720874E-002           6      121305           0
</event>
<event>
      5   9999  3.79277E-02  2.47408E+01 -1.00000E+00  1.59091E-01
      21    -1     0     0   502   511  0.000000000E+00  0.000000000E+00  1.336851845E+02  1.336851845E+02  0.000000000E+00  0.00000E+00  9.000E+00
      21    -1     0     0   501   502  0.000000000E+00  0.000000000E+00 -3.411734866E+02  3.411734866E+02  0.000000000E+00  0.00000E+00  9.000E+00
      25     1     1     2     0     0  1.077866724E+02  2.602560930E+01 -2.289519195E+02  2.834418468E+02  1.250000000E+02  0.00000E+00  9.000E+00
      25     1     1     2     0     0 -1.078377478E+02 -1.284868542E+00  2.269496072E+01  1.666454079E+02  1.250000000E+02  0.00000E+00  9.000E+00
      21     1     1     2   501   511  5.107547229E-02 -2.474074076E+01 -1.231343298E+00  2.477141636E+01  4.975738483E-07  0.00000E+00  9.000E+00
#rwgt            1           1   3.8399977817728310E-002           6      121366           0
</event>
<event>
      5   9999  3.79277E-02  5.84980E+01 -1.00000E+00  1.35294E-01
      21    -1     0     0   502   512  0.000000000E+00  0.000000000E+00  1.850172745E+01  1.850172745E+01  0.000000000E+00  0.00000E+00  9.000E+00
      21    -1     0     0   501   502  0.000000000E+00  0.000000000E+00 -1.973629324E+03  1.973629324E+03  0.000000000E+00  0.00000E+00  9.000E+00
      25     1     1     2     0     0  3.636733180E+01 -4.974786297E+01 -5.337322121E+02  5.516271448E+02  1.250000000E+02  0.00000E+00  9.000E+00
      25     1     1     2     0     0 -9.486533097E+01  4.977870215E+01 -1.210587165E+03  1.221729772E+03  1.250000000E+02  0.00000E+00  9.000E+00
      21     1     1     2   501   512  5.849799916E+01 -3.083918506E-02 -2.108082193E+02  2.187741351E+02  0.000000000E+00  0.00000E+00  9.000E+00
#rwgt            1           1  0.11732411155793786                6      121484           0
</event>
<event>
      5   9999  3.79277E-02  2.77444E+01 -1.00000E+00  1.55436E-01
      21    -1     0     0   502   501  0.000000000E+00  0.000000000E+00  1.829921245E+02  1.829921245E+02  0.000000000E+00  0.00000E+00  9.000E+00
      21    -1     0     0   511   502  0.000000000E+00  0.000000000E+00 -3.264986225E+02  3.264986225E+02  0.000000000E+00  0.00000E+00  9.000E+00
      25     1     1     2     0     0 -1.331131067E+02 -8.572296029E+01  4.750190662E+01  2.072412995E+02  1.250000000E+02  0.00000E+00  9.000E+00
      25     1     1     2     0     0  1.211424086E+02  1.107520080E+02 -1.721257398E+02  2.686889665E+02  1.250000000E+02  0.00000E+00  9.000E+00
      21     1     1     2   511   501  1.197069814E+01 -2.502904775E+01 -1.888266483E+01  3.356048088E+01  0.000000000E+00  0.00000E+00  9.000E+00
#rwgt            1           1   4.2356172105406167E-002           6      121629           0
</event>
<event>
      5   9999  3.79277E-02  9.37853E+01 -1.00000E+00  1.25094E-01
      21    -1     0     0   502   501  0.000000000E+00  0.000000000E+00  2.737707148E+03  2.737707148E+03  0.000000000E+00  0.00000E+00  9.000E+00
      21    -1     0     0   501   512  0.000000000E+00  0.000000000E+00 -1.054248773E+02  1.054248773E+02  0.000000000E+00  0.00000E+00  9.000E+00
      25     1     1     2     0     0  2.488039628E+02 -1.444295564E+02  1.003410828E+03  1.051295200E+03  1.250000000E+02  0.00000E+00  9.000E+00
      25     1     1     2     0     0 -1.937988925E+02  6.846820432E+01  1.671568136E+03  1.688789785E+03  1.250000000E+02  0.00000E+00  9.000E+00
      21     1     1     2   502   512 -5.500507036E+01  7.596135205E+01 -4.269669321E+01  1.030470397E+02  2.821006671E-06  0.00000E+00  9.000E+00
#rwgt            1           1   6.8916680787556375E-002           6      121841           0
</event>
<event>
      5   9999  3.79277E-02  5.39911E+01 -1.00000E+00  1.37199E-01
      21    -1     0     0   502   511  0.000000000E+00  0.000000000E+00  4.959687217E+02  4.959687217E+02  0.000000000E+00  0.00000E+00  9.000E+00
      21    -1     0     0   501   502  0.000000000E+00  0.000000000E+00 -2.264793508E+02  2.264793508E+02  0.000000000E+00  0.00000E+00  9.000E+00
      25     1     1     2     0     0 -2.148035146E+02 -2.171709906E+01 -1.018080844E+02  2.694477098E+02  1.250000000E+02  0.00000E+00  9.000E+00
      25     1     1     2     0     0  1.620593388E+02  1.018075771E+01  2.808057987E+02  3.476259106E+02  1.250000000E+02  0.00000E+00  9.000E+00
      21     1     1     2   501   511  5.274417573E+01  1.153634135E+01  9.049165664E+01  1.053744522E+02  9.536743164E-07  0.00000E+00  9.000E+00
#rwgt            1           1   4.6728403672315608E-002           6      122082           0
</event>
<event>
      5   9999  3.92808E-02  5.19659E+01 -1.00000E+00  1.38127E-01
      21    -1     0     0   502   501  0.000000000E+00  0.000000000E+00  1.041386524E+03  1.041386524E+03  0.000000000E+00  0.00000E+00  9.000E+00
      21    -1     0     0   512   502  0.000000000E+00  0.000000000E+00 -1.397759599E+02  1.397759599E+02  0.000000000E+00  0.00000E+00  9.000E+00
      25     1     1     2     0     0 -3.064277049E+01  1.767188336E+02  4.642278481E+02  5.131286588E+02  1.250000000E+02  0.00000E+00  9.000E+00
      25     1     1     2     0     0 -1.669509700E+01 -1.552809969E+02  5.274171959E+02  5.640787293E+02  1.250000000E+02  0.00000E+00  9.000E+00
      21     1     1     2   512   501  4.733786749E+01 -2.143783668E+01 -9.003447945E+01  1.039550962E+02  4.156969970E-06  0.00000E+00  9.000E+00
#rwgt            1           1  0.54065510910488601                6      122170           0
</event>
<event>
      5   9999  3.79277E-02  3.15288E+01 -1.00000E+00  1.51556E-01
      21    -1     0     0   502   511  0.000000000E+00  0.000000000E+00  1.020088632E+02  1.020088632E+02  0.000000000E+00  0.00000E+00  9.000E+00
      21    -1     0     0   501   502  0.000000000E+00  0.000000000E+00 -1.046549565E+03  1.046549565E+03  0.000000000E+00  0.00000E+00  9.000E+00
      25     1     1     2     0     0  2.221502845E+02  5.899674167E+01 -2.775339448E+02  3.814203128E+02  1.250000000E+02  0.00000E+00  9.000E+00
      25     1     1     2     0     0 -1.938345562E+02 -7.286333996E+01 -6.879861339E+02  7.292673186E+02  1.250000000E+02  0.00000E+00  9.000E+00
      21     1     1     2   501   511 -2.831572828E+01  1.386659829E+01  2.097937677E+01  3.787079701E+01  8.259061849E-07  0.00000E+00  9.000E+00
#rwgt            1           1   2.6960785824775287E-002           6      122266           0
</event>
<event>
      5   9999  3.79277E-02  1.91231E+02 -1.00000E+00  1.12361E-01
      21    -1     0     0   502   501  0.000000000E+00  0.000000000E+00  1.289200321E+03  1.289200321E+03  0.000000000E+00  0.00000E+00  9.000E+00
      21    -1     0     0   501   512  0.000000000E+00  0.000000000E+00 -1.477217489E+02  1.477217489E+02  0.000000000E+00  0.00000E+00  9.000E+00
      25     1     1     2     0     0  1.078208561E+02 -1.803165457E+02  3.331615785E+02  4.132324177E+02  1.250000000E+02  0.00000E+00  9.000E+00
      25     1     1     2     0     0  7.902491832E-01  3.377112877E+02  7.357592348E+02  8.191557788E+02  1.250000000E+02  0.00000E+00  9.000E+00
      21     1     1     2   502   512 -1.086111052E+02 -1.573947420E+02  7.255775878E+01  2.045338733E+02  5.560829062E-06  0.00000E+00  9.000E+00
#rwgt            1           1   3.7987578322181255E-002           6      122467           0
</event>
<event>
      5   9999 -3.79277E-02  8.06082E+01 -1.00000E+00  1.28190E-01
      21    -1     0     0   502   501  0.000000000E+00  0.000000000E+00  2.833025364E+02  2.833025364E+02  0.000000000E+00  0.00000E+00  9.000E+00
      21    -1     0     0   511   502  0.000000000E+00  0.000000000E+00 -1.378001341E+02  1.378001341E+02  0.000000000E+00  0.00000E+00  9.000E+00
      25     1     1     2     0     0 -5.302727287E+01 -2.347088688E+01  2.737417601E+01  1.404888597E+02  1.250000000E+02  0.00000E+00  9.000E+00
      25     1     1     2     0     0  2.696917096E+01  9.975099740E+01  1.170327918E+02  1.999981800E+02  1.250000000E+02  0.00000E+00  9.000E+00
      21     1     1     2   511   501  2.605810191E+01 -7.628011051E+01  1.095434532E+00  8.061563069E+01  8.843308762E-07  0.00000E+00  9.000E+00
#rwgt            1           1 -0.22482999128351769                6      122550           0
</event>
<event>
      5   9999  3.79277E-02  7.45535E+01 -1.00000E+00  1.29849E-01
      21    -1     0     0   512   501  0.000000000E+00  0.000000000E+00  3.687878863E+02  3.687878863E+02  0.000000000E+00  0.00000E+00  9.000E+00
      21    -1     0     0   501   502  0.000000000E+00  0.000000000E+00 -2.778717084E+02  2.778717084E+02  0.000000000E+00  0.00000E+00  9.000E+00
      25     1     1     2     0     0 -6.456517550E+01  1.086629497E+02 -1.853681505E+02  2.568319484E+02  1.250000000E+02  0.00000E+00  9.000E+00
      25     1     1     2     0     0  1.322123602E+02 -7.732486365E+01  1.747347804E+02  2.638493627E+02  1.250000000E+02  0.00000E+00  9.000E+00
      21     1     1     2   512   502 -6.764718469E+01 -3.133808603E+01  1.015495479E+02  1.259782835E+02  1.348699152E-06  0.00000E+00  9.000E+00
#rwgt            1           1   2.8620375149904530E-002           6      122578           0
</event>
<event>
      5   9999 -3.79277E-02  9.43522E+01 -1.00000E+00  1.24974E-01
      21    -1     0     0   502   501  0.000000000E+00  0.000000000E+00  4.197154545E+02  4.197154545E+02  0.000000000E+00  0.00000E+00  9.000E+00
      -2    -1     0     0     0   502  0.000000000E+00  0.000000000E+00 -1.836609208E+02  1.836609208E+02  0.000000000E+00  0.00000E+00  9.000E+00
      25     1     1     2     0     0  9.131895694E+01 -3.409743233E+01  2.686490336E+02  3.119280206E+02  1.250000000E+02  0.00000E+00  9.000E+00
      25     1     1     2     0     0  1.980201744E+00  4.815444287E+01  7.075629035E+01  1.515065153E+02  1.250000000E+02  0.00000E+00  9.000E+00
      -2     1     1     2     0   501 -9.329915869E+01 -1.405701054E+01 -1.033507902E+02  1.399418393E+02  1.348699152E-06  0.00000E+00  9.000E+00
#rwgt            1           1  -9.7581110568107518E-002           6      122707           0
</event>
<event>
      5   9999  3.79277E-02  1.01060E+02 -1.00000E+00  1.23622E-01
      21    -1     0     0   511   501  0.000000000E+00  0.000000000E+00  7.001672019E+02  7.001672019E+02  0.000000000E+00  0.00000E+00  9.000E+00
      21    -1     0     0   501   502  0.000000000E+00  0.000000000E+00 -1.222283672E+02  1.222283672E+02  0.000000000E+00  0.00000E+00  9.000E+00
      25     1     1     2     0     0 -7.535579334E+01 -1.626019333E+02  5.293111424E+01  2.248212338E+02  1.250000000E+02  0.00000E+00  9.000E+00
      25     1     1     2     0     0  1.005431713E+02  6.473139059E+01  2.452224933E+02  3.000969067E+02  1.250000000E+02  0.00000E+00  9.000E+00
      21     1     1     2   511   502 -2.518737792E+01  9.787054271E+01  2.797852272E+02  2.974774286E+02  0.000000000E+00  0.00000E+00  9.000E+00
#rwgt            1           1   4.6187376313098112E-002           6      122892           0
</event>
<event>
      5   9999  3.79277E-02  5.84244E+01 -1.00000E+00  1.35324E-01
      21    -1     0     0   512   501  0.000000000E+00  0.000000000E+00  1.405156850E+03  1.405156850E+03  0.000000000E+00  0.00000E+00  9.000E+00
      21    -1     0     0   501   502  0.000000000E+00  0.000000000E+00 -4.476187763E+01  4.476187763E+01  0.000000000E+00  0.00000E+00  9.000E+00
      25     1     1     2     0     0 -2.490209115E+01  1.243178909E+02  8.511473051E+02  8.695698862E+02  1.250000000E+02  0.00000E+00  9.000E+00
      25     1     1     2     0     0 -1.745553034E+01 -1.645576766E+02  3.120523293E+02  3.746806382E+02  1.250000000E+02  0.00000E+00  9.000E+00
      21     1     1     2   512   502  4.235762149E+01  4.023978569E+01  1.971953377E+02  2.056682028E+02  2.697398305E-06  0.00000E+00  9.000E+00
#rwgt            1           1   3.7854427154687835E-002           6      123094           0
</event>
<event>
      5   9999  3.79277E-02  1.11054E+02 -1.00000E+00  1.21814E-01
      21    -1     0     0   502   501  0.000000000E+00  0.000000000E+00  2.750817975E+02  2.750817975E+02  0.000000000E+00  0.00000E+00  9.000E+00
      21    -1     0     0   511   502  0.000000000E+00  0.000000000E+00 -4.715747976E+02  4.715747976E+02  0.000000000E+00  0.00000E+00  9.000E+00
      25     1     1     2     0     0  1.672803444E+02 -4.958123759E+01 -4.074898874E+01  2.184639394E+02  1.250000000E+02  0.00000E+00  9.000E+00
      25     1     1     2     0     0 -1.385797942E+02 -5.770044132E+01  1.211482452E+02  2.298599522E+02  1.250000000E+02  0.00000E+00  9.000E+00
      21     1     1     2   511   501 -2.870055014E+01  1.072816789E+02 -2.768922565E+02  2.983327034E+02  0.000000000E+00  0.00000E+00  9.000E+00
#rwgt            2          11   2.0649345552108183E-003           6      123172           0
</event>
<event>
      5   9999  3.79277E-02  3.73056E+01 -1.00000E+00  1.46744E-01
      21    -1     0     0   512   501  0.000000000E+00  0.000000000E+00  3.896626579E+03  3.896626579E+03  0.000000000E+00  0.00000E+00  9.000E+00
      21    -1     0     0   501   502  0.000000000E+00  0.000000000E+00 -2.486076190E+01  2.486076190E+01  0.000000000E+00  0.00000E+00  9.000E+00
      25     1     1     2     0     0 -1.121525195E+02  1.779105609E+02  8.734157578E+02  9.070338699E+02  1.250000000E+02  0.00000E+00  9.000E+00
      25     1     1     2     0     0  8.199637755E+01 -1.998723058E+02  2.015513534E+03  2.030909193E+03  1.250000000E+02  0.00000E+00  9.000E+00
      21     1     1     2   512   502  3.015614196E+01  2.196174485E+01  9.828365259E+02  9.835442785E+02  1.078959322E-05  0.00000E+00  9.000E+00
#rwgt            1           1   5.9641186007135479E-002           6      123207           0
</event>
<event>
      5   9999  3.79277E-02  4.04359E+01 -1.00000E+00  1.44549E-01
      21    -1     0     0   511   501  0.000000000E+00  0.000000000E+00  1.608470491E+02  1.608470491E+02  0.000000000E+00  0.00000E+00  9.000E+00
      21    -1     0     0   501   502  0.000000000E+00  0.000000000E+00 -5.381593138E+02  5.381593138E+02  0.000000000E+00  0.00000E+00  9.000E+00
      25     1     1     2     0     0 -2.064898166E+02  1.589892345E+02 -2.351317847E+02  3.725957289E+02  1.250000000E+02  0.00000E+00  9.000E+00
      25     1     1     2     0     0  1.744130617E+02 -1.343692136E+02 -1.266985006E+02  2.831121893E+02  1.250000000E+02  0.00000E+00  9.000E+00
      21     1     1     2   511   502  3.207675482E+01 -2.462002091E+01 -1.548197932E+01  4.329844470E+01  1.039242493E-06  0.00000E+00  9.000E+00
#rwgt            1           1   4.1490927128168487E-002           6      123325           0
</event>
<event>
      5   9999  3.79277E-02  1.51286E+02 -1.00000E+00  1.16247E-01
      21    -1     0     0   502   512  0.000000000E+00  0.000000000E+00  4.725268638E+02  4.725268638E+02  0.000000000E+00  0.00000E+00  9.000E+00
      21    -1     0     0   501   502  0.000000000E+00  0.000000000E+00 -1.232037741E+03  1.232037741E+03  0.000000000E+00  0.00000E+00  9.000E+00
      25     1     1     2     0     0  3.866376726E+01 -9.408986764E+01 -8.590582303E+02  8.740445258E+02  1.250000000E+02  0.00000E+00  9.000E+00
      25     1     1     2     0     0  1.116751011E+02  1.109909507E+02 -3.237000481E+02  3.810472943E+02  1.250000000E+02  0.00000E+00  9.000E+00
      21     1     1     2   501   512 -1.503388684E+02 -1.690108304E+01  4.232474010E+02  4.494727849E+02  9.344061824E-06  0.00000E+00  9.000E+00
#rwgt            1           1   4.2799505581473607E-002           6      123463           0
</event>
<event>
      5   9999 -3.79277E-02  4.07620E+01 -1.00000E+00  1.44334E-01
      21    -1     0     0   511   501  0.000000000E+00  0.000000000E+00  4.256765082E+02  4.256765082E+02  0.000000000E+00  0.00000E+00  9.000E+00
      21    -1     0     0   501   502  0.000000000E+00  0.000000000E+00 -3.544771759E+02  3.544771759E+02  0.000000000E+00  0.00000E+00  9.000E+00
      25     1     1     2     0     0  2.787014040E+02  3.107169016E+00 -1.754385249E+02  3.522609872E+02  1.250000000E+02  0.00000E+00  9.000E+00
      25     1     1     2     0     0 -2.683371800E+02  3.631523338E+01  1.758991185E+02  3.462501094E+02  1.250000000E+02  0.00000E+00  9.000E+00
      21     1     1     2   511   502 -1.036422402E+01 -3.942240239E+01  7.073873864E+01  8.164258751E+01  9.536743164E-07  0.00000E+00  9.000E+00
#rwgt            1           1  -8.2627033035509251E-002           6      123495           0
</event>
<event>
      5   9999  3.79277E-02  1.13890E+02 -1.00000E+00  1.21340E-01
      21    -1     0     0   502   501  0.000000000E+00  0.000000000E+00  1.671208307E+02  1.671208307E+02  0.000000000E+00  0.00000E+00  9.000E+00
       1    -1     0     0   501     0  0.000000000E+00  0.000000000E+00 -2.713632641E+03  2.713632641E+03  0.000000000E+00  0.00000E+00  9.000E+00
      25     1     1     2     0     0 -3.192088313E+02 -3.261298313E+02 -4.235508682E+02  6.350395915E+02  1.250000000E+02  0.00000E+00  9.000E+00
      25     1     1     2     0     0  2.083719770E+02  2.999355050E+02 -5.689701709E+02  6.875552657E+02  1.250000000E+02  0.00000E+00  9.000E+00
       1     1     1     2   502     0  1.108368544E+02  2.619432632E+01 -1.553990771E+03  1.558158615E+03  2.157918644E-05  0.00000E+00  9.000E+00
#rwgt            1           1   2.6982589300492119E-002           6      123634           0
</event>
<event>
      5   9999  3.79277E-02  4.04475E+02 -1.00000E+00  1.01540E-01
       2    -1     0     0   502     0  0.000000000E+00  0.000000000E+00  2.233416280E+03  2.233416280E+03  0.000000000E+00  0.00000E+00  9.000E+00
      21    -1     0     0   501   502  0.000000000E+00  0.000000000E+00 -8.738355210E+02  8.738355210E+02  0.000000000E+00  0.00000E+00  9.000E+00
      25     1     1     2     0     0 -1.112407229E+02 -3.387338576E+02 -7.712748708E+02  8.588393628E+02  1.250000000E+02  0.00000E+00  9.000E+00
      25     1     1     2     0     0 -1.187595858E+02  6.018141282E+00  1.561125219E+02  2.326718220E+02  1.250000000E+02  0.00000E+00  9.000E+00
       2     1     1     2   501     0  2.300003087E+02  3.327157163E+02  1.974743108E+03  2.015740616E+03  0.000000000E+00  0.00000E+00  9.000E+00
#rwgt            2          18   1.7228574299054389E-003           6      123685           0
</event>
<event>
      5   9999  3.79277E-02  4.98273E+01 -1.00000E+00  1.39161E-01
      21    -1     0     0   511   501  0.000000000E+00  0.000000000E+00  4.042742641E+02  4.042742641E+02  0.000000000E+00  0.00000E+00  9.000E+00
      21    -1     0     0   501   502  0.000000000E+00  0.000000000E+00 -2.621522852E+02  2.621522852E+02  0.000000000E+00  0.00000E+00  9.000E+00
      25     1     1     2     0     0 -2.564238334E+02 -1.248996359E+02 -6.727325183E+00  3.114857272E+02  1.250000000E+02  0.00000E+00  9.000E+00
      25     1     1     2     0     0  2.221266849E+02  8.875452187E+01  1.087405564E+02  2.909761810E+02  1.250000000E+02  0.00000E+00  9.000E+00
      21     1     1     2   511   502  3.429714849E+01  3.614511407E+01  4.010874775E+01  6.396464111E+01  1.348699152E-06  0.00000E+00  9.000E+00
#rwgt            1           1   2.8720381082196586E-002           6      123764           0
</event>
<event>
      5   9999  3.79277E-02  5.01159E+01 -1.00000E+00  1.39018E-01
      21    -1     0     0   512   501  0.000000000E+00  0.000000000E+00  7.807931609E+01  7.807931609E+01  0.000000000E+00  0.00000E+00  9.000E+00
      21    -1     0     0   501   502  0.000000000E+00  0.000000000E+00 -1.668823796E+03  1.668823796E+03  0.000000000E+00  0.00000E+00  9.000E+00
      25     1     1     2     0     0  2.005011059E+01 -1.179677167E+02 -5.297703364E+02  5.573149903E+02  1.250000000E+02  0.00000E+00  9.000E+00
      25     1     1     2     0     0 -6.905277919E+01  1.284721441E+02 -1.105793947E+03  1.122354058E+03  1.250000000E+02  0.00000E+00  9.000E+00
      21     1     1     2   512   502  4.900266861E+01 -1.050442745E+01  4.481980362E+01  6.723406371E+01  1.168007728E-06  0.00000E+00  9.000E+00
#rwgt            1           1   3.0226066882589903E-002           6      123891           0
</event>
<event>
      5   9999  3.79277E-02  6.34567E+01 -1.00000E+00  1.33416E-01
       2    -1     0     0   502     0  0.000000000E+00  0.000000000E+00  3.483246503E+03  3.483246503E+03  0.000000000E+00  0.00000E+00  9.000E+00
      21    -1     0     0   501   502  0.000000000E+00  0.000000000E+00 -4.957758766E+01  4.957758766E+01  0.000000000E+00  0.00000E+00  9.000E+00
      25     1     1     2     0     0 -9.772226749E+01 -7.077310781E+01  2.987358827E+02  3.455815417E+02  1.250000000E+02  0.00000E+00  9.000E+00
      25     1     1     2     0     0  1.607408380E+02  6.332876640E+01  4.151084499E+02  4.666778063E+02  1.250000000E+02  0.00000E+00  9.000E+00
       2     1     1     2   501     0 -6.301857053E+01  7.444341412E+00  2.719824582E+03  2.720564742E+03  4.315837288E-05  0.00000E+00  9.000E+00
#rwgt            1           1   2.4516336957957966E-002           6      123969           0
</event>
<event>
      5   9999  3.79277E-02  3.24015E+01 -1.00000E+00  1.50753E-01
      21    -1     0     0   502   501  0.000000000E+00  0.000000000E+00  3.822857400E+02  3.822857400E+02  0.000000000E+00  0.00000E+00  9.000E+00
      21    -1     0     0   501   511  0.000000000E+00  0.000000000E+00 -1.468607606E+02  1.468607606E+02  0.000000000E+00  0.00000E+00  9.000E+00
      25     1     1     2     0     0 -8.398576272E+01  1.409982735E+02  1.538920872E+02  2.573750104E+02  1.250000000E+02  0.00000E+00  9.000E+00
      25     1     1     2     0     0  5.188328958E+01 -1.366067186E+02  1.159115822E+02  2.245301009E+02  1.250000000E+02  0.00000E+00  9.000E+00
      21     1     1     2   502   511  3.210247314E+01 -4.391554879E+00 -3.437869008E+01  4.724138935E+01  6.743495762E-07  0.00000E+00  9.000E+00
#rwgt            1           1   3.2367752244201117E-002           6      124118           0
</event>
<event>
      5   9999 -3.79277E-02  1.57931E+02 -1.00000E+00  1.15514E-01
      21    -1     0     0   502   501  0.000000000E+00  0.000000000E+00  6.871892815E+02  6.871892815E+02  0.000000000E+00  0.00000E+00  9.000E+00
      21    -1     0     0   512   502  0.000000000E+00  0.000000000E+00 -2.339308546E+02  2.339308546E+02  0.000000000E+00  0.00000E+00  9.000E+00
      25     1     1     2     0     0  1.007203590E+02  3.329930383E+02  3.277286289E+02  4.940242994E+02  1.250000000E+02  0.00000E+00  9.000E+00
      25     1     1     2     0     0 -1.215714878E+02 -1.764448427E+02  9.830531183E+01  2.668357987E+02  1.250000000E+02  0.00000E+00  9.000E+00
      21     1     1     2   512   501  2.085112875E+01 -1.565481956E+02  2.722448627E+01  1.602600379E+02  2.384185791E-06  0.00000E+00  9.000E+00
#rwgt            1           1 -0.13829101435673311                6      124202           0
</event>
<event>
      5   9999  3.79277E-02  1.33737E+01 -1.00000E+00  1.82211E-01
      21    -1     0     0   511   501  0.000000000E+00  0.000000000E+00  4.886243612E+02  4.886243612E+02  0.000000000E+00  0.00000E+00  9.000E+00
      21    -1     0     0   501   502  0.000000000E+00  0.000000000E+00 -6.386556486E+01  6.386556486E+01  0.000000000E+00  0.00000E+00  9.000E+00
      25     1     1     2     0     0  7.807903953E+01  1.988544676E+01  7.978545968E+01  1.687675531E+02  1.250000000E+02  0.00000E+00  9.000E+00
      25     1     1     2     0     0 -8.083123145E+01 -6.798033944E+00  2.779173834E+02  3.153457995E+02  1.250000000E+02  0.00000E+00  9.000E+00
      21     1     1     2   511   502  2.752191921E+00 -1.308741282E+01  6.705595323E+01  6.837657346E+01  9.536743164E-07  0.00000E+00  9.000E+00
#rwgt            1           1   2.2688819605522086E-002           6      124262           0
</event>
<event>
      5   9999  3.79277E-02  3.83056E+01 -1.00000E+00  1.46016E-01
      21    -1     0     0   502   501  0.000000000E+00  0.000000000E+00  1.707665407E+02  1.707665407E+02  0.000000000E+00  0.00000E+00  9.000E+00
      21    -1     0     0   512   502  0.000000000E+00  0.000000000E+00 -3.109391745E+02  3.109391745E+02  0.000000000E+00  0.00000E+00  9.000E+00
      25     1     1     2     0     0  1.108011979E+02 -1.587951616E+00 -2.002968680E+02  2.608126960E+02  1.250000000E+02  0.00000E+00  9.000E+00
      25     1     1     2     0     0 -7.486508877E+01 -1.167542717E+01  9.057463883E+01  1.719588972E+02  1.250000000E+02  0.00000E+00  9.000E+00
      21     1     1     2   512   501 -3.593610916E+01  1.326337878E+01 -3.045040466E+01  4.893412206E+01  8.920806376E-07  0.00000E+00  9.000E+00
#rwgt            1           1   4.6415164299869936E-002           6      124442           0
</event>
<event>
      5   9999  3.79277E-02  1.85657E+01 -1.00000E+00  1.69081E-01
      21    -1     0     0   502   501  0.000000000E+00  0.000000000E+00  2.739310903E+02  2.739310903E+02  0.000000000E+00  0.00000E+00  9.000E+00
      21    -1     0     0   511   502  0.000000000E+00  0.000000000E+00 -9.751666486E+02  9.751666486E+02  0.000000000E+00  0.00000E+00  9.000E+00
      25     1     1     2     0     0 -2.514896452E+02  6.825685273E+01 -3.522081425E+02  4.556112545E+02  1.250000000E+02  0.00000E+00  9.000E+00
      25     1     1     2     0     0  2.391356289E+02 -8.211553221E+01  1.324834486E+02  3.116178329E+02  1.250000000E+02  0.00000E+00  9.000E+00
      21     1     1     2   511   501  1.235401631E+01  1.385867948E+01 -4.815108644E+02  4.818686514E+02  7.629394531E-06  0.00000E+00  9.000E+00
#rwgt            1           1   4.3970778556863294E-002           6      124634           0
</event>
<event>
      5   9999  3.79277E-02  4.88549E+01 -1.00000E+00  1.39652E-01
      21    -1     0     0   502   501  0.000000000E+00  0.000000000E+00  2.864169825E+02  2.864169825E+02  0.000000000E+00  0.00000E+00  9.000E+00
      21    -1     0     0   501   512  0.000000000E+00  0.000000000E+00 -2.487645591E+02  2.487645591E+02  0.000000000E+00  0.00000E+00  9.000E+00
      25     1     1     2     0     0  2.137789991E+01 -7.118252172E+01  2.110784117E+02  2.563260851E+02  1.250000000E+02  0.00000E+00  9.000E+00
      25     1     1     2     0     0  2.640159393E+01  8.137655517E+01 -1.730765931E+02  2.299993369E+02  1.250000000E+02  0.00000E+00  9.000E+00
      21     1     1     2   502   512 -4.777949384E+01 -1.019403345E+01 -3.493952595E-01  4.885611965E+01  4.348069725E-07  0.00000E+00  9.000E+00
#rwgt            2          11   3.4321901566611098E-003           6      124854           0
</event>
<event>
      5   9999  3.79277E-02  1.42452E+02 -1.00000E+00  1.17289E-01
      21    -1     0     0   502   501  0.000000000E+00  0.000000000E+00  2.463709385E+02  2.463709385E+02  0.000000000E+00  0.00000E+00  9.000E+00
       2    -1     0     0   501     0  0.000000000E+00  0.000000000E+00 -1.815803861E+03  1.815803861E+03  0.000000000E+00  0.00000E+00  9.000E+00
      25     1     1     2     0     0 -9.898439425E+01 -1.629467010E+02  6.628529987E+01  2.374200468E+02  1.250000000E+02  0.00000E+00  9.000E+00
      25     1     1     2     0     0 -2.926867050E+01  1.009493126E+02  1.854769379E+01  1.643667720E+02  1.250000000E+02  0.00000E+00  9.000E+00
       2     1     1     2   502     0  1.282530647E+02  6.199738835E+01 -1.654265916E+03  1.660387980E+03  0.000000000E+00  0.00000E+00  9.000E+00
#rwgt            1           1   3.4784993069205676E-002           6      124904           0
</event>
<event>
      5   9999  3.79277E-02  9.12016E+01 -1.00000E+00  1.25654E-01
      21    -1     0     0   502   501  0.000000000E+00  0.000000000E+00  4.536051168E+02  4.536051168E+02  0.000000000E+00  0.00000E+00  9.000E+00
      21    -1     0     0   501   511  0.000000000E+00  0.000000000E+00 -5.800478801E+02  5.800478801E+02  0.000000000E+00  0.00000E+00  9.000E+00
      25     1     1     2     0     0  1.888612087E+02  3.335682257E+02 -1.792674047E+02  4.412460988E+02  1.250000000E+02  0.00000E+00  9.000E+00
      25     1     1     2     0     0 -2.468871759E+02 -2.632068521E+02  1.908729985E+02  4.269527213E+02  1.250000000E+02  0.00000E+00  9.000E+00
      21     1     1     2   502   511  5.802596717E+01 -7.036137355E+01 -1.380483571E+02  1.654541769E+02  1.907348633E-06  0.00000E+00  9.000E+00
#rwgt            1           1   2.7873665324894201E-002           6      125022           0
</event>
<event>
      5   9999  3.79277E-02  3.97641E+01 -1.00000E+00  1.45000E-01
      21    -1     0     0   502   501  0.000000000E+00  0.000000000E+00  8.589298186E+02  8.589298186E+02  0.000000000E+00  0.00000E+00  9.000E+00
      21    -1     0     0   501   512  0.000000000E+00  0.000000000E+00 -5.445663163E+01  5.445663163E+01  0.000000000E+00  0.00000E+00  9.000E+00
      25     1     1     2     0     0 -1.161556377E+02 -3.226220625E+01  4.033269483E+02  4.391248220E+02  1.250000000E+02  0.00000E+00  9.000E+00
      25     1     1     2     0     0  1.315203363E+02  6.893791370E+01  3.853520943E+02  4.314756904E+02  1.250000000E+02  0.00000E+00  9.000E+00
      21     1     1     2   502   512 -1.536469853E+01 -3.667570746E+01  1.579414440E+01  4.278593783E+01  4.768371582E-07  0.00000E+00  9.000E+00
#rwgt            1           1   4.8926000824355782E-002           6      125245           0
</event>
<event>
      5   9999  3.79277E-02  8.46703E+01 -1.00000E+00  1.27168E-01
       2    -1     0     0   502     0  0.000000000E+00  0.000000000E+00  1.090175674E+03  1.090175674E+03  0.000000000E+00  0.00000E+00  9.000E+00
      21    -1     0     0   501   502  0.000000000E+00  0.000000000E+00 -2.095639092E+02  2.095639092E+02  0.000000000E+00  0.00000E+00  9.000E+00
      25     1     1     2     0     0  3.236338150E+01  6.178053362E+01 -1.277170759E+02  1.918355397E+02  1.250000000E+02  0.00000E+00  9.000E+00
      25     1     1     2     0     0 -1.111449526E+02 -9.280506209E+01  1.439812350E+02  2.394192475E+02  1.250000000E+02  0.00000E+00  9.000E+00
       2     1     1     2   501     0  7.878157109E+01  3.102452847E+01  8.643476060E+02  8.684847962E+02  1.525878906E-05  0.00000E+00  9.000E+00
#rwgt            2          18   8.5843309339417436E-004           6      125399           0
</event>
<event>
      5   9999  3.79277E-02  5.73120E+01 -1.00000E+00  1.35776E-01
      21    -1     0     0   502   511  0.000000000E+00  0.000000000E+00  1.265594574E+02  1.265594574E+02  0.000000000E+00  0.00000E+00  9.000E+00
      21    -1     0     0   501   502  0.000000000E+00  0.000000000E+00 -1.162104877E+03  1.162104877E+03  0.000000000E+00  0.00000E+00  9.000E+00
      25     1     1     2     0     0 -1.822927518E+00 -2.124328628E+02 -3.565901497E+02  4.334888454E+02  1.250000000E+02  0.00000E+00  9.000E+00
      25     1     1     2     0     0 -5.443334296E+01  2.014832936E+02 -7.354850842E+02  7.746752968E+02  1.250000000E+02  0.00000E+00  9.000E+00
      21     1     1     2   501   511  5.625627048E+01  1.094956919E+01  5.652981431E+01  8.050019217E+01  9.536743164E-07  0.00000E+00  9.000E+00
#rwgt            1           1   3.6904966820123203E-002           6      125433           0
</event>
<event>
      5   9999  3.79277E-02  1.16611E+02 -1.00000E+00  1.20899E-01
      21    -1     0     0   502   512  0.000000000E+00  0.000000000E+00  7.197556458E+01  7.197556458E+01  0.000000000E+00  0.00000E+00  9.000E+00
      21    -1     0     0   501   502  0.000000000E+00  0.000000000E+00 -1.347041354E+03  1.347041354E+03  0.000000000E+00  0.00000E+00  9.000E+00
      25     1     1     2     0     0 -1.635069361E+02  3.163830127E+01 -7.714830829E+02  7.990911384E+02  1.250000000E+02  0.00000E+00  9.000E+00
      25     1     1     2     0     0  1.502107460E+02 -1.474884287E+02 -3.341654444E+02  4.142555359E+02  1.250000000E+02  0.00000E+00  9.000E+00
      21     1     1     2   501   512  1.329619007E+01  1.158501274E+02 -1.694172624E+02  2.056702445E+02  1.907348633E-06  0.00000E+00  9.000E+00
#rwgt            1           1   4.5700363822936435E-002           6      125533           0
</event>
<event>
      5   9999  3.79277E-02  1.49647E+02 -1.00000E+00  1.16434E-01
      21    -1     0     0   502   501  0.000000000E+00  0.000000000E+00  4.808922812E+02  4.808922812E+02  0.000000000E+00  0.00000E+00  9.000E+00
      21    -1     0     0   501   511  0.000000000E+00  0.000000000E+00 -2.530777362E+02  2.530777362E+02  0.000000000E+00  0.00000E+00  9.000E+00
      25     1     1     2     0     0 -9.370944914E+01 -6.933599786E+00  2.864723864E+02  3.263754951E+02  1.250000000E+02  0.00000E+00  9.000E+00
      25     1     1     2     0     0  1.576107561E+02  1.422515739E+02 -7.377497281E+01  2.571855504E+02  1.250000000E+02  0.00000E+00  9.000E+00
      21     1     1     2   502   511 -6.390130695E+01 -1.353179741E+02  1.511713145E+01  1.504089719E+02  2.528810911E-06  0.00000E+00  9.000E+00
#rwgt            1           1   4.1480517935198892E-002           6      125686           0
</event>
<event>
      5   9999  3.79277E-02  2.50033E+01 -1.00000E+00  1.58747E-01
      21    -1     0     0   512   501  0.000000000E+00  0.000000000E+00  8.721788783E+01  8.721788783E+01  0.000000000E+00  0.00000E+00  9.000E+00
      21    -1     0     0   501   502  0.000000000E+00  0.000000000E+00 -5.367399851E+02  5.367399851E+02  0.000000000E+00  0.00000E+00  9.000E+00
      25     1     1     2     0     0 -9.414252661E+01 -8.210227397E+01 -3.427763128E+02  3.856477659E+02  1.250000000E+02  0.00000E+00  9.000E+00
      25     1     1     2     0     0  9.078275094E+01  1.068788326E+02 -9.751572401E+01  2.116575280E+02  1.250000000E+02  0.00000E+00  9.000E+00
      21     1     1     2   512   502  3.359775668E+00 -2.477655868E+01 -9.230060448E+00  2.665257902E+01  0.000000000E+00  0.00000E+00  9.000E+00
#rwgt            1           1   4.4813875398860441E-002           6      125816           0
</event>
<event>
      5   9999  3.79277E-02  8.21596E+00 -1.00000E+00  2.06169E-01
      21    -1     0     0   502   511  0.000000000E+00  0.000000000E+00  4.908588638E+02  4.908588638E+02  0.000000000E+00  0.00000E+00  9.000E+00
      21    -1     0     0   501   502  0.000000000E+00  0.000000000E+00 -1.032743431E+02  1.032743431E+02  0.000000000E+00  0.00000E+00  9.000E+00
      25     1     1     2     0     0 -1.002985175E+02  1.171572226E+02  1.140709695E+02  2.289602444E+02  1.250000000E+02  0.00000E+00  9.000E+00
      25     1     1     2     0     0  9.381513098E+01 -1.222037678E+02  1.698047223E+02  2.611392031E+02  1.250000000E+02  0.00000E+00  9.000E+00
      21     1     1     2   501   511  6.483386525E+00  5.046545250E+00  1.037088288E+02  1.040337594E+02  0.000000000E+00  0.00000E+00  9.000E+00
#rwgt            1           1   3.8626376944881691E-002           6      125996           0
</event>
<event>
      5   9999  3.79277E-02  3.83022E+01 -1.00000E+00  1.46018E-01
      21    -1     0     0   502   501  0.000000000E+00  0.000000000E+00  6.585099549E+02  6.585099549E+02  0.000000000E+00  0.00000E+00  9.000E+00
      21    -1     0     0   501   512  0.000000000E+00  0.000000000E+00 -1.462670910E+02  1.462670910E+02  0.000000000E+00  0.00000E+00  9.000E+00
      25     1     1     2     0     0  7.309273976E+01  8.956553958E+01  5.078141898E+02  5.355975969E+02  1.250000000E+02  0.00000E+00  9.000E+00
      25     1     1     2     0     0 -6.004149326E+01 -5.355549197E+01  9.115116033E+01  1.743751865E+02  1.250000000E+02  0.00000E+00  9.000E+00
      21     1     1     2   502   512 -1.305124649E+01 -3.601004761E+01 -8.672248624E+01  9.480426247E+01  2.132480600E-06  0.00000E+00  9.000E+00
#rwgt            1           1   4.0072929635429549E-002           6      126377           0
</event>
<event>
      5   9999  3.79277E-02  1.09995E+02 -1.00000E+00  1.21995E-01
      21    -1     0     0   502   501  0.000000000E+00  0.000000000E+00  6.267861965E+01  6.267861965E+01  0.000000000E+00  0.00000E+00  9.000E+00
      21    -1     0     0   511   502  0.000000000E+00  0.000000000E+00 -1.519559100E+03  1.519559100E+03  0.000000000E+00  0.00000E+00  9.000E+00
      25     1     1     2     0     0  2.205659491E+02  1.399918190E+02 -7.375056709E+02  7.923298946E+02  1.250000000E+02  0.00000E+00  9.000E+00
      25     1     1     2     0     0 -1.598296466E+02 -4.828582034E+01 -3.844444984E+02  4.373781073E+02  1.250000000E+02  0.00000E+00  9.000E+00
      21     1     1     2   511   501 -6.073630244E+01 -9.170599870E+01 -3.349303109E+02  3.525297176E+02  3.814697266E-06  0.00000E+00  9.000E+00
#rwgt            1           1   5.0633568080084790E-002           6      126531           0
</event>
<event>
      5   9999  3.79277E-02  1.53623E+02 -1.00000E+00  1.15984E-01
      21    -1     0     0   502   501  0.000000000E+00  0.000000000E+00  4.434792354E+02  4.434792354E+02  0.000000000E+00  0.00000E+00  9.000E+00
      21    -1     0     0   501   512  0.000000000E+00  0.000000000E+00 -3.046775501E+02  3.046775501E+02  0.000000000E+00  0.00000E+00  9.000E+00
      25     1     1     2     0     0 -2.253893606E+02  4.746533602E+01  1.033343904E+02  2.817025350E+02  1.250000000E+02  0.00000E+00  9.000E+00
      25     1     1     2     0     0  7.601523553E+01 -1.158403139E+01  1.956089255E+02  2.445411163E+02  1.250000000E+02  0.00000E+00  9.000E+00
      21     1     1     2   502   512  1.493741250E+02 -3.588130463E+01 -1.601416307E+02  2.219131342E+02  0.000000000E+00  0.00000E+00  9.000E+00
#rwgt            1           1   3.6399149474442026E-002           6      126666           0
</event>
<event>
      5   9999  3.79277E-02  5.53743E+01 -1.00000E+00  1.36592E-01
      21    -1     0     0   502   501  0.000000000E+00  0.000000000E+00  3.989748431E+02  3.989748431E+02  0.000000000E+00  0.00000E+00  9.000E+00
       2    -1     0     0   501     0  0.000000000E+00  0.000000000E+00 -1.013002381E+03  1.013002381E+03  0.000000000E+00  0.00000E+00  9.000E+00
      25     1     1     2     0     0 -2.277602154E+02 -1.157660399E+02 -4.700246203E+01  2.882893046E+02  1.250000000E+02  0.00000E+00  9.000E+00
      25     1     1     2     0     0  2.106883397E+02  6.308902272E+01  2.196757542E+02  3.350406516E+02  1.250000000E+02  0.00000E+00  9.000E+00
       2     1     1     2   502     0  1.707187565E+01  5.267701714E+01 -7.867008297E+02  7.886472675E+02  0.000000000E+00  0.00000E+00  9.000E+00
#rwgt            1           1   1.4945574251815402E-002           6      126720           0
</event>
<event>
      5   9999  3.79277E-02  8.61675E+00 -1.00000E+00  2.03541E-01
      21    -1     0     0   502   501  0.000000000E+00  0.000000000E+00  1.098038492E+03  1.098038492E+03  0.000000000E+00  0.00000E+00  9.000E+00
      -1    -1     0     0     0   502  0.000000000E+00  0.000000000E+00 -1.992332256E+02  1.992332256E+02  0.000000000E+00  0.00000E+00  9.000E+00
      25     1     1     2     0     0  1.310824945E+02 -1.973904734E+01  9.278326753E+02  9.455531311E+02  1.250000000E+02  0.00000E+00  9.000E+00
      25     1     1     2     0     0 -1.227635808E+02  2.198494133E+01  1.128644647E+02  2.095653163E+02  1.250000000E+02  0.00000E+00  9.000E+00
      -1     1     1     2     0   501 -8.318913712E+00 -2.245893989E+00 -1.418918738E+02  1.421532701E+02  2.697398305E-06  0.00000E+00  9.000E+00
#rwgt            1           1   3.1964161395793451E-002           6      126810           0
</event>
<event>
      5   9999  3.79277E-02  1.06724E+02 -1.00000E+00  1.22570E-01
      21    -1     0     0   502   511  0.000000000E+00  0.000000000E+00  1.129639692E+03  1.129639692E+03  0.000000000E+00  0.00000E+00  9.000E+00
      21    -1     0     0   501   502  0.000000000E+00  0.000000000E+00 -2.086823582E+02  2.086823582E+02  0.000000000E+00  0.00000E+00  9.000E+00
      25     1     1     2     0     0  1.388322258E+01 -1.951640937E+02  2.084028496E+02  3.119912100E+02  1.250000000E+02  0.00000E+00  9.000E+00
      25     1     1     2     0     0 -1.179546399E+02  2.188111206E+02 -2.660398253E+01  2.795073800E+02  1.250000000E+02  0.00000E+00  9.000E+00
      21     1     1     2   501   511  1.040714173E+02 -2.364702690E+01  7.391584666E+02  7.468234601E+02  0.000000000E+00  0.00000E+00  9.000E+00
#rwgt            1           1   3.4506634532637047E-002           6      127080           0
</event>
<event>
      5   9999  3.79277E-02  1.95457E+01 -1.00000E+00  1.67197E-01
      21    -1     0     0   502   501  0.000000000E+00  0.000000000E+00  8.338312844E+02  8.338312844E+02  0.000000000E+00  0.00000E+00  9.000E+00
      21    -1     0     0   512   502  0.000000000E+00  0.000000000E+00 -5.893060350E+01  5.893060350E+01  0.000000000E+00  0.00000E+00  9.000E+00
      25     1     1     2     0     0 -9.498089929E+01  1.094934321E+02  2.250579338E+02  2.954424758E+02  1.250000000E+02  0.00000E+00  9.000E+00
      25     1     1     2     0     0  1.067059297E+02 -1.251318183E+02  5.326016630E+02  5.712562112E+02  1.250000000E+02  0.00000E+00  9.000E+00
      21     1     1     2   512   501 -1.172503044E+01  1.563838622E+01  1.724108405E+01  2.606320091E+01  0.000000000E+00  0.00000E+00  9.000E+00
#rwgt            1           1   3.2528951310778369E-002           6      127160           0
</event>
<event>
      5   9999 -3.79277E-02  6.11995E+01 -1.00000E+00  1.34246E-01
      21    -1     0     0   502   511  0.000000000E+00  0.000000000E+00  6.136593174E+02  6.136593174E+02  0.000000000E+00  0.00000E+00  9.000E+00
      21    -1     0     0   501   502  0.000000000E+00  0.000000000E+00 -2.264551955E+02  2.264551955E+02  0.000000000E+00  0.00000E+00  9.000E+00
      25     1     1     2     0     0  2.038680740E+01 -2.417135485E+02  2.477930173E+02  3.686020088E+02  1.250000000E+02  0.00000E+00  9.000E+00
      25     1     1     2     0     0 -7.423101925E+00  3.015242757E+02  8.045805994E+00  3.265910689E+02  1.250000000E+02  0.00000E+00  9.000E+00
      21     1     1     2   501   511 -1.296370547E+01 -5.981072719E+01  1.313652986E+02  1.449214353E+02  1.907348633E-06  0.00000E+00  9.000E+00
#rwgt            1           1  -1.1540664904563456E-002           6      127395           0
</event>
<event>
      5   9999  3.79277E-02  7.36789E+01 -1.00000E+00  1.30104E-01
      21    -1     0     0   502   501  0.000000000E+00  0.000000000E+00  4.414266931E+02  4.414266931E+02  0.000000000E+00  0.00000E+00  9.000E+00
      21    -1     0     0   512   502  0.000000000E+00  0.000000000E+00 -1.422411880E+02  1.422411880E+02  0.000000000E+00  0.00000E+00  9.000E+00
      25     1     1     2     0     0 -6.827448003E+01 -1.078482840E+02  3.086949535E+02  3.566654333E+02  1.250000000E+02  0.00000E+00  9.000E+00
      25     1     1     2     0     0 -2.746842726E+00  8.823829764E+01 -3.371323329E+00  1.530683120E+02  1.250000000E+02  0.00000E+00  9.000E+00
      21     1     1     2   512   501  7.102132275E+01  1.960998640E+01 -6.138125112E+00  7.393413577E+01  1.377370359E-06  0.00000E+00  9.000E+00
#rwgt            1           1   3.4358630700938905E-002           6      127575           0
</event>
<event>
      5   9999  3.79277E-02  3.49946E+01 -1.00000E+00  1.48535E-01
      21    -1     0     0   502   501  0.000000000E+00  0.000000000E+00  9.110331340E+02  9.110331340E+02  0.000000000E+00  0.00000E+00  9.000E+00
       4    -1     0     0   501     0  0.000000000E+00  0.000000000E+00 -9.439238883E+01  9.439238883E+01  0.000000000E+00  0.00000E+00  9.000E+00
      25     1     1     2     0     0  8.299705758E+01  3.384414858E+01  7.636630045E+02  7.789994368E+02  1.250000000E+02  0.00000E+00  9.000E+00
      25     1     1     2     0     0 -7.288546899E+01 -6.734606712E+01  8.338016451E+01  1.800695315E+02  1.250000000E+02  0.00000E+00  9.000E+00
       4     1     1     2   502     0 -1.011158859E+01  3.350191854E+01 -3.040242390E+01  4.635655454E+01  1.011524364E-06  0.00000E+00  9.000E+00
#rwgt            1           1   3.6397982302501207E-002           6      127682           0
</event>
<event>
      5   9999 -3.79277E-02  4.77501E+01 -1.00000E+00  1.40226E-01
      21    -1     0     0   502   511  0.000000000E+00  0.000000000E+00  2.899273235E+02  2.899273235E+02  0.000000000E+00  0.00000E+00  9.000E+00
      21    -1     0     0   501   502  0.000000000E+00  0.000000000E+00 -6.602345997E+02  6.602345997E+02  0.000000000E+00  0.00000E+00  9.000E+00
      25     1     1     2     0     0 -3.400234267E+02  1.644222925E+02 -3.730553644E+02  5.453860338E+02  1.250000000E+02  0.00000E+00  9.000E+00
      25     1     1     2     0     0  2.946542861E+02 -1.495321006E+02  2.040011159E+01  3.538674356E+02  1.250000000E+02  0.00000E+00  9.000E+00
      21     1     1     2   501   511  4.536914061E+01 -1.489019192E+01 -1.765202342E+01  5.090845378E+01  1.011524364E-06  0.00000E+00  9.000E+00
#rwgt            1           1 -0.15119002621671823                6      127970           0
</event>
<event>
      5   9999  3.79277E-02  1.58393E+02 -1.00000E+00  1.15464E-01
       4    -1     0     0   502     0  0.000000000E+00  0.000000000E+00  6.182235483E+02  6.182235483E+02  0.000000000E+00  0.00000E+00  9.000E+00
      21    -1     0     0   501   502  0.000000000E+00  0.000000000E+00 -2.473364596E+02  2.473364596E+02  0.000000000E+00  0.00000E+00  9.000E+00
      25     1     1     2     0     0 -9.536953838E+01 -1.852932538E+02  1.308644394E+02  2.760062323E+02  1.250000000E+02  0.00000E+00  9.000E+00
      25     1     1     2     0     0  1.083104975E+02  2.742993178E+01 -1.133014923E+02  2.023506688E+02  1.250000000E+02  0.00000E+00  9.000E+00
       4     1     1     2   501     0 -1.294095913E+01  1.578633221E+02  3.533241415E+02  3.872031067E+02  3.814697266E-06  0.00000E+00  9.000E+00
#rwgt            1           1   3.6211653656177768E-002           6      128136           0
</event>
<event>
      5   9999  3.79277E-02  2.35983E+01 -1.00000E+00  1.60651E-01
      21    -1     0     0   502   501  0.000000000E+00  0.000000000E+00  1.917463775E+02  1.917463775E+02  0.000000000E+00  0.00000E+00  9.000E+00
      21    -1     0     0   501   511  0.000000000E+00  0.000000000E+00 -3.815988235E+02  3.815988235E+02  0.000000000E+00  0.00000E+00  9.000E+00
      25     1     1     2     0     0 -1.159889755E+02 -1.217812980E+02 -1.421064683E+02  2.531864437E+02  1.250000000E+02  0.00000E+00  9.000E+00
      25     1     1     2     0     0  9.252133824E+01  1.193018675E+02  6.381269925E+01  2.061314974E+02  1.250000000E+02  0.00000E+00  9.000E+00
      21     1     1     2   502   511  2.346763721E+01  2.479430470E+00 -1.115586770E+02  1.140272598E+02  0.000000000E+00  0.00000E+00  9.000E+00
#rwgt            1           1   4.2493674647988283E-002           6      128200           0
</event>
<event>
      5   9999  3.79277E-02  7.48006E+01 -1.00000E+00  1.29778E-01
      21    -1     0     0   502   512  0.000000000E+00  0.000000000E+00  9.322839069E+01  9.322839069E+01  0.000000000E+00  0.00000E+00  9.000E+00
      21    -1     0     0   501   502  0.000000000E+00  0.000000000E+00 -6.980015126E+02  6.980015126E+02  0.000000000E+00  0.00000E+00  9.000E+00
      25     1     1     2     0     0  1.548758820E+01 -1.576581374E+02 -5.032055667E+02  5.421593825E+02  1.250000000E+02  0.00000E+00  9.000E+00
      25     1     1     2     0     0  9.271265946E+00  8.707394173E+01 -6.801360965E+01  1.670888350E+02  1.250000000E+02  0.00000E+00  9.000E+00
      21     1     1     2   501   512 -2.475885415E+01  7.058419568E+01 -3.355394563E+01  8.198168580E+01  1.907348633E-06  0.00000E+00  9.000E+00
#rwgt            1           1   4.0514359353796506E-002           6      128393           0
</event>
<event>
      5   9999  3.79277E-02  2.89537E+01 -1.00000E+00  1.54118E-01
      21    -1     0     0   502   511  0.000000000E+00  0.000000000E+00  2.090127124E+02  2.090127124E+02  0.000000000E+00  0.00000E+00  9.000E+00
      21    -1     0     0   501   502  0.000000000E+00  0.000000000E+00 -3.677625388E+02  3.677625388E+02  0.000000000E+00  0.00000E+00  9.000E+00
      25     1     1     2     0     0  2.941007251E+01  2.193283082E+02 -8.727193009E+01  2.687215081E+02  1.250000000E+02  0.00000E+00  9.000E+00
      25     1     1     2     0     0 -3.025457221E+00 -2.074047569E+02 -1.048238326E+02  2.638918764E+02  1.250000000E+02  0.00000E+00  9.000E+00
      21     1     1     2   501   511 -2.638461529E+01 -1.192355128E+01  3.334593627E+01  4.416186664E+01  0.000000000E+00  0.00000E+00  9.000E+00
#rwgt            1           1   2.8723851917588632E-002           6      128489           0
</event>
<event>
      5   9999  3.79277E-02  3.88400E+01 -1.00000E+00  1.45637E-01
      21    -1     0     0   512   501  0.000000000E+00  0.000000000E+00  9.200612788E+02  9.200612788E+02  0.000000000E+00  0.00000E+00  9.000E+00
      21    -1     0     0   501   502  0.000000000E+00  0.000000000E+00 -1.058904429E+02  1.058904429E+02  0.000000000E+00  0.00000E+00  9.000E+00
      25     1     1     2     0     0 -8.688878312E+00 -5.691759477E+01  4.002352746E+02  4.232356131E+02  1.250000000E+02  0.00000E+00  9.000E+00
      25     1     1     2     0     0  4.728148785E+01  6.129470086E+01 -3.578510069E+01  1.513213563E+02  1.250000000E+02  0.00000E+00  9.000E+00
      21     1     1     2   512   502 -3.859260954E+01 -4.377106086E+00  4.497206620E+02  4.513947522E+02  5.394796609E-06  0.00000E+00  9.000E+00
#rwgt            1           1   4.3885240876465038E-002           6      128691           0
</event>
<event>
      5   9999 -3.79277E-02  3.98330E+01 -1.00000E+00  1.44953E-01
      21    -1     0     0   502   501  0.000000000E+00  0.000000000E+00  2.507182621E+01  2.507182621E+01  0.000000000E+00  0.00000E+00  9.000E+00
      21    -1     0     0   501   511  0.000000000E+00  0.000000000E+00 -2.364842043E+03  2.364842043E+03  0.000000000E+00  0.00000E+00  9.000E+00
      25     1     1     2     0     0 -1.537718335E+02 -1.089321035E+02 -9.038162544E+02  9.316763396E+02  1.250000000E+02  0.00000E+00  9.000E+00
      25     1     1     2     0     0  1.398637927E+02  7.160606288E+01 -9.687503650E+02  9.893389604E+02  1.250000000E+02  0.00000E+00  9.000E+00
      21     1     1     2   502   511  1.390804085E+01  3.732604058E+01 -4.672035975E+02  4.688985694E+02  7.629394531E-06  0.00000E+00  9.000E+00
#rwgt            1           1 -0.14086744792286970                6      128857           0
</event>
<event>
      5   9999  3.79277E-02  2.16515E+01 -1.00000E+00  1.63575E-01
      21    -1     0     0   502   512  0.000000000E+00  0.000000000E+00  9.465079682E+02  9.465079682E+02  0.000000000E+00  0.00000E+00  9.000E+00
      21    -1     0     0   501   502  0.000000000E+00  0.000000000E+00 -1.059492446E+02  1.059492446E+02  0.000000000E+00  0.00000E+00  9.000E+00
      25     1     1     2     0     0  9.917915691E+01 -1.665223475E+01 -1.182800145E+00  1.604375302E+02  1.250000000E+02  0.00000E+00  9.000E+00
      25     1     1     2     0     0 -1.064546056E+02  3.704472738E+01  2.590651026E+02  3.089411308E+02  1.250000000E+02  0.00000E+00  9.000E+00
      21     1     1     2   501   512  7.275448656E+00 -2.039249263E+01  5.826764211E+02  5.830785518E+02  1.321449896E-05  0.00000E+00  9.000E+00
#rwgt            1           1   3.8807869641296809E-002           6      129043           0
</event>
<event>
      5   9999  3.79277E-02  9.70718E+01 -1.00000E+00  1.24411E-01
      21    -1     0     0   502   501  0.000000000E+00  0.000000000E+00  4.508566814E+02  4.508566814E+02  0.000000000E+00  0.00000E+00  9.000E+00
       1    -1     0     0   501     0  0.000000000E+00  0.000000000E+00 -2.601157942E+02  2.601157942E+02  0.000000000E+00  0.00000E+00  9.000E+00
      25     1     1     2     0     0 -1.380287387E+02  7.269894800E+01 -3.134870346E+01  2.023482418E+02  1.250000000E+02  0.00000E+00  9.000E+00
      25     1     1     2     0     0  2.211255702E+02 -1.228771856E+02  2.784081352E+02  3.963980453E+02  1.250000000E+02  0.00000E+00  9.000E+00
       1     1     1     2   502     0 -8.309683149E+01  5.017823755E+01 -5.631854460E+01  1.122261885E+02  2.431401974E-06  0.00000E+00  9.000E+00
#rwgt            1           1   4.1657112744973211E-002           6      129193           0
</event>
<event>
      5   9999  3.79277E-02  1.46909E+02 -1.00000E+00  1.16753E-01
      21    -1     0     0   502   501  0.000000000E+00  0.000000000E+00  1.456981032E+03  1.456981032E+03  0.000000000E+00  0.00000E+00  9.000E+00
      -5    -1     0     0     0   502  0.000000000E+00  0.000000000E+00 -1.252695010E+02  1.252695010E+02  0.000000000E+00  0.00000E+00  9.000E+00
      25     1     1     2     0     0 -9.148019043E+01  7.902994326E+01  1.933850208E+02  2.600713814E+02  1.250000000E+02  0.00000E+00  9.000E+00
      25     1     1     2     0     0  2.116408858E+02  5.490313236E+00  1.148879129E+03  1.174891595E+03  1.250000000E+02  0.00000E+00  9.000E+00
      -5     1     1     2     0   501 -1.201606953E+02 -8.452025649E+01 -1.055261860E+01  1.472875562E+02  2.821006671E-06  0.00000E+00  9.000E+00
#rwgt            1           1   2.2083257938632164E-002           6      129307           0
</event>
<event>
      5   9999  3.79277E-02  1.71724E+02 -1.00000E+00  1.14112E-01
      21    -1     0     0   502   501  0.000000000E+00  0.000000000E+00  4.710948425E+02  4.710948425E+02  0.000000000E+00  0.00000E+00  9.000E+00
      21    -1     0     0   501   511  0.000000000E+00  0.000000000E+00 -2.217966573E+02  2.217966573E+02  0.000000000E+00  0.00000E+00  9.000E+00
      25     1     1     2     0     0 -7.217053315E+01  1.043139365E+02  2.466244832E+02  3.042016090E+02  1.250000000E+02  0.00000E+00  9.000E+00
      25     1     1     2     0     0  1.287917799E+02  5.780740070E+01  7.424401591E+01  2.026479510E+02  1.250000000E+02  0.00000E+00  9.000E+00
      21     1     1     2   502   511 -5.662124674E+01 -1.621213372E+02 -7.157031391E+01  1.860419398E+02  3.693564745E-06  0.00000E+00  9.000E+00
#rwgt            1           1   5.1867756908462390E-002           6      129352           0
</event>
<event>
      5   9999  3.79277E-02  1.28012E+02 -1.00000E+00  1.19189E-01
      21    -1     0     0   502   501  0.000000000E+00  0.000000000E+00  5.570495949E+02  5.570495949E+02  0.000000000E+00  0.00000E+00  9.000E+00
      21    -1     0     0   512   502  0.000000000E+00  0.000000000E+00 -6.065990288E+02  6.065990288E+02  0.000000000E+00  0.00000E+00  9.000E+00
      25     1     1     2     0     0 -1.548486051E+01  1.108779316E+02 -2.756849456E+02  3.227396564E+02  1.250000000E+02  0.00000E+00  9.000E+00
      25     1     1     2     0     0  1.250882297E+02 -4.474005624E+01  5.034484331E+02  5.354755482E+02  1.250000000E+02  0.00000E+00  9.000E+00
      21     1     1     2   512   501 -1.096033692E+02 -6.613787532E+01 -2.773129215E+02  3.054334191E+02  3.814697266E-06  0.00000E+00  9.000E+00
#rwgt            1           1   3.0546198568200650E-002           6      129420           0
</event>
<event>
      5   9999  3.79277E-02  8.16739E+01 -1.00000E+00  1.27916E-01
      21    -1     0     0   502   501  0.000000000E+00  0.000000000E+00  1.197308748E+03  1.197308748E+03  0.000000000E+00  0.00000E+00  9.000E+00
      21    -1     0     0   501   511  0.000000000E+00  0.000000000E+00 -1.971462294E+02  1.971462294E+02  0.000000000E+00  0.00000E+00  9.000E+00
      25     1     1     2     0     0 -1.651998298E+02  8.099494253E+01  6.637019462E+02  6.999831697E+02  1.250000000E+02  0.00000E+00  9.000E+00
      25     1     1     2     0     0  2.468516471E+02 -7.909781839E+01  4.622394037E+02  5.445020357E+02  1.250000000E+02  0.00000E+00  9.000E+00
      21     1     1     2   502   511 -8.165181726E+01 -1.897124138E+00 -1.257788309E+02  1.499697725E+02  4.672030912E-06  0.00000E+00  9.000E+00
#rwgt            1           1   3.7628831056060810E-002           6      129487           0
</event>
<event>
      5   9999  3.79277E-02  7.31916E+01 -1.00000E+00  1.30247E-01
      21    -1     0     0   502   501  0.000000000E+00  0.000000000E+00  1.065588350E+03  1.065588350E+03  0.000000000E+00  0.00000E+00  9.000E+00
       1    -1     0     0   501     0  0.000000000E+00  0.000000000E+00 -4.427111798E+02  4.427111798E+02  0.000000000E+00  0.00000E+00  9.000E+00
      25     1     1     2     0     0  6.357958959E+01  7.905102729E+01  3.268221037E+02  3.643200744E+02  1.250000000E+02  0.00000E+00  9.000E+00
      25     1     1     2     0     0 -7.861002400E+01 -1.506826576E+02  7.012131726E+02  7.322634175E+02  1.250000000E+02  0.00000E+00  9.000E+00
       1     1     1     2   502     0  1.503043442E+01  7.163163030E+01 -4.051581064E+02  4.117160376E+02  0.000000000E+00  0.00000E+00  9.000E+00
#rwgt            1           1   3.1309495093403812E-002           6      129723           0
</event>
<event>
      5   9999  3.79277E-02  3.74488E+01 -1.00000E+00  1.46638E-01
      21    -1     0     0   502   511  0.000000000E+00  0.000000000E+00  6.162908212E+01  6.162908212E+01  0.000000000E+00  0.00000E+00  9.000E+00
      21    -1     0     0   501   502  0.000000000E+00  0.000000000E+00 -1.063510995E+03  1.063510995E+03  0.000000000E+00  0.00000E+00  9.000E+00
      25     1     1     2     0     0 -2.253160163E+01  2.027535302E+02 -4.415898287E+02  5.022382342E+02  1.250000000E+02  0.00000E+00  9.000E+00
      25     1     1     2     0     0 -8.291487993E-02 -1.729039251E+02 -5.393014675E+02  5.799714192E+02  1.250000000E+02  0.00000E+00  9.000E+00
      21     1     1     2   501   511  2.261451651E+01 -2.984960508E+01 -2.099061630E+01  4.293042340E+01  6.743495762E-07  0.00000E+00  9.000E+00
#rwgt            1           1   4.1272305650859376E-002           6      129778           0
</event>
<event>
      5   9999  3.79277E-02  4.60133E+01 -1.00000E+00  1.41166E-01
      21    -1     0     0   502   501  0.000000000E+00  0.000000000E+00  3.018224400E+02  3.018224400E+02  0.000000000E+00  0.00000E+00  9.000E+00
      21    -1     0     0   512   502  0.000000000E+00  0.000000000E+00 -2.963632848E+02  2.963632848E+02  0.000000000E+00  0.00000E+00  9.000E+00
      25     1     1     2     0     0 -2.384720791E+02 -3.776582239E+01 -8.841824741E+00  2.720264100E+02  1.250000000E+02  0.00000E+00  9.000E+00
      25     1     1     2     0     0  2.286588185E+02  8.272048729E+01  3.511968510E+01  2.756554490E+02  1.250000000E+02  0.00000E+00  9.000E+00
      21     1     1     2   512   501  9.813260576E+00 -4.495466490E+01 -2.081870515E+01  5.050386583E+01  5.331201500E-07  0.00000E+00  9.000E+00
#rwgt            1           1   4.4216669146534743E-002           6      129877           0
</event>
<event>
      5   9999  3.79277E-02  6.66826E+01 -1.00000E+00  1.32298E-01
      21    -1     0     0   502   501  0.000000000E+00  0.000000000E+00  1.015317934E+02  1.015317934E+02  0.000000000E+00  0.00000E+00  9.000E+00
      21    -1     0     0   511   502  0.000000000E+00  0.000000000E+00 -1.015405508E+03  1.015405508E+03  0.000000000E+00  0.00000E+00  9.000E+00
      25     1     1     2     0     0 -1.365122761E+00 -1.300764220E+02 -6.388411424E+02  6.638258389E+02  1.250000000E+02  0.00000E+00  9.000E+00
      25     1     1     2     0     0 -4.803361923E+01  8.528435190E+01  1.125426695E+01  1.591612634E+02  1.250000000E+02  0.00000E+00  9.000E+00
      21     1     1     2   511   501  4.939874199E+01  4.479207007E+01 -2.862868393E+02  2.939501992E+02  5.394796609E-06  0.00000E+00  9.000E+00
#rwgt            2          11   1.5938515769842261E-003           6      129994           0
</event>
<event>
      5   9999  3.79277E-02  1.48432E+01 -1.00000E+00  1.77815E-01
      21    -1     0     0   512   501  0.000000000E+00  0.000000000E+00  6.490769012E+02  6.490769012E+02  0.000000000E+00  0.00000E+00  9.000E+00
      21    -1     0     0   501   502  0.000000000E+00  0.000000000E+00 -9.451747914E+01  9.451747914E+01  0.000000000E+00  0.00000E+00  9.000E+00
      25     1     1     2     0     0  3.509529072E+01  8.269999873E+01 -1.407741575E+00  1.539413881E+02  1.250000000E+02  0.00000E+00  9.000E+00
      25     1     1     2     0     0 -4.484697403E+01 -9.389038724E+01  3.836815081E+02  4.167291153E+02  1.250000000E+02  0.00000E+00  9.000E+00
      21     1     1     2   512   502  9.751683309E+00  1.119038851E+01  1.722856556E+02  1.729238770E+02  3.303624740E-06  0.00000E+00  9.000E+00
#rwgt            1           1   4.8682352299943811E-002           6      130479           0
</event>
<event>
      5   9999  3.79277E-02  8.89481E+00 -1.00000E+00  2.01827E-01
      21    -1     0     0   502   511  0.000000000E+00  0.000000000E+00  2.140544041E+02  2.140544041E+02  0.000000000E+00  0.00000E+00  9.000E+00
      21    -1     0     0   501   502  0.000000000E+00  0.000000000E+00 -4.203778250E+02  4.203778250E+02  0.000000000E+00  0.00000E+00  9.000E+00
      25     1     1     2     0     0  1.389045945E+01  9.562511742E+01 -3.412427901E+01  1.616371689E+02  1.250000000E+02  0.00000E+00  9.000E+00
      25     1     1     2     0     0 -1.026412133E+01 -8.750308881E+01 -3.042092897E+02  3.404855866E+02  1.250000000E+02  0.00000E+00  9.000E+00
      21     1     1     2   501   511 -3.626338123E+00 -8.122028608E+00  1.320101478E+02  1.323094736E+02  1.907348633E-06  0.00000E+00  9.000E+00
#rwgt            1           1   3.4275319369844411E-002           6      130682           0
</event>
<event>
      5   9999  3.79277E-02  9.18552E+01 -1.00000E+00  1.25510E-01
      21    -1     0     0   502   501  0.000000000E+00  0.000000000E+00  5.985702200E+02  5.985702200E+02  0.000000000E+00  0.00000E+00  9.000E+00
      21    -1     0     0   501   512  0.000000000E+00  0.000000000E+00 -2.307853170E+02  2.307853170E+02  0.000000000E+00  0.00000E+00  9.000E+00
      25     1     1     2     0     0  1.766223860E+02 -1.861368367E+02  2.262905167E+02  3.642455040E+02  1.250000000E+02  0.00000E+00  9.000E+00
      25     1     1     2     0     0 -2.273277631E+02  1.095448192E+02  2.093584846E+02  3.509044804E+02  1.250000000E+02  0.00000E+00  9.000E+00
      21     1     1     2   502   512  5.070537710E+01  7.659201748E+01 -6.786409828E+01  1.142055526E+02  2.861022949E-06  0.00000E+00  9.000E+00
#rwgt            1           1   3.4708717387154683E-002           6      130902           0
</event>
<event>
      5   9999  3.79277E-02  1.97130E+01 -1.00000E+00  1.66889E-01
      21    -1     0     0   511   501  0.000000000E+00  0.000000000E+00  2.475735680E+03  2.475735680E+03  0.000000000E+00  0.00000E+00  9.000E+00
      21    -1     0     0   501   502  0.000000000E+00  0.000000000E+00 -2.079982546E+01  2.079982546E+01  0.000000000E+00  0.00000E+00  9.000E+00
      25     1     1     2     0     0  1.093981519E+01  1.582041324E+01  2.058545018E+02  2.416009953E+02  1.250000000E+02  0.00000E+00  9.000E+00
      25     1     1     2     0     0 -1.524276204E+01  3.417232613E+00  1.408512450E+03  1.414134485E+03  1.250000000E+02  0.00000E+00  9.000E+00
      21     1     1     2   511   502  4.302946844E+00 -1.923764585E+01  8.405689025E+02  8.408000251E+02  1.078959322E-05  0.00000E+00  9.000E+00
#rwgt            1           1   3.5491847544211592E-002           6      131037           0
</event>
<event>
      5   9999  3.79277E-02  2.36730E+01 -1.00000E+00  1.60546E-01
      21    -1     0     0   502   501  0.000000000E+00  0.000000000E+00  2.223928412E+02  2.223928412E+02  0.000000000E+00  0.00000E+00  9.000E+00
      21    -1     0     0   512   502  0.000000000E+00  0.000000000E+00 -1.216523249E+02  1.216523249E+02  0.000000000E+00  0.00000E+00  9.000E+00
      25     1     1     2     0     0  5.547711081E+01 -6.983729929E+01  8.600020313E+01  1.759999805E+02  1.250000000E+02  0.00000E+00  9.000E+00
      25     1     1     2     0     0 -3.593164401E+01  5.648125386E+01  2.152102127E+01  1.434202546E+02  1.250000000E+02  0.00000E+00  9.000E+00
      21     1     1     2   512   501 -1.954546680E+01  1.335604543E+01 -6.780708111E+00  2.462493095E+01  3.153981341E-07  0.00000E+00  9.000E+00
#rwgt            1           1   9.6833189879832776E-002           6      131151           0
</event>
<event>
      5   9999  3.79277E-02  8.66613E+01 -1.00000E+00  1.26690E-01
      21    -1     0     0   502   511  0.000000000E+00  0.000000000E+00  1.216860358E+02  1.216860358E+02  0.000000000E+00  0.00000E+00  9.000E+00
      21    -1     0     0   501   502  0.000000000E+00  0.000000000E+00 -5.157461330E+02  5.157461330E+02  0.000000000E+00  0.00000E+00  9.000E+00
      25     1     1     2     0     0 -7.143346384E+01 -1.609487918E+02 -2.102578132E+02  3.013977461E+02  1.250000000E+02  0.00000E+00  9.000E+00
      25     1     1     2     0     0  1.131992166E+02  8.501585697E+01 -1.562043471E+02  2.450847948E+02  1.250000000E+02  0.00000E+00  9.000E+00
      21     1     1     2   501   511 -4.176575277E+01  7.593293481E+01 -2.759793692E+01  9.094962791E+01  1.305872339E-06  0.00000E+00  9.000E+00
#rwgt            1           1   3.8297809193922561E-002           6      131310           0
</event>
<event>
      5   9999  3.79277E-02  2.44699E+01 -1.00000E+00  1.59451E-01
      21    -1     0     0   502   501  0.000000000E+00  0.000000000E+00  1.382959300E+03  1.382959300E+03  0.000000000E+00  0.00000E+00  9.000E+00
      21    -1     0     0   512   502  0.000000000E+00  0.000000000E+00 -2.118306554E+02  2.118306554E+02  0.000000000E+00  0.00000E+00  9.000E+00
      25     1     1     2     0     0 -1.255446456E+02  1.464065758E+02 -8.605681569E+01  2.454121411E+02  1.250000000E+02  0.00000E+00  9.000E+00
      25     1     1     2     0     0  1.448846210E+02 -1.613979945E+02  1.286821863E+03  1.310944839E+03  1.250000000E+02  0.00000E+00  9.000E+00
      21     1     1     2   512   501 -1.933997533E+01  1.499141869E+01 -2.963640184E+01  3.843297535E+01  1.011524364E-06  0.00000E+00  9.000E+00
#rwgt            1           1   8.2201082993885455E-002           6      131529           0
</event>
<event>
      5   9999  3.79277E-02  1.39748E+02 -1.00000E+00  1.17625E-01
      21    -1     0     0   502   511  0.000000000E+00  0.000000000E+00  1.396538165E+02  1.396538165E+02  0.000000000E+00  0.00000E+00  9.000E+00
      21    -1     0     0   501   502  0.000000000E+00  0.000000000E+00 -8.736451995E+02  8.736451995E+02  0.000000000E+00  0.00000E+00  9.000E+00
      25     1     1     2     0     0 -8.241119026E+00  1.234980264E+02 -7.143619014E+02  7.357021168E+02  1.250000000E+02  0.00000E+00  9.000E+00
      25     1     1     2     0     0 -2.551729844E+01  1.211158003E+01 -4.448973237E+01  1.356545583E+02  1.250000000E+02  0.00000E+00  9.000E+00
      21     1     1     2   501   511  3.375841746E+01 -1.356096064E+02  2.486025074E+01  1.419423410E+02  3.320786542E-06  0.00000E+00  9.000E+00
#rwgt            1           1   3.8624388321432668E-002           6      131803           0
</event>
<event>
      5   9999  3.79277E-02  3.06878E+01 -1.00000E+00  1.52359E-01
      21    -1     0     0   502   501  0.000000000E+00  0.000000000E+00  3.937770101E+02  3.937770101E+02  0.000000000E+00  0.00000E+00  9.000E+00
      21    -1     0     0   512   502  0.000000000E+00  0.000000000E+00 -1.817268113E+02  1.817268113E+02  0.000000000E+00  0.00000E+00  9.000E+00
      25     1     1     2     0     0  8.271633834E+01  1.103098155E+02  2.553176709E+01  1.878486602E+02  1.250000000E+02  0.00000E+00  9.000E+00
      25     1     1     2     0     0 -1.134040623E+02 -1.102688548E+02  2.476007285E+02  3.192973887E+02  1.250000000E+02  0.00000E+00  9.000E+00
      21     1     1     2   512   501  3.068772392E+01 -4.096063309E-02 -6.108229678E+01  6.835777247E+01  9.536743164E-07  0.00000E+00  9.000E+00
#rwgt            1           1   3.6114657578633913E-002           6      132045           0
</event>
<event>
      5   9999  3.79277E-02  3.09299E+01 -1.00000E+00  1.52125E-01
      21    -1     0     0   502   511  0.000000000E+00  0.000000000E+00  5.340506088E+02  5.340506088E+02  0.000000000E+00  0.00000E+00  9.000E+00
      21    -1     0     0   501   502  0.000000000E+00  0.000000000E+00 -5.604400446E+02  5.604400446E+02  0.000000000E+00  0.00000E+00  9.000E+00
      25     1     1     2     0     0 -1.307100387E+02 -1.240445223E+01  2.269693285E+01  1.826995769E+02  1.250000000E+02  0.00000E+00  9.000E+00
      25     1     1     2     0     0  1.340882409E+02  4.314927059E+01 -4.613819035E+02  4.983370112E+02  1.250000000E+02  0.00000E+00  9.000E+00
      21     1     1     2   501   511 -3.378202211E+00 -3.074481836E+01  4.122955348E+02  4.134540653E+02  0.000000000E+00  0.00000E+00  9.000E+00
#rwgt            1           1   5.0728488285681828E-002           6      132123           0
</event>
<event>
      5   9999  3.79277E-02  1.42972E+01 -1.00000E+00  1.79370E-01
      21    -1     0     0   502   501  0.000000000E+00  0.000000000E+00  1.141593167E+02  1.141593167E+02  0.000000000E+00  0.00000E+00  9.000E+00
      21    -1     0     0   512   502  0.000000000E+00  0.000000000E+00 -4.134402007E+02  4.134402007E+02  0.000000000E+00  0.00000E+00  9.000E+00
      25     1     1     2     0     0 -1.430475181E+02 -9.744967196E+01 -1.617088241E+02  2.678316165E+02  1.250000000E+02  0.00000E+00  9.000E+00
      25     1     1     2     0     0  1.375317796E+02  8.425925202E+01 -1.186284643E+02  2.360345833E+02  1.250000000E+02  0.00000E+00  9.000E+00
      21     1     1     2   512   501  5.515738502E+00  1.319041994E+01 -1.894359563E+01  2.373331761E+01  3.371747881E-07  0.00000E+00  9.000E+00
#rwgt            1           1   2.5199724283785092E-002           6      132266           0
</event>
<event>
      5   9999  3.79277E-02  9.04693E+01 -1.00000E+00  1.25816E-01
      21    -1     0     0   502   501  0.000000000E+00  0.000000000E+00  5.979925183E+02  5.979925183E+02  0.000000000E+00  0.00000E+00  9.000E+00
      21    -1     0     0   501   511  0.000000000E+00  0.000000000E+00 -1.555257592E+02  1.555257592E+02  0.000000000E+00  0.00000E+00  9.000E+00
      25     1     1     2     0     0  1.365154815E+01  1.079045286E+02 -4.323059049E+01  1.712414553E+02  1.250000000E+02  0.00000E+00  9.000E+00
      25     1     1     2     0     0 -1.013564037E+02 -8.571099439E+01  4.490714820E+02  4.846748303E+02  1.250000000E+02  0.00000E+00  9.000E+00
      21     1     1     2   502   511  8.770485559E+01 -2.219353422E+01  3.662586762E+01  9.760199195E+01  2.078484985E-06  0.00000E+00  9.000E+00
#rwgt            1           1   3.7542800698114942E-002           6      132450           0
</event>
<event>
      5   9999  3.79277E-02  2.75138E+01 -1.00000E+00  1.55696E-01
      21    -1     0     0   502   501  0.000000000E+00  0.000000000E+00  8.136413553E+01  8.136413553E+01  0.000000000E+00  0.00000E+00  9.000E+00
      21    -1     0     0   512   502  0.000000000E+00  0.000000000E+00 -5.630067376E+02  5.630067376E+02  0.000000000E+00  0.00000E+00  9.000E+00
      25     1     1     2     0     0  1.028766197E+02 -1.621070374E+01 -5.228961162E+01  1.708964285E+02  1.250000000E+02  0.00000E+00  9.000E+00
      25     1     1     2     0     0 -8.917367204E+01  4.006937815E+01 -2.820812761E+02  3.236546696E+02  1.250000000E+02  0.00000E+00  9.000E+00
      21     1     1     2   512   501 -1.370294769E+01 -2.385867441E+01 -1.472717144E+02  1.498197750E+02  1.907348633E-06  0.00000E+00  9.000E+00
#rwgt            1           1   4.3571474902683933E-002           6      132544           0
</event>
<event>
      5   9999  3.79277E-02  2.37430E+01 -1.00000E+00  1.60447E-01
      21    -1     0     0   502   501  0.000000000E+00  0.000000000E+00  8.533794472E+01  8.533794472E+01  0.000000000E+00  0.00000E+00  9.000E+00
      21    -1     0     0   501   511  0.000000000E+00  0.000000000E+00 -6.856373147E+02  6.856373147E+02  0.000000000E+00  0.00000E+00  9.000E+00
      25     1     1     2     0     0 -2.444893897E+01 -1.789136523E+02 -2.213638733E+02  3.118249669E+02  1.250000000E+02  0.00000E+00  9.000E+00
      25     1     1     2     0     0  3.400119777E+01  1.571769374E+02 -2.254172529E+02  3.038068613E+02  1.250000000E+02  0.00000E+00  9.000E+00
      21     1     1     2   502   511 -9.552258800E+00  2.173671486E+01 -1.535182438E+02  1.553434311E+02  0.000000000E+00  0.00000E+00  9.000E+00
#rwgt            1           1   3.3344637773998091E-002           6      132728           0
</event>
<event>
      5   9999  3.79277E-02  1.71159E+01 -1.00000E+00  1.72150E-01
      21    -1     0     0   502   512  0.000000000E+00  0.000000000E+00  3.387743217E+02  3.387743217E+02  0.000000000E+00  0.00000E+00  9.000E+00
      21    -1     0     0   501   502  0.000000000E+00  0.000000000E+00 -6.840738066E+02  6.840738066E+02  0.000000000E+00  0.00000E+00  9.000E+00
      25     1     1     2     0     0 -9.431719620E+01  1.213561754E+02 -4.079393931E+02  4.535003895E+02  1.250000000E+02  0.00000E+00  9.000E+00
      25     1     1     2     0     0  9.686451920E+01 -1.044309137E+02 -2.176181522E+02  2.885675155E+02  1.250000000E+02  0.00000E+00  9.000E+00
      21     1     1     2   501   512 -2.547322994E+00 -1.692526174E+01  2.802580605E+02  2.807802233E+02  0.000000000E+00  0.00000E+00  9.000E+00
#rwgt            1           1   3.6568201996245393E-002           6      133027           0
</event>
<event>
      5   9999  3.79277E-02  2.43077E+01 -1.00000E+00  1.59670E-01
      21    -1     0     0   502   511  0.000000000E+00  0.000000000E+00  2.775429879E+02  2.775429879E+02  0.000000000E+00  0.00000E+00  9.000E+00
      21    -1     0     0   501   502  0.000000000E+00  0.000000000E+00 -3.349882418E+02  3.349882418E+02  0.000000000E+00  0.00000E+00  9.000E+00
      25     1     1     2     0     0 -1.594700383E+02 -7.108409788E+01 -1.836494461E+02  2.825522273E+02  1.250000000E+02  0.00000E+00  9.000E+00
      25     1     1     2     0     0  1.709606889E+02  4.966382133E+01  1.710078012E+01  2.182005706E+02  1.250000000E+02  0.00000E+00  9.000E+00
      21     1     1     2   501   511 -1.149065069E+01  2.142027656E+01  1.091034121E+02  1.117784319E+02  0.000000000E+00  0.00000E+00  9.000E+00
#rwgt            1           1   1.2264016782984421E-002           6      133339           0
</event>
<event>
      5   9999  3.79277E-02  9.25295E+01 -1.00000E+00  1.25364E-01
      21    -1     0     0   502   501  0.000000000E+00  0.000000000E+00  2.163014791E+02  2.163014791E+02  0.000000000E+00  0.00000E+00  9.000E+00
      21    -1     0     0   512   502  0.000000000E+00  0.000000000E+00 -3.684924373E+02  3.684924373E+02  0.000000000E+00  0.00000E+00  9.000E+00
      25     1     1     2     0     0 -2.005043902E+01 -8.913985140E+01 -1.475046613E+02  2.138470442E+02  1.250000000E+02  0.00000E+00  9.000E+00
      25     1     1     2     0     0 -4.652965336E+01  1.533956493E+02  1.038966374E+02  2.282865417E+02  1.250000000E+02  0.00000E+00  9.000E+00
      21     1     1     2   512   501  6.658009238E+01 -6.425579789E+01 -1.085829344E+02  1.426603305E+02  1.348699152E-06  0.00000E+00  9.000E+00
#rwgt            1           1   4.6038068409638970E-002           6      133535           0
</event>
<event>
      5   9999  3.79277E-02  4.91401E+01 -1.00000E+00  1.39507E-01
       2    -1     0     0   502     0  0.000000000E+00  0.000000000E+00  2.076065751E+02  2.076065751E+02  0.000000000E+00  0.00000E+00  9.000E+00
      21    -1     0     0   501   502  0.000000000E+00  0.000000000E+00 -3.189544351E+02  3.189544351E+02  0.000000000E+00  0.00000E+00  9.000E+00
      25     1     1     2     0     0  1.049610311E+02  9.914474882E+01 -1.820994624E+02  2.638782171E+02  1.250000000E+02  0.00000E+00  9.000E+00
      25     1     1     2     0     0 -9.371673880E+01 -5.130836925E+01 -1.366372446E+01  1.650062825E+02  1.250000000E+02  0.00000E+00  9.000E+00
       2     1     1     2   501     0 -1.124429232E+01 -4.783637957E+01  8.441532682E+01  9.767651059E+01  0.000000000E+00  0.00000E+00  9.000E+00
#rwgt            1           1   3.8832253472719104E-002           6      133641           0
</event>
<event>
      5   9999  3.79277E-02  1.66457E+01 -1.00000E+00  1.73228E-01
      21    -1     0     0   502   501  0.000000000E+00  0.000000000E+00  7.306038756E+01  7.306038756E+01  0.000000000E+00  0.00000E+00  9.000E+00
      21    -1     0     0   511   502  0.000000000E+00  0.000000000E+00 -5.550090619E+02  5.550090619E+02  0.000000000E+00  0.00000E+00  9.000E+00
      25     1     1     2     0     0  8.660691585E+01  4.098606293E+01 -4.166990635E+02  4.454702288E+02  1.250000000E+02  0.00000E+00  9.000E+00
      25     1     1     2     0     0 -7.106830647E+01 -3.501700606E+01 -4.169071350E+01  1.537530829E+02  1.250000000E+02  0.00000E+00  9.000E+00
      21     1     1     2   511   501 -1.553860938E+01 -5.969056867E+00 -2.355889731E+01  2.884613776E+01  0.000000000E+00  0.00000E+00  9.000E+00
#rwgt            1           1   5.3742193715499847E-002           6      133829           0
</event>
<event>
      5   9999  3.79277E-02  5.66447E+01 -1.00000E+00  1.36053E-01
      21    -1     0     0   512   501  0.000000000E+00  0.000000000E+00  1.913981301E+02  1.913981301E+02  0.000000000E+00  0.00000E+00  9.000E+00
      21    -1     0     0   501   502  0.000000000E+00  0.000000000E+00 -2.516237910E+03  2.516237910E+03  0.000000000E+00  0.00000E+00  9.000E+00
      25     1     1     2     0     0 -1.105122931E+02 -9.905698896E+01 -1.773406164E+03  1.783989819E+03  1.250000000E+02  0.00000E+00  9.000E+00
      25     1     1     2     0     0  1.231342509E+02  4.383641616E+01 -7.217984119E+02  7.441112972E+02  1.250000000E+02  0.00000E+00  9.000E+00
      21     1     1     2   512   502 -1.262195789E+01  5.522057280E+01  1.703647953E+02  1.795349241E+02  7.864199878E-06  0.00000E+00  9.000E+00
#rwgt            1           1   7.3245777588567040E-002           6      133999           0
</event>
<event>
      5   9999  3.79277E-02  1.27722E+01 -1.00000E+00  1.84225E-01
      21    -1     0     0   502   501  0.000000000E+00  0.000000000E+00  6.114373733E+01  6.114373733E+01  0.000000000E+00  0.00000E+00  9.000E+00
      21    -1     0     0   511   502  0.000000000E+00  0.000000000E+00 -1.015403075E+03  1.015403075E+03  0.000000000E+00  0.00000E+00  9.000E+00
      25     1     1     2     0     0 -1.071957488E+02 -1.691367676E+02 -3.825322583E+02  4.495042863E+02  1.250000000E+02  0.00000E+00  9.000E+00
      25     1     1     2     0     0  1.058347953E+02  1.818362157E+02 -5.420963004E+02  5.947762706E+02  1.250000000E+02  0.00000E+00  9.000E+00
      21     1     1     2   511   501  1.360953441E+00 -1.269944809E+01 -2.963077872E+01  3.226625518E+01  0.000000000E+00  0.00000E+00  9.000E+00
#rwgt            1           1   3.4886834121203719E-002           6      134054           0
</event>
<event>
      5   9999  3.79277E-02  3.91562E+01 -1.00000E+00  1.45417E-01
      21    -1     0     0   502   501  0.000000000E+00  0.000000000E+00  6.268503136E+02  6.268503136E+02  0.000000000E+00  0.00000E+00  9.000E+00
      21    -1     0     0   501   512  0.000000000E+00  0.000000000E+00 -1.679187554E+02  1.679187554E+02  0.000000000E+00  0.00000E+00  9.000E+00
      25     1     1     2     0     0  5.414043529E+00 -5.242947849E+01  4.554000115E+01  1.430980565E+02  1.250000000E+02  0.00000E+00  9.000E+00
      25     1     1     2     0     0 -1.874784914E+01  8.924543678E+01  5.176615484E+02  5.402913182E+02  1.250000000E+02  0.00000E+00  9.000E+00
      21     1     1     2   502   512  1.333380561E+01 -3.681595829E+01 -1.042699915E+02  1.113796942E+02  1.907348633E-06  0.00000E+00  9.000E+00
#rwgt            1           1   3.7794760116899535E-002           6      134307           0
</event>
<event>
      5   9999  3.79277E-02  2.72327E+01 -1.00000E+00  1.56018E-01
      21    -1     0     0   502   501  0.000000000E+00  0.000000000E+00  2.020827213E+03  2.020827213E+03  0.000000000E+00  0.00000E+00  9.000E+00
      21    -1     0     0   501   511  0.000000000E+00  0.000000000E+00 -1.334517335E+01  1.334517335E+01  0.000000000E+00  0.00000E+00  9.000E+00
      25     1     1     2     0     0 -2.584588852E+01  2.189538397E+01  1.129505464E+03  1.136905893E+03  1.250000000E+02  0.00000E+00  9.000E+00
      25     1     1     2     0     0  4.035792766E+00 -3.820295991E+01  8.422650496E+02  8.523562445E+02  1.250000000E+02  0.00000E+00  9.000E+00
      21     1     1     2   502   511  2.181009576E+01  1.630757594E+01  3.571152661E+01  4.491024875E+01  1.066240300E-06  0.00000E+00  9.000E+00
#rwgt            1           1   1.9116522846512152E-002           6      134427           0
</event>
<event>
      5   9999  3.79277E-02  6.21132E+00 -1.00000E+00  2.23162E-01
      21    -1     0     0   502   501  0.000000000E+00  0.000000000E+00  1.802770289E+02  1.802770289E+02  0.000000000E+00  0.00000E+00  9.000E+00
      21    -1     0     0   501   512  0.000000000E+00  0.000000000E+00 -7.548842185E+02  7.548842185E+02  0.000000000E+00  0.00000E+00  9.000E+00
      25     1     1     2     0     0 -8.903155787E+01 -8.330062900E+01  3.920357238E+01  1.789623792E+02  1.250000000E+02  0.00000E+00  9.000E+00
      25     1     1     2     0     0  9.326312613E+01  8.784753261E+01 -4.135952573E+01  1.837139354E+02  1.250000000E+02  0.00000E+00  9.000E+00
      21     1     1     2   502   512 -4.231568268E+00 -4.546903601E+00 -5.724512362E+02  5.724849329E+02  7.629394531E-06  0.00000E+00  9.000E+00
#rwgt            1           1  0.12225997405063997                6      134527           0
</event>
<event>
      5   9999  3.79277E-02  5.16232E+01 -1.00000E+00  1.38288E-01
      21    -1     0     0   502   501  0.000000000E+00  0.000000000E+00  1.017114820E+03  1.017114820E+03  0.000000000E+00  0.00000E+00  9.000E+00
      21    -1     0     0   501   511  0.000000000E+00  0.000000000E+00 -4.415905715E+01  4.415905715E+01  0.000000000E+00  0.00000E+00  9.000E+00
      25     1     1     2     0     0 -8.745348851E+01 -1.099927810E+02  3.299811506E+02  3.798145393E+02  1.250000000E+02  0.00000E+00  9.000E+00
      25     1     1     2     0     0  5.363162470E+01  7.099231953E+01  5.804055060E+02  6.003430786E+02  1.250000000E+02  0.00000E+00  9.000E+00
      21     1     1     2   502   511  3.382186382E+01  3.900046150E+01  6.256910657E+01  8.111625957E+01  1.907348633E-06  0.00000E+00  9.000E+00
#rwgt            1           1   3.5291376217918370E-002           6      134904           0
</event>
<event>
      5   9999  3.79277E-02  4.39402E+01 -1.00000E+00  1.42354E-01
      21    -1     0     0   502   512  0.000000000E+00  0.000000000E+00  1.073420234E+02  1.073420234E+02  0.000000000E+00  0.00000E+00  9.000E+00
      21    -1     0     0   501   502  0.000000000E+00  0.000000000E+00 -7.202360280E+02  7.202360280E+02  0.000000000E+00  0.00000E+00  9.000E+00
      25     1     1     2     0     0 -1.023635762E+02  9.947907047E+01 -5.838594695E+02  6.139147069E+02  1.250000000E+02  0.00000E+00  9.000E+00
      25     1     1     2     0     0  5.862766802E+01 -9.524702019E+01 -2.379268928E+01  1.694116005E+02  1.250000000E+02  0.00000E+00  9.000E+00
      21     1     1     2   501   512  4.373590816E+01 -4.232050288E+00 -5.241845858E+00  4.425174415E+01  7.275674114E-07  0.00000E+00  9.000E+00
#rwgt            1           1   2.5405168235320175E-002           6      135005           0
</event>
<event>
      5   9999  3.79277E-02  9.44258E+01 -1.00000E+00  1.24959E-01
      21    -1     0     0   511   501  0.000000000E+00  0.000000000E+00  2.096489114E+02  2.096489114E+02  0.000000000E+00  0.00000E+00  9.000E+00
      21    -1     0     0   501   502  0.000000000E+00  0.000000000E+00 -5.927238368E+02  5.927238368E+02  0.000000000E+00  0.00000E+00  9.000E+00
      25     1     1     2     0     0  3.174174675E+00 -8.125498409E+01 -4.261031083E+02  4.514435809E+02  1.250000000E+02  0.00000E+00  9.000E+00
      25     1     1     2     0     0 -6.429833152E+01  1.532276653E+02 -5.472455360E+01  2.150180681E+02  1.250000000E+02  0.00000E+00  9.000E+00
      21     1     1     2   511   502  6.112415684E+01 -7.197268119E+01  9.775273655E+01  1.359110992E+02  1.348699152E-06  0.00000E+00  9.000E+00
#rwgt            1           1   4.0176430293774365E-002           6      135274           0
</event>
<event>
      5   9999  3.79277E-02  4.32076E+01 -1.00000E+00  1.42793E-01
      21    -1     0     0   512   501  0.000000000E+00  0.000000000E+00  1.502013756E+02  1.502013756E+02  0.000000000E+00  0.00000E+00  9.000E+00
      21    -1     0     0   501   502  0.000000000E+00  0.000000000E+00 -2.770454422E+02  2.770454422E+02  0.000000000E+00  0.00000E+00  9.000E+00
      25     1     1     2     0     0  1.277648365E+02 -7.951853030E-01 -5.810901794E+01  1.879525039E+02  1.250000000E+02  0.00000E+00  9.000E+00
      25     1     1     2     0     0 -1.282901830E+02 -4.240920209E+01 -6.753970951E+01  1.960702013E+02  1.250000000E+02  0.00000E+00  9.000E+00
      21     1     1     2   512   502  5.253464978E-01  4.320438739E+01 -1.195339197E+00  4.322411265E+01  1.170761012E-06  0.00000E+00  9.000E+00
#rwgt            1           1   3.3391170020527806E-002           6      135336           0
</event>
<event>
      5   9999  3.79277E-02  1.22805E+02 -1.00000E+00  1.19944E-01
      21    -1     0     0   511   501  0.000000000E+00  0.000000000E+00  5.908041984E+02  5.908041984E+02  0.000000000E+00  0.00000E+00  9.000E+00
      21    -1     0     0   501   502  0.000000000E+00  0.000000000E+00 -2.973039299E+02  2.973039299E+02  0.000000000E+00  0.00000E+00  9.000E+00
      25     1     1     2     0     0  6.812641621E+01 -1.362344147E+02  1.211353880E+02  2.313002520E+02  1.250000000E+02  0.00000E+00  9.000E+00
      25     1     1     2     0     0 -1.643645492E+02  2.125189315E+02 -1.351455615E+02  3.256828581E+02  1.250000000E+02  0.00000E+00  9.000E+00
      21     1     1     2   511   502  9.623813298E+01 -7.628451671E+01  3.075104420E+02  3.311250182E+02  5.394796609E-06  0.00000E+00  9.000E+00
#rwgt            1           1   4.0786490598668387E-002           6      135489           0
</event>
<event>
      5   9999  3.79277E-02  5.39575E+01 -1.00000E+00  1.37214E-01
      21    -1     0     0   502   501  0.000000000E+00  0.000000000E+00  9.237083885E+02  9.237083885E+02  0.000000000E+00  0.00000E+00  9.000E+00
      21    -1     0     0   501   512  0.000000000E+00  0.000000000E+00 -9.850070717E+01  9.850070717E+01  0.000000000E+00  0.00000E+00  9.000E+00
      25     1     1     2     0     0 -1.929508958E+02  8.881873332E+01  5.687265397E+02  6.198336007E+02  1.250000000E+02  0.00000E+00  9.000E+00
      25     1     1     2     0     0  1.743561449E+02 -1.394709113E+02  2.171282173E+02  3.355918102E+02  1.250000000E+02  0.00000E+00  9.000E+00
      21     1     1     2   502   512  1.859475092E+01  5.065217799E+01  3.935292438E+01  6.678368479E+01  4.768371582E-07  0.00000E+00  9.000E+00
#rwgt            2          11   3.2736721286911303E-003           6      135557           0
</event>
<event>
      5   9999  3.79277E-02  7.63350E+00 -1.00000E+00  2.10370E-01
      21    -1     0     0   511   501  0.000000000E+00  0.000000000E+00  3.954096164E+01  3.954096164E+01  0.000000000E+00  0.00000E+00  9.000E+00
      21    -1     0     0   501   502  0.000000000E+00  0.000000000E+00 -1.472536083E+03  1.472536083E+03  0.000000000E+00  0.00000E+00  9.000E+00
      25     1     1     2     0     0 -6.745772040E-01 -8.591615594E+01 -1.269883426E+03  1.278910065E+03  1.250000000E+02  0.00000E+00  9.000E+00
      25     1     1     2     0     0  1.641604636E+00  9.348815632E+01 -1.431711677E+02  2.118152816E+02  1.250000000E+02  0.00000E+00  9.000E+00
      21     1     1     2   511   502 -9.670274322E-01 -7.572000378E+00 -1.994052779E+01  2.135169737E+01  0.000000000E+00  0.00000E+00  9.000E+00
#rwgt            1           1   3.6508945288093578E-002           6      135577           0
</event>
<event>
      5   9999 -3.79277E-02  1.46880E+02 -1.00000E+00  1.16757E-01
      21    -1     0     0   502   501  0.000000000E+00  0.000000000E+00  8.803854253E+02  8.803854253E+02  0.000000000E+00  0.00000E+00  9.000E+00
      -5    -1     0     0     0   502  0.000000000E+00  0.000000000E+00 -1.546553228E+02  1.546553228E+02  0.000000000E+00  0.00000E+00  9.000E+00
      25     1     1     2     0     0 -3.989242895E+01  7.933581887E+01  4.726109902E+02  4.968618782E+02  1.250000000E+02  0.00000E+00  9.000E+00
      25     1     1     2     0     0  1.794340382E+02 -3.348970708E+01  3.098504512E+02  3.807235699E+02  1.250000000E+02  0.00000E+00  9.000E+00
      -5     1     1     2     0   501 -1.395416093E+02 -4.584611179E+01 -5.673133874E+01  1.574553000E+02  2.697398305E-06  0.00000E+00  9.000E+00
#rwgt            1           1 -0.29891077902446739                6      136090           0
</event>
<event>
      5   9999  3.79277E-02  2.41722E+01 -1.00000E+00  1.59854E-01
      21    -1     0     0   502   501  0.000000000E+00  0.000000000E+00  4.164997867E+02  4.164997867E+02  0.000000000E+00  0.00000E+00  9.000E+00
      21    -1     0     0   511   502  0.000000000E+00  0.000000000E+00 -2.187615271E+02  2.187615271E+02  0.000000000E+00  0.00000E+00  9.000E+00
      25     1     1     2     0     0 -2.209152566E+02 -3.936928951E+00 -2.527161539E+01  2.551131211E+02  1.250000000E+02  0.00000E+00  9.000E+00
      25     1     1     2     0     0  2.357649440E+02  2.300997194E+01  2.320088096E+02  3.543552671E+02  1.250000000E+02  0.00000E+00  9.000E+00
      21     1     1     2   511   501 -1.484968736E+01 -1.907304299E+01 -8.998934635E+00  2.579292555E+01  3.953724850E-07  0.00000E+00  9.000E+00
#rwgt            1           1   3.7320517621253269E-002           6      136199           0
</event>
<event>
      5   9999  3.79277E-02  2.16575E+01 -1.00000E+00  1.63566E-01
      21    -1     0     0   502   512  0.000000000E+00  0.000000000E+00  5.640782236E+02  5.640782236E+02  0.000000000E+00  0.00000E+00  9.000E+00
      21    -1     0     0   501   502  0.000000000E+00  0.000000000E+00 -2.096229983E+02  2.096229983E+02  0.000000000E+00  0.00000E+00  9.000E+00
      25     1     1     2     0     0  1.075836288E+02 -2.213699935E+02  5.268447925E+01  2.810330329E+02  1.250000000E+02  0.00000E+00  9.000E+00
      25     1     1     2     0     0 -1.185135171E+02  2.400671762E+02  1.356139878E+02  3.251059158E+02  1.250000000E+02  0.00000E+00  9.000E+00
      21     1     1     2   501   512  1.092988827E+01 -1.869718271E+01  1.661567582E+02  1.675622732E+02  1.907348633E-06  0.00000E+00  9.000E+00
#rwgt            1           1  0.12640672466149311                6      136478           0
</event>
<event>
      5   9999  3.79277E-02  5.56030E+01 -1.00000E+00  1.36494E-01
      21    -1     0     0   502   501  0.000000000E+00  0.000000000E+00  8.086461491E+02  8.086461491E+02  0.000000000E+00  0.00000E+00  9.000E+00
      21    -1     0     0   511   502  0.000000000E+00  0.000000000E+00 -1.169518324E+02  1.169518324E+02  0.000000000E+00  0.00000E+00  9.000E+00
      25     1     1     2     0     0 -1.135244062E+02 -2.440439232E+01  2.957263344E+02  3.414124046E+02  1.250000000E+02  0.00000E+00  9.000E+00
      25     1     1     2     0     0  1.626336672E+02 -1.671818709E+00  4.574218728E+02  5.013105568E+02  1.250000000E+02  0.00000E+00  9.000E+00
      21     1     1     2   511   501 -4.910926104E+01  2.607621103E+01 -6.145389050E+01  8.287502012E+01  9.536743164E-07  0.00000E+00  9.000E+00
#rwgt            1           1   3.2728458583669996E-002           6      136796           0
</event>
<event>
      5   9999  3.79277E-02  5.12272E+01 -1.00000E+00  1.38477E-01
      21    -1     0     0   502   512  0.000000000E+00  0.000000000E+00  5.010685763E+01  5.010685763E+01  0.000000000E+00  0.00000E+00  9.000E+00
      21    -1     0     0   501   502  0.000000000E+00  0.000000000E+00 -1.252811267E+03  1.252811267E+03  0.000000000E+00  0.00000E+00  9.000E+00
      25     1     1     2     0     0  1.328803983E+02 -6.145490566E+01 -8.444830442E+02  8.661469376E+02  1.250000000E+02  0.00000E+00  9.000E+00
      25     1     1     2     0     0 -8.183094126E+01  5.719116429E+01 -3.500812080E+02  3.849012658E+02  1.250000000E+02  0.00000E+00  9.000E+00
      21     1     1     2   501   512 -5.104945705E+01  4.263741379E+00 -8.140157090E+00  5.186992108E+01  1.327458468E-06  0.00000E+00  9.000E+00
#rwgt            1           1   2.7519634238025961E-002           6      136954           0
</event>
<event>
      5   9999  3.79277E-02  2.39388E+01 -1.00000E+00  1.60175E-01
      21    -1     0     0   502   511  0.000000000E+00  0.000000000E+00  4.352376704E+01  4.352376704E+01  0.000000000E+00  0.00000E+00  9.000E+00
      21    -1     0     0   501   502  0.000000000E+00  0.000000000E+00 -1.232559729E+03  1.232559729E+03  0.000000000E+00  0.00000E+00  9.000E+00
      25     1     1     2     0     0  8.090545285E+01  1.276123534E+02 -4.324636762E+02  4.748478032E+02  1.250000000E+02  0.00000E+00  9.000E+00
      25     1     1     2     0     0 -1.036511716E+02 -1.350756447E+02 -7.455287259E+02  7.748722968E+02  1.250000000E+02  0.00000E+00  9.000E+00
      21     1     1     2   501   511  2.274571878E+01  7.463291334E+00 -1.104356008E+01  2.636339620E+01  4.460403188E-07  0.00000E+00  9.000E+00
#rwgt            1           1   4.3279730190155290E-002           6      136998           0
</event>
<event>
      5   9999  3.79277E-02  7.79774E+01 -1.00000E+00  1.28890E-01
      21    -1     0     0   502   501  0.000000000E+00  0.000000000E+00  3.231719270E+02  3.231719270E+02  0.000000000E+00  0.00000E+00  9.000E+00
      21    -1     0     0   501   512  0.000000000E+00  0.000000000E+00 -1.619328544E+03  1.619328544E+03  0.000000000E+00  0.00000E+00  9.000E+00
      25     1     1     2     0     0 -1.057816081E+02  3.954532640E+02 -1.702189667E+02  4.606218940E+02  1.250000000E+02  0.00000E+00  9.000E+00
      25     1     1     2     0     0  3.200027025E+01 -4.206879091E+02 -9.777473994E+01  4.507629465E+02  1.250000000E+02  0.00000E+00  9.000E+00
      21     1     1     2   502   512  7.378133787E+01  2.523464512E+01 -1.028162911E+03  1.031115631E+03  2.157918644E-05  0.00000E+00  9.000E+00
#rwgt            1           1   2.3400831239496662E-002           6      137121           0
</event>
<event>
      5   9999  3.79277E-02  1.05254E+02 -1.00000E+00  1.22836E-01
      21    -1     0     0   502   501  0.000000000E+00  0.000000000E+00  9.507986811E+01  9.507986811E+01  0.000000000E+00  0.00000E+00  9.000E+00
      -2    -1     0     0     0   502  0.000000000E+00  0.000000000E+00 -6.220964152E+02  6.220964152E+02  0.000000000E+00  0.00000E+00  9.000E+00
      25     1     1     2     0     0  8.875019660E+01 -1.371467834E+02 -1.395264291E+02  2.485527349E+02  1.250000000E+02  0.00000E+00  9.000E+00
      25     1     1     2     0     0  8.082881439E+00  9.589375515E+01 -2.470114327E+02  2.930880297E+02  1.250000000E+02  0.00000E+00  9.000E+00
      -2     1     1     2     0   501 -9.683307804E+01  4.125302821E+01 -1.404786852E+02  1.755355187E+02  0.000000000E+00  0.00000E+00  9.000E+00
#rwgt            1           1   4.3298692307843833E-002           6      137318           0
</event>
<event>
      5   9999  3.79277E-02  2.15495E+01 -1.00000E+00  1.63739E-01
      21    -1     0     0   502   511  0.000000000E+00  0.000000000E+00  1.342057436E+02  1.342057436E+02  0.000000000E+00  0.00000E+00  9.000E+00
      21    -1     0     0   501   502  0.000000000E+00  0.000000000E+00 -7.635065420E+02  7.635065420E+02  0.000000000E+00  0.00000E+00  9.000E+00
      25     1     1     2     0     0  1.015463532E+01  2.451853964E+02 -3.502567676E+02  4.455600952E+02  1.250000000E+02  0.00000E+00  9.000E+00
      25     1     1     2     0     0  2.410730028E+00 -2.626923345E+02 -3.029139157E+02  4.199939458E+02  1.250000000E+02  0.00000E+00  9.000E+00
      21     1     1     2   501   511 -1.256536535E+01  1.750693807E+01  2.386988493E+01  3.215824457E+01  8.920806376E-07  0.00000E+00  9.000E+00
#rwgt            1           1   3.1603933318738876E-002           6      137408           0
</event>
<event>
      5   9999  3.79277E-02  2.23511E+01 -1.00000E+00  1.62483E-01
      21    -1     0     0   502   501  0.000000000E+00  0.000000000E+00  2.713645586E+02  2.713645586E+02  0.000000000E+00  0.00000E+00  9.000E+00
      21    -1     0     0   501   512  0.000000000E+00  0.000000000E+00 -2.519425936E+02  2.519425936E+02  0.000000000E+00  0.00000E+00  9.000E+00
      25     1     1     2     0     0 -3.442975205E+01 -7.705022231E+01 -1.818191872E+02  2.362315843E+02  1.250000000E+02  0.00000E+00  9.000E+00
      25     1     1     2     0     0  1.294100150E+01  8.319870810E+01  2.136898511E+02  2.614915811E+02  1.250000000E+02  0.00000E+00  9.000E+00
      21     1     1     2   502   512  2.148875056E+01 -6.148485785E+00 -1.244869891E+01  2.558398684E+01  4.768371582E-07  0.00000E+00  9.000E+00
#rwgt            1           1   3.6847733838832449E-002           6      137590           0
</event>
<event>
      5   9999  3.79277E-02  1.69122E+01 -1.00000E+00  1.72611E-01
      21    -1     0     0   502   501  0.000000000E+00  0.000000000E+00  6.872062256E+02  6.872062256E+02  0.000000000E+00  0.00000E+00  9.000E+00
      21    -1     0     0   511   502  0.000000000E+00  0.000000000E+00 -8.236291070E+01  8.236291070E+01  0.000000000E+00  0.00000E+00  9.000E+00
      25     1     1     2     0     0 -2.057835935E+01  4.662417036E+01  5.948685761E+02  6.099925450E+02  1.250000000E+02  0.00000E+00  9.000E+00
      25     1     1     2     0     0  4.151607381E+00 -5.064700195E+01 -7.648460902E+00  1.351512249E+02  1.250000000E+02  0.00000E+00  9.000E+00
      21     1     1     2   511   501  1.642675197E+01  4.022831589E+00  1.762319974E+01  2.442536640E+01  3.371747881E-07  0.00000E+00  9.000E+00
#rwgt            1           1   4.2826416652329433E-002           6      137842           0
</event>
<event>
      5   9999  3.79277E-02  2.61366E+01 -1.00000E+00  1.57318E-01
      21    -1     0     0   502   512  0.000000000E+00  0.000000000E+00  2.811198317E+02  2.811198317E+02  0.000000000E+00  0.00000E+00  9.000E+00
      21    -1     0     0   501   502  0.000000000E+00  0.000000000E+00 -8.159415338E+02  8.159415338E+02  0.000000000E+00  0.00000E+00  9.000E+00
      25     1     1     2     0     0  1.429868943E+02 -2.618734766E+02 -4.861690288E+02  5.839591546E+02  1.250000000E+02  0.00000E+00  9.000E+00
      25     1     1     2     0     0 -1.648391712E+02  2.475347215E+02 -1.866143403E+02  3.726866012E+02  1.250000000E+02  0.00000E+00  9.000E+00
      21     1     1     2   501   512  2.185227688E+01  1.433875511E+01  1.379616670E+02  1.404156097E+02  0.000000000E+00  0.00000E+00  9.000E+00
#rwgt            1           1   3.4765490327574713E-002           6      138067           0
</event>
<event>
      5   9999  3.79277E-02  4.53791E+01 -1.00000E+00  1.41522E-01
      21    -1     0     0   511   501  0.000000000E+00  0.000000000E+00  3.193978155E+02  3.193978155E+02  0.000000000E+00  0.00000E+00  9.000E+00
      21    -1     0     0   501   502  0.000000000E+00  0.000000000E+00 -1.651741071E+02  1.651741071E+02  0.000000000E+00  0.00000E+00  9.000E+00
      25     1     1     2     0     0 -4.753606072E+00  7.249112567E+00  2.373404417E+02  2.683852300E+02  1.250000000E+02  0.00000E+00  9.000E+00
      25     1     1     2     0     0  1.444487899E+00 -5.250740257E+01 -9.924272007E+01  1.680274720E+02  1.250000000E+02  0.00000E+00  9.000E+00
      21     1     1     2   511   502  3.309118173E+00  4.525829000E+01  1.612598670E+01  4.815922055E+01  9.233911863E-07  0.00000E+00  9.000E+00
#rwgt            1           1   2.8460677540349397E-002           6      138307           0
</event>
<event>
      5   9999  3.79277E-02  1.32836E+01 -1.00000E+00  1.82504E-01
      -2    -1     0     0     0   501  0.000000000E+00  0.000000000E+00  3.440172688E+01  3.440172688E+01  0.000000000E+00  0.00000E+00  9.000E+00
      21    -1     0     0   501   502  0.000000000E+00  0.000000000E+00 -2.232524209E+03  2.232524209E+03  0.000000000E+00  0.00000E+00  9.000E+00
      25     1     1     2     0     0  5.674104026E+01 -1.942763811E+02 -1.504105568E+03  1.522800518E+03  1.250000000E+02  0.00000E+00  9.000E+00
      25     1     1     2     0     0 -6.823613424E+01  2.009333806E+02 -6.853659705E+02  7.282732365E+02  1.250000000E+02  0.00000E+00  9.000E+00
      -2     1     1     2     0   502  1.149509398E+01 -6.656999430E+00 -8.650943368E+00  1.585218118E+01  2.920019320E-07  0.00000E+00  9.000E+00
#rwgt            1           1   7.5492091464481242E-002           6      138429           0
</event>
<event>
      5   9999  3.79277E-02  4.27280E+01 -1.00000E+00  1.43085E-01
      21    -1     0     0   502   501  0.000000000E+00  0.000000000E+00  6.909241001E+02  6.909241001E+02  0.000000000E+00  0.00000E+00  9.000E+00
      21    -1     0     0   511   502  0.000000000E+00  0.000000000E+00 -1.317531365E+02  1.317531365E+02  0.000000000E+00  0.00000E+00  9.000E+00
      25     1     1     2     0     0  2.046766138E+02 -1.636518184E+01  1.230350907E+02  2.700425318E+02  1.250000000E+02  0.00000E+00  9.000E+00
      25     1     1     2     0     0 -1.936556685E+02  5.764738091E+01  4.490207096E+02  5.080062363E+02  1.250000000E+02  0.00000E+00  9.000E+00
      21     1     1     2   511   501 -1.102094529E+01 -4.128219907E+01 -1.288483658E+01  4.462846859E+01  2.920019320E-07  0.00000E+00  9.000E+00
#rwgt            1           1   3.4181282399035236E-002           6      138588           0
</event>
<event>
      5   9999 -3.79277E-02  1.74693E+02 -1.00000E+00  1.13830E-01
      21    -1     0     0   502   501  0.000000000E+00  0.000000000E+00  1.353846312E+02  1.353846312E+02  0.000000000E+00  0.00000E+00  9.000E+00
       2    -1     0     0   501     0  0.000000000E+00  0.000000000E+00 -1.264348268E+03  1.264348268E+03  0.000000000E+00  0.00000E+00  9.000E+00
      25     1     1     2     0     0  4.989941272E+01 -1.588555608E+02 -1.441923561E+02  2.532616752E+02  1.250000000E+02  0.00000E+00  9.000E+00
      25     1     1     2     0     0  1.247796397E+02  1.610562668E+02 -1.261790381E+02  2.702873087E+02  1.250000000E+02  0.00000E+00  9.000E+00
       2     1     1     2   502     0 -1.746790524E+02 -2.200706017E+00 -8.585922425E+02  8.761839152E+02  1.078959322E-05  0.00000E+00  9.000E+00
#rwgt            1           1 -0.12896066168032486                6      138887           0
</event>
<event>
      5   9999  3.79277E-02  1.58398E+02 -1.00000E+00  1.15464E-01
      21    -1     0     0   502   501  0.000000000E+00  0.000000000E+00  2.042181650E+02  2.042181650E+02  0.000000000E+00  0.00000E+00  9.000E+00
      -3    -1     0     0     0   502  0.000000000E+00  0.000000000E+00 -9.080612430E+02  9.080612430E+02  0.000000000E+00  0.00000E+00  9.000E+00
      25     1     1     2     0     0 -8.482576934E+01 -2.684657225E+01 -2.751260244E+02  3.150166327E+02  1.250000000E+02  0.00000E+00  9.000E+00
      25     1     1     2     0     0  4.819159624E+01 -1.272568562E+02  1.238490515E+02  2.224417338E+02  1.250000000E+02  0.00000E+00  9.000E+00
      -3     1     1     2     0   501  3.663417310E+01  1.541034284E+02 -5.525661050E+02  5.748210415E+02  1.078959322E-05  0.00000E+00  9.000E+00
#rwgt            1           1   4.2748598676169189E-002           6      138981           0
</event>
<event>
      5   9999  3.79277E-02  7.25714E+01 -1.00000E+00  1.30432E-01
      21    -1     0     0   502   501  0.000000000E+00  0.000000000E+00  7.439149172E+02  7.439149172E+02  0.000000000E+00  0.00000E+00  9.000E+00
       2    -1     0     0   501     0  0.000000000E+00  0.000000000E+00 -8.390950232E+02  8.390950232E+02  0.000000000E+00  0.00000E+00  9.000E+00
      25     1     1     2     0     0 -8.302159841E+01  4.496970118E+01  1.270262516E+02  2.016817503E+02  1.250000000E+02  0.00000E+00  9.000E+00
      25     1     1     2     0     0  1.052787963E+02 -1.140438054E+02  5.607016796E+02  5.950638520E+02  1.250000000E+02  0.00000E+00  9.000E+00
       2     1     1     2   502     0 -2.225719787E+01  6.907410420E+01 -7.829080372E+02  7.862643381E+02  1.078959322E-05  0.00000E+00  9.000E+00
#rwgt            1           1   4.1686710004732369E-002           6      139065           0
</event>
<event>
      5   9999  3.79277E-02  5.18789E+01 -1.00000E+00  1.38168E-01
      21    -1     0     0   502   501  0.000000000E+00  0.000000000E+00  1.499583866E+03  1.499583866E+03  0.000000000E+00  0.00000E+00  9.000E+00
      21    -1     0     0   511   502  0.000000000E+00  0.000000000E+00 -2.440322783E+02  2.440322783E+02  0.000000000E+00  0.00000E+00  9.000E+00
      25     1     1     2     0     0 -6.391498434E+01  3.013723071E+01  2.526366844E+02  2.905919341E+02  1.250000000E+02  0.00000E+00  9.000E+00
      25     1     1     2     0     0  1.890757770E+01 -5.593946029E+01  1.221026500E+03  1.228827667E+03  1.250000000E+02  0.00000E+00  9.000E+00
      21     1     1     2   511   501  4.500740663E+01  2.580222959E+01 -2.181115967E+02  2.241965439E+02  4.672030912E-06  0.00000E+00  9.000E+00
#rwgt            1           1   5.4427410341924644E-002           6      139158           0
</event>
<event>
      5   9999  3.79277E-02  9.33210E+01 -1.00000E+00  1.25193E-01
      21    -1     0     0   502   501  0.000000000E+00  0.000000000E+00  3.318129719E+02  3.318129719E+02  0.000000000E+00  0.00000E+00  9.000E+00
      21    -1     0     0   501   512  0.000000000E+00  0.000000000E+00 -1.853012394E+02  1.853012394E+02  0.000000000E+00  0.00000E+00  9.000E+00
      25     1     1     2     0     0 -5.066488748E+01  1.238520069E+02  9.789247266E+01  2.076395594E+02  1.250000000E+02  0.00000E+00  9.000E+00
      25     1     1     2     0     0 -3.609338079E+01 -1.582294171E+02  6.459783132E+01  2.147956247E+02  1.250000000E+02  0.00000E+00  9.000E+00
      21     1     1     2   502   512  8.675826827E+01  3.437741024E+01 -1.597857152E+01  9.467902722E+01  2.105655877E-06  0.00000E+00  9.000E+00
#rwgt            1           1   3.2185899607627085E-002           6      139239           0
</event>
<event>
      5   9999  3.79277E-02  3.66315E+00 -1.00000E+00  2.72810E-01
      21    -1     0     0   502   501  0.000000000E+00  0.000000000E+00  2.605069407E+02  2.605069407E+02  0.000000000E+00  0.00000E+00  9.000E+00
       2    -1     0     0   501     0  0.000000000E+00  0.000000000E+00 -3.122228138E+02  3.122228138E+02  0.000000000E+00  0.00000E+00  9.000E+00
      25     1     1     2     0     0 -8.331519918E+01 -1.953425826E+00  1.581307603E+02  2.181182607E+02  1.250000000E+02  0.00000E+00  9.000E+00
      25     1     1     2     0     0  8.319701804E+01  5.614671160E+00 -5.634255154E+00  1.503662634E+02  1.250000000E+02  0.00000E+00  9.000E+00
       2     1     1     2   502     0  1.181811398E-01 -3.661245334E+00 -2.042123783E+02  2.042452304E+02  2.697398305E-06  0.00000E+00  9.000E+00
#rwgt            1           1   3.5455360423544913E-002           6      139293           0
</event>
<event>
      5   9999  3.79277E-02  8.89862E+00 -1.00000E+00  2.01804E-01
      21    -1     0     0   502   511  0.000000000E+00  0.000000000E+00  1.571180501E+03  1.571180501E+03  0.000000000E+00  0.00000E+00  9.000E+00
      21    -1     0     0   501   502  0.000000000E+00  0.000000000E+00 -1.384628187E+02  1.384628187E+02  0.000000000E+00  0.00000E+00  9.000E+00
      25     1     1     2     0     0  1.961163512E+02  1.385120825E+01  9.230234907E+00  2.331601947E+02  1.250000000E+02  0.00000E+00  9.000E+00
      25     1     1     2     0     0 -1.989803995E+02 -5.426092307E+00  4.951899919E+02  5.481430196E+02  1.250000000E+02  0.00000E+00  9.000E+00
      21     1     1     2   501   511  2.864048308E+00 -8.425115948E+00  9.282974556E+02  9.283401055E+02  1.078959322E-05  0.00000E+00  9.000E+00
#rwgt            1           1   3.6691814044161532E-002           6      139723           0
</event>
<event>
      5   9999  3.79277E-02  1.59662E+01 -1.00000E+00  1.74867E-01
      21    -1     0     0   502   501  0.000000000E+00  0.000000000E+00  1.605402338E+02  1.605402338E+02  0.000000000E+00  0.00000E+00  9.000E+00
      21    -1     0     0   512   502  0.000000000E+00  0.000000000E+00 -2.421241221E+02  2.421241221E+02  0.000000000E+00  0.00000E+00  9.000E+00
      25     1     1     2     0     0 -4.876742642E+01  1.200018075E+02 -7.754571710E+01  1.960026375E+02  1.250000000E+02  0.00000E+00  9.000E+00
      25     1     1     2     0     0  4.433541041E+01 -1.046630526E+02  2.762940702E+01  1.711968672E+02  1.250000000E+02  0.00000E+00  9.000E+00
      21     1     1     2   512   501  4.432016006E+00 -1.533875482E+01 -3.166757817E+01  3.546485122E+01  5.840038640E-07  0.00000E+00  9.000E+00
#rwgt            1           1   4.5447307697086589E-002           6      140030           0
</event>
<event>
      5   9999  3.79277E-02  3.34329E+01 -1.00000E+00  1.49842E-01
      21    -1     0     0   511   501  0.000000000E+00  0.000000000E+00  8.999929576E+02  8.999929576E+02  0.000000000E+00  0.00000E+00  9.000E+00
      21    -1     0     0   501   502  0.000000000E+00  0.000000000E+00 -9.904801976E+01  9.904801976E+01  0.000000000E+00  0.00000E+00  9.000E+00
      25     1     1     2     0     0 -3.906462495E+01 -1.139894702E+02  2.788907507E+02  3.285189417E+02  1.250000000E+02  0.00000E+00  9.000E+00
      25     1     1     2     0     0  2.788007647E+01  8.248286321E+01  5.029215711E+00  1.524172379E+02  1.250000000E+02  0.00000E+00  9.000E+00
      21     1     1     2   511   502  1.118454848E+01  3.150660695E+01  5.170249714E+02  5.181047978E+02  7.629394531E-06  0.00000E+00  9.000E+00
#rwgt            1           1   2.5683462602988736E-002           6      140412           0
</event>
<event>
      5   9999  3.79277E-02  7.99348E+01 -1.00000E+00  1.28367E-01
      21    -1     0     0   502   501  0.000000000E+00  0.000000000E+00  8.491058108E+01  8.491058108E+01  0.000000000E+00  0.00000E+00  9.000E+00
      21    -1     0     0   512   502  0.000000000E+00  0.000000000E+00 -7.896146934E+02  7.896146934E+02  0.000000000E+00  0.00000E+00  9.000E+00
      25     1     1     2     0     0  8.596127788E+01 -6.922704440E+01 -9.309878994E+01  1.909819616E+02  1.250000000E+02  0.00000E+00  9.000E+00
      25     1     1     2     0     0 -1.644483053E+02  8.437163874E+01 -4.122823869E+02  4.687894891E+02  1.250000000E+02  0.00000E+00  9.000E+00
      21     1     1     2   512   501  7.848702744E+01 -1.514459434E+01 -1.993229355E+02  2.147538238E+02  3.814697266E-06  0.00000E+00  9.000E+00
#rwgt            1           1   4.3019934071819678E-002           6      140624           0
</event>
<event>
      5   9999  3.79277E-02  9.87333E+01 -1.00000E+00  1.24077E-01
      -1    -1     0     0     0   501  0.000000000E+00  0.000000000E+00  4.037075674E+02  4.037075674E+02  0.000000000E+00  0.00000E+00  9.000E+00
      21    -1     0     0   501   502  0.000000000E+00  0.000000000E+00 -1.469535515E+03  1.469535515E+03  0.000000000E+00  0.00000E+00  9.000E+00
      25     1     1     2     0     0 -9.089614093E+01  1.261344593E+02 -2.273034902E+02  3.024299703E+02  1.250000000E+02  0.00000E+00  9.000E+00
      25     1     1     2     0     0  1.863505947E+02 -1.009015061E+02 -1.185140482E+03  1.210409278E+03  1.250000000E+02  0.00000E+00  9.000E+00
      -1     1     1     2     0   502 -9.545445381E+01 -2.523295324E+01  3.466160250E+02  3.604038338E+02  6.607249480E-06  0.00000E+00  9.000E+00
#rwgt            1           1   3.0289127161858317E-002           6      140699           0
</event>
<event>
      5   9999  3.79277E-02  2.10044E+01 -1.00000E+00  1.64632E-01
      21    -1     0     0   511   501  0.000000000E+00  0.000000000E+00  2.611787302E+02  2.611787302E+02  0.000000000E+00  0.00000E+00  9.000E+00
      21    -1     0     0   501   502  0.000000000E+00  0.000000000E+00 -4.062859814E+02  4.062859814E+02  0.000000000E+00  0.00000E+00  9.000E+00
      25     1     1     2     0     0  7.968059024E+01 -1.234321473E+02  1.767061921E+02  2.616000187E+02  1.250000000E+02  0.00000E+00  9.000E+00
      25     1     1     2     0     0 -8.749309245E+01  1.039346734E+02 -3.339672415E+02  3.815974003E+02  1.250000000E+02  0.00000E+00  9.000E+00
      21     1     1     2   511   502  7.812502210E+00  1.949747393E+01  1.215379815E+01  2.426729260E+01  2.384185791E-07  0.00000E+00  9.000E+00
#rwgt            1           1   4.6902186899764088E-002           6      140857           0
</event>
<event>
      5   9999  3.79277E-02  1.31431E+01 -1.00000E+00  1.82967E-01
      21    -1     0     0   502   501  0.000000000E+00  0.000000000E+00  3.025174028E+02  3.025174028E+02  0.000000000E+00  0.00000E+00  9.000E+00
      21    -1     0     0   501   512  0.000000000E+00  0.000000000E+00 -9.928705663E+01  9.928705663E+01  0.000000000E+00  0.00000E+00  9.000E+00
      25     1     1     2     0     0 -4.004724795E+01  7.043677386E+01  1.736820164E+02  2.288133824E+02  1.250000000E+02  0.00000E+00  9.000E+00
      25     1     1     2     0     0  3.961155402E+01 -8.357267988E+01  3.389913506E+01  1.591465343E+02  1.250000000E+02  0.00000E+00  9.000E+00
      21     1     1     2   502   512  4.356939352E-01  1.313590602E+01 -4.350805212E+00  1.384454269E+01  1.884864366E-07  0.00000E+00  9.000E+00
#rwgt            1           1   3.9879131734736506E-002           6      141055           0
</event>
<event>
      5   9999  3.79277E-02  5.07109E+01 -1.00000E+00  1.38727E-01
      21    -1     0     0   511   501  0.000000000E+00  0.000000000E+00  2.763519664E+03  2.763519664E+03  0.000000000E+00  0.00000E+00  9.000E+00
      21    -1     0     0   501   502  0.000000000E+00  0.000000000E+00 -1.128773992E+02  1.128773992E+02  0.000000000E+00  0.00000E+00  9.000E+00
      25     1     1     2     0     0 -1.305458810E+02 -1.854046830E+02  1.268220232E+02  2.883157108E+02  1.250000000E+02  0.00000E+00  9.000E+00
      25     1     1     2     0     0  1.087206429E+02  1.396307745E+02  3.367790193E+02  4.004522933E+02  1.250000000E+02  0.00000E+00  9.000E+00
      21     1     1     2   511   502  2.182523807E+01  4.577390847E+01  2.187041222E+03  2.187629059E+03  0.000000000E+00  0.00000E+00  9.000E+00
#rwgt            1           1   3.5496701957474994E-002           6      141324           0
</event>
<event>
      5   9999  3.79277E-02  3.79306E+01 -1.00000E+00  1.46286E-01
      21    -1     0     0   502   501  0.000000000E+00  0.000000000E+00  2.747684834E+02  2.747684834E+02  0.000000000E+00  0.00000E+00  9.000E+00
      21    -1     0     0   501   512  0.000000000E+00  0.000000000E+00 -3.164435385E+02  3.164435385E+02  0.000000000E+00  0.00000E+00  9.000E+00
      25     1     1     2     0     0 -1.294245047E+02 -1.421629503E+02 -1.091319989E+02  2.539602332E+02  1.250000000E+02  0.00000E+00  9.000E+00
      25     1     1     2     0     0  1.488434565E+02  1.747456871E+02  1.070288952E+02  2.824369206E+02  1.250000000E+02  0.00000E+00  9.000E+00
      21     1     1     2   502   512 -1.941895174E+01 -3.258273687E+01 -3.957195139E+01  5.481486810E+01  4.768371582E-07  0.00000E+00  9.000E+00
#rwgt            1           1   3.0519826367131790E-002           6      141422           0
</event>
<event>
      5   9999  3.79277E-02  8.05521E+01 -1.00000E+00  1.28205E-01
      21    -1     0     0   502   501  0.000000000E+00  0.000000000E+00  1.288673818E+03  1.288673818E+03  0.000000000E+00  0.00000E+00  9.000E+00
       3    -1     0     0   501     0  0.000000000E+00  0.000000000E+00 -7.383824084E+01  7.383824084E+01  0.000000000E+00  0.00000E+00  9.000E+00
      25     1     1     2     0     0  1.730058667E+02 -7.312425343E+01  5.060113614E+02  5.540313025E+02  1.250000000E+02  0.00000E+00  9.000E+00
      25     1     1     2     0     0 -2.531218286E+02  8.149480761E+01  6.329231482E+02  6.978028198E+02  1.250000000E+02  0.00000E+00  9.000E+00
       3     1     1     2   502     0  8.011596197E+01 -8.370554179E+00  7.590106713E+01  1.106779361E+02  9.536743164E-07  0.00000E+00  9.000E+00
#rwgt            1           1   4.1301224417000772E-002           6      141666           0
</event>
<event>
      5   9999 -3.79277E-02  4.53766E+01 -1.00000E+00  1.41523E-01
      21    -1     0     0   502   511  0.000000000E+00  0.000000000E+00  3.056839280E+02  3.056839280E+02  0.000000000E+00  0.00000E+00  9.000E+00
      21    -1     0     0   501   502  0.000000000E+00  0.000000000E+00 -3.203686411E+02  3.203686411E+02  0.000000000E+00  0.00000E+00  9.000E+00
      25     1     1     2     0     0 -1.236709486E+02  5.838011577E+01 -2.269786758E+02  2.929966906E+02  1.250000000E+02  0.00000E+00  9.000E+00
      25     1     1     2     0     0  9.702614275E+01 -9.511005656E+01  9.571589250E+01  2.079579941E+02  1.250000000E+02  0.00000E+00  9.000E+00
      21     1     1     2   501   511  2.664480582E+01  3.672994079E+01  1.165780702E+02  1.250978844E+02  1.348699152E-06  0.00000E+00  9.000E+00
#rwgt            1           1  -5.3396558486499282E-002           6      141744           0
</event>
<event>
      5   9999  3.79277E-02  1.10777E+01 -1.00000E+00  1.90755E-01
      21    -1     0     0   502   512  0.000000000E+00  0.000000000E+00  6.434817155E+01  6.434817155E+01  0.000000000E+00  0.00000E+00  9.000E+00
      21    -1     0     0   501   502  0.000000000E+00  0.000000000E+00 -2.976073955E+03  2.976073955E+03  0.000000000E+00  0.00000E+00  9.000E+00
      25     1     1     2     0     0 -1.365489397E+02 -5.079526739E+01 -2.630666714E+03  2.637661489E+03  1.250000000E+02  0.00000E+00  9.000E+00
      25     1     1     2     0     0  1.290600671E+02  5.895807330E+01 -3.148107851E+02  3.672375060E+02  1.250000000E+02  0.00000E+00  9.000E+00
      21     1     1     2   501   512  7.488872580E+00 -8.162805909E+00  3.375171518E+01  3.552313177E+01  1.846782373E-06  0.00000E+00  9.000E+00
#rwgt            1           1   4.8093804475073366E-002           6      141970           0
</event>
<event>
      5   9999  3.79277E-02  7.15226E+01 -1.00000E+00  1.30749E-01
      21    -1     0     0   502   501  0.000000000E+00  0.000000000E+00  2.799266005E+02  2.799266005E+02  0.000000000E+00  0.00000E+00  9.000E+00
      21    -1     0     0   511   502  0.000000000E+00  0.000000000E+00 -1.671944015E+02  1.671944015E+02  0.000000000E+00  0.00000E+00  9.000E+00
      25     1     1     2     0     0  9.012832431E+00 -1.297385811E+02  7.236107755E+01  1.943565181E+02  1.250000000E+02  0.00000E+00  9.000E+00
      25     1     1     2     0     0  6.008943462E+01  1.112896123E+02  3.304513690E+01  1.808676285E+02  1.250000000E+02  0.00000E+00  9.000E+00
      21     1     1     2   511   501 -6.910226705E+01  1.844896887E+01  7.325984539E+00  7.189685538E+01  1.762121379E-06  0.00000E+00  9.000E+00
#rwgt            1           1   4.1285530036937725E-002           6      142255           0
</event>
<event>
      5   9999  3.79277E-02  2.85709E+01 -1.00000E+00  1.54527E-01
      21    -1     0     0   512   501  0.000000000E+00  0.000000000E+00  3.375294860E+02  3.375294860E+02  0.000000000E+00  0.00000E+00  9.000E+00
      21    -1     0     0   501   502  0.000000000E+00  0.000000000E+00 -2.443848052E+02  2.443848052E+02  0.000000000E+00  0.00000E+00  9.000E+00
      25     1     1     2     0     0  9.403814017E+01 -8.456983570E+01 -1.209780103E+02  2.150718668E+02  1.250000000E+02  0.00000E+00  9.000E+00
      25     1     1     2     0     0 -7.401793419E+01  1.049533180E+02  3.145858193E+01  1.819574014E+02  1.250000000E+02  0.00000E+00  9.000E+00
      21     1     1     2   512   502 -2.002020598E+01 -2.038348229E+01  1.826641091E+02  1.848850231E+02  0.000000000E+00  0.00000E+00  9.000E+00
#rwgt            1           1   2.7733114469998738E-002           6      142325           0
</event>
<event>
      5   9999  3.79277E-02  6.21309E+01 -1.00000E+00  1.33898E-01
      21    -1     0     0   502   501  0.000000000E+00  0.000000000E+00  2.550449225E+03  2.550449225E+03  0.000000000E+00  0.00000E+00  9.000E+00
      21    -1     0     0   501   511  0.000000000E+00  0.000000000E+00 -8.320331156E+01  8.320331156E+01  0.000000000E+00  0.00000E+00  9.000E+00
      25     1     1     2     0     0  2.415002097E+01  6.614740246E+00  2.233725506E+03  2.237360412E+03  1.250000000E+02  0.00000E+00  9.000E+00
      25     1     1     2     0     0  1.120179674E+01 -5.770776010E+01  2.842797456E+02  3.160627146E+02  1.250000000E+02  0.00000E+00  9.000E+00
      21     1     1     2   502   511 -3.535181771E+01  5.109301985E+01 -5.075933842E+01  8.022940938E+01  2.236564522E-06  0.00000E+00  9.000E+00
#rwgt            1           1   7.7971717804962523E-002           6      142502           0
</event>
<event>
      5   9999  3.79277E-02  5.34171E+01 -1.00000E+00  1.37457E-01
      21    -1     0     0   512   501  0.000000000E+00  0.000000000E+00  1.417761179E+03  1.417761179E+03  0.000000000E+00  0.00000E+00  9.000E+00
      21    -1     0     0   501   502  0.000000000E+00  0.000000000E+00 -4.454919472E+01  4.454919472E+01  0.000000000E+00  0.00000E+00  9.000E+00
      25     1     1     2     0     0  1.004047752E+02  1.009933244E+02  2.734014816E+02  3.326471713E+02  1.250000000E+02  0.00000E+00  9.000E+00
      25     1     1     2     0     0 -6.473724820E+01 -1.407578720E+02  9.494836158E+02  9.701277372E+02  1.250000000E+02  0.00000E+00  9.000E+00
      21     1     1     2   512   502 -3.566752702E+01  3.976454758E+01  1.503268867E+02  1.595354650E+02  1.907348633E-06  0.00000E+00  9.000E+00
#rwgt            1           1   5.9331176080503215E-002           6      142657           0
</event>
<event>
      5   9999  3.79277E-02  9.00711E+01 -1.00000E+00  1.25906E-01
      21    -1     0     0   502   501  0.000000000E+00  0.000000000E+00  1.425004109E+03  1.425004109E+03  0.000000000E+00  0.00000E+00  9.000E+00
       2    -1     0     0   501     0  0.000000000E+00  0.000000000E+00 -8.077100590E+01  8.077100590E+01  0.000000000E+00  0.00000E+00  9.000E+00
      25     1     1     2     0     0 -6.976285308E+01  3.633952795E+01  1.233714848E+03  1.242523538E+03  1.250000000E+02  0.00000E+00  9.000E+00
      25     1     1     2     0     0  4.865544268E+01  5.122353063E+01  4.055645679E+01  1.492013015E+02  1.250000000E+02  0.00000E+00  9.000E+00
       2     1     1     2   502     0  2.110741040E+01 -8.756305858E+01  6.996179803E+01  1.140502748E+02  1.348699152E-06  0.00000E+00  9.000E+00
#rwgt            1           1   3.1381900984692152E-002           6      142766           0
</event>
<event>
      5   9999  3.79277E-02  1.09516E+01 -1.00000E+00  1.91302E-01
      21    -1     0     0   502   511  0.000000000E+00  0.000000000E+00  2.443781434E+02  2.443781434E+02  0.000000000E+00  0.00000E+00  9.000E+00
      21    -1     0     0   501   502  0.000000000E+00  0.000000000E+00 -1.169575233E+02  1.169575233E+02  0.000000000E+00  0.00000E+00  9.000E+00
      25     1     1     2     0     0 -8.254882498E+01 -2.656358431E+00 -1.033492268E+01  1.501771466E+02  1.250000000E+02  0.00000E+00  9.000E+00
      25     1     1     2     0     0  8.010821174E+01  1.333255846E+01  1.291510876E+02  1.972310476E+02  1.250000000E+02  0.00000E+00  9.000E+00
      21     1     1     2   501   511  2.440613240E+00 -1.067620003E+01  8.604455283E+00  1.392747252E+01  1.192092896E-07  0.00000E+00  9.000E+00
#rwgt            1           1   5.1839400218833105E-002           6      142853           0
</event>
<event>
      5   9999  3.79277E-02  8.16900E+01 -1.00000E+00  1.27912E-01
      21    -1     0     0   502   501  0.000000000E+00  0.000000000E+00  9.776692416E+02  9.776692416E+02  0.000000000E+00  0.00000E+00  9.000E+00
      21    -1     0     0   512   502  0.000000000E+00  0.000000000E+00 -1.036060357E+02  1.036060357E+02  0.000000000E+00  0.00000E+00  9.000E+00
      25     1     1     2     0     0  1.059042873E+02  1.409297167E+01  2.575921553E+02  3.056027624E+02  1.250000000E+02  0.00000E+00  9.000E+00
      25     1     1     2     0     0 -1.168445651E+02  6.686109896E+01  6.586125051E+02  6.837532383E+02  1.250000000E+02  0.00000E+00  9.000E+00
      21     1     1     2   512   501  1.094027777E+01 -8.095407063E+01 -4.214145455E+01  9.191927666E+01  1.784161275E-06  0.00000E+00  9.000E+00
#rwgt            1           1   5.1457833374461734E-002           6      143048           0
</event>
<event>
      5   9999  3.79277E-02  9.28072E+01 -1.00000E+00  1.25304E-01
      21    -1     0     0   502   501  0.000000000E+00  0.000000000E+00  5.967961993E+02  5.967961993E+02  0.000000000E+00  0.00000E+00  9.000E+00
      21    -1     0     0   511   502  0.000000000E+00  0.000000000E+00 -8.419592243E+02  8.419592243E+02  0.000000000E+00  0.00000E+00  9.000E+00
      25     1     1     2     0     0 -1.165103849E+01  3.575278708E+02  2.571115735E+02  4.579227951E+02  1.250000000E+02  0.00000E+00  9.000E+00
      25     1     1     2     0     0  4.775152306E+01 -2.720297387E+02  1.385525752E+02  3.333199706E+02  1.250000000E+02  0.00000E+00  9.000E+00
      21     1     1     2   511   501 -3.610048457E+01 -8.549813201E+01 -6.408271737E+02  6.475126578E+02  7.629394531E-06  0.00000E+00  9.000E+00
#rwgt            1           1  0.14475211355942053                6      143159           0
</event>
<event>
      5   9999 -3.90890E-02  3.03863E+01 -1.00000E+00  1.52655E-01
      21    -1     0     0   502   501  0.000000000E+00  0.000000000E+00  6.017888533E+01  6.017888533E+01  0.000000000E+00  0.00000E+00  9.000E+00
      21    -1     0     0   501   512  0.000000000E+00  0.000000000E+00 -1.316282202E+03  1.316282202E+03  0.000000000E+00  0.00000E+00  9.000E+00
      25     1     1     2     0     0  1.415858261E+02  1.145620019E+02 -2.599301250E+02  3.411153299E+02  1.250000000E+02  0.00000E+00  9.000E+00
      25     1     1     2     0     0 -1.682221520E+02 -9.993898946E+01 -6.975059769E+02  7.351367776E+02  1.250000000E+02  0.00000E+00  9.000E+00
      21     1     1     2   502   512  2.663632585E+01 -1.462301245E+01 -2.986672151E+02  3.002089801E+02  0.000000000E+00  0.00000E+00  9.000E+00
#rwgt            1           1 -0.29570395761731599                6      143278           0
</event>
<event>
      5   9999  3.79277E-02  8.29157E+01 -1.00000E+00  1.27601E-01
      21    -1     0     0   502   501  0.000000000E+00  0.000000000E+00  1.338986041E+02  1.338986041E+02  0.000000000E+00  0.00000E+00  9.000E+00
      21    -1     0     0   501   511  0.000000000E+00  0.000000000E+00 -1.593340075E+03  1.593340075E+03  0.000000000E+00  0.00000E+00  9.000E+00
      25     1     1     2     0     0  1.694426569E+02  2.119078632E+02 -1.819751273E+02  3.497938013E+02  1.250000000E+02  0.00000E+00  9.000E+00
      25     1     1     2     0     0 -1.519881093E+02 -1.308501922E+02 -2.405239127E+02  3.371926908E+02  1.250000000E+02  0.00000E+00  9.000E+00
      21     1     1     2   502   511 -1.745454760E+01 -8.105767106E+01 -1.036942431E+03  1.040252187E+03  1.525878906E-05  0.00000E+00  9.000E+00
#rwgt            1           1   3.5090249788478065E-002           6      143539           0
</event>
<event>
      5   9999  3.79277E-02  3.62640E+01 -1.00000E+00  1.47532E-01
      21    -1     0     0   512   501  0.000000000E+00  0.000000000E+00  8.840427388E+02  8.840427388E+02  0.000000000E+00  0.00000E+00  9.000E+00
      21    -1     0     0   501   502  0.000000000E+00  0.000000000E+00 -8.512519459E+01  8.512519459E+01  0.000000000E+00  0.00000E+00  9.000E+00
      25     1     1     2     0     0 -7.240798090E+01 -1.778715815E+02  4.510928253E+02  5.059554845E+02  1.250000000E+02  0.00000E+00  9.000E+00
      25     1     1     2     0     0  1.086190387E+02  1.759134651E+02  2.081175595E+02  3.188754636E+02  1.250000000E+02  0.00000E+00  9.000E+00
      21     1     1     2   512   502 -3.621105779E+01  1.958116488E+00  1.397071594E+02  1.443369853E+02  0.000000000E+00  0.00000E+00  9.000E+00
#rwgt            1           1   4.0647430586661766E-002           6      143672           0
</event>
<event>
      5   9999  3.79277E-02  4.89777E+00 -1.00000E+00  2.44335E-01
      21    -1     0     0   502   501  0.000000000E+00  0.000000000E+00  1.668460610E+03  1.668460610E+03  0.000000000E+00  0.00000E+00  9.000E+00
      21    -1     0     0   511   502  0.000000000E+00  0.000000000E+00 -4.376795387E+02  4.376795387E+02  0.000000000E+00  0.00000E+00  9.000E+00
      25     1     1     2     0     0  1.391488763E+02  4.372742406E+01  1.278483147E+03  1.292833576E+03  1.250000000E+02  0.00000E+00  9.000E+00
      25     1     1     2     0     0 -1.346604503E+02 -4.568757976E+01  3.593764923E+02  4.061985414E+02  1.250000000E+02  0.00000E+00  9.000E+00
      21     1     1     2   511   501 -4.488425985E+00  1.960155706E+00 -4.070785684E+02  4.071080311E+02  5.394796609E-06  0.00000E+00  9.000E+00
#rwgt            1           1   5.3240774839325607E-002           6      143831           0
</event>
<event>
      5   9999  3.79277E-02  6.61188E+01 -1.00000E+00  1.32488E-01
      21    -1     0     0   502   501  0.000000000E+00  0.000000000E+00  4.703809119E+01  4.703809119E+01  0.000000000E+00  0.00000E+00  9.000E+00
       2    -1     0     0   501     0  0.000000000E+00  0.000000000E+00 -1.331154697E+03  1.331154697E+03  0.000000000E+00  0.00000E+00  9.000E+00
      25     1     1     2     0     0 -6.431232478E+01 -6.801140426E+01 -1.737092703E+02  2.335841108E+02  1.250000000E+02  0.00000E+00  9.000E+00
      25     1     1     2     0     0  1.302386922E+02  6.297040676E+01 -5.946053639E+02  6.245862053E+02  1.250000000E+02  0.00000E+00  9.000E+00
       2     1     1     2   502     0 -6.592636740E+01  5.040997493E+00 -5.158019715E+02  5.200224720E+02  0.000000000E+00  0.00000E+00  9.000E+00
#rwgt            1           1   9.4402415869031336E-002           6      144363           0
</event>
<event>
      5   9999  3.79277E-02  8.22799E+01 -1.00000E+00  1.27762E-01
      21    -1     0     0   502   511  0.000000000E+00  0.000000000E+00  6.342782730E+02  6.342782730E+02  0.000000000E+00  0.00000E+00  9.000E+00
      21    -1     0     0   501   502  0.000000000E+00  0.000000000E+00 -4.035572757E+02  4.035572757E+02  0.000000000E+00  0.00000E+00  9.000E+00
      25     1     1     2     0     0 -1.304352870E+01  1.959282341E+01 -3.491357890E+02  3.715841917E+02  1.250000000E+02  0.00000E+00  9.000E+00
      25     1     1     2     0     0 -5.695696095E+01 -6.283528135E+01  1.041447945E+02  1.834761734E+02  1.250000000E+02  0.00000E+00  9.000E+00
      21     1     1     2   501   511  7.000048965E+01  4.324245794E+01  4.757119918E+02  4.827751836E+02  0.000000000E+00  0.00000E+00  9.000E+00
#rwgt            1           1   4.3907532803147367E-002           6      144414           0
</event>
<event>
      5   9999  3.79277E-02  1.16925E+02 -1.00000E+00  1.20849E-01
      21    -1     0     0   512   501  0.000000000E+00  0.000000000E+00  5.291977603E+02  5.291977603E+02  0.000000000E+00  0.00000E+00  9.000E+00
      21    -1     0     0   501   502  0.000000000E+00  0.000000000E+00 -1.899116934E+02  1.899116934E+02  0.000000000E+00  0.00000E+00  9.000E+00
      25     1     1     2     0     0 -4.757204018E+00  2.044433610E+02  2.421322361E+01  2.408962413E+02  1.250000000E+02  0.00000E+00  9.000E+00
      25     1     1     2     0     0 -1.069504983E+02 -1.699044175E+02  1.668822046E+02  2.894487699E+02  1.250000000E+02  0.00000E+00  9.000E+00
      21     1     1     2   512   502  1.117077023E+02 -3.453894357E+01  1.481906387E+02  1.887644426E+02  2.697398305E-06  0.00000E+00  9.000E+00
#rwgt            1           1   8.6357567044382855E-002           6      144531           0
</event>
<event>
      5   9999  3.79277E-02  2.71709E+01 -1.00000E+00  1.56089E-01
      21    -1     0     0   502   511  0.000000000E+00  0.000000000E+00  1.140067177E+02  1.140067177E+02  0.000000000E+00  0.00000E+00  9.000E+00
      21    -1     0     0   501   502  0.000000000E+00  0.000000000E+00 -6.332502583E+02  6.332502583E+02  0.000000000E+00  0.00000E+00  9.000E+00
      25     1     1     2     0     0  1.110086756E+02 -1.589226913E+02 -4.027947969E+02  4.641637602E+02  1.250000000E+02  0.00000E+00  9.000E+00
      25     1     1     2     0     0 -8.486637096E+01  1.663279985E+02 -1.215107007E+02  2.554547991E+02  1.250000000E+02  0.00000E+00  9.000E+00
      21     1     1     2   501   511 -2.614230469E+01 -7.405307255E+00  5.061957018E+00  2.763841672E+01  1.976862425E-07  0.00000E+00  9.000E+00
#rwgt            1           1   3.4241286969256546E-002           6      144734           0
</event>
<event>
      5   9999  3.79277E-02  2.77531E+01 -1.00000E+00  1.55426E-01
       3    -1     0     0   502     0  0.000000000E+00  0.000000000E+00  3.067429118E+02  3.067429118E+02  0.000000000E+00  0.00000E+00  9.000E+00
      21    -1     0     0   501   502  0.000000000E+00  0.000000000E+00 -6.205794073E+02  6.205794073E+02  0.000000000E+00  0.00000E+00  9.000E+00
      25     1     1     2     0     0 -6.728246048E+00  2.094282549E+02 -2.395941034E+02  3.419587660E+02  1.250000000E+02  0.00000E+00  9.000E+00
      25     1     1     2     0     0 -1.361024267E+01 -2.283115940E+02 -2.772130559E+02  3.805042721E+02  1.250000000E+02  0.00000E+00  9.000E+00
       3     1     1     2   501     0  2.033848871E+01  1.888333911E+01  2.029706639E+02  2.048592810E+02  2.697398305E-06  0.00000E+00  9.000E+00
#rwgt            1           1   2.6106085110740269E-002           6      144864           0
</event>
<event>
      5   9999  3.79277E-02  2.65291E+01 -1.00000E+00  1.56844E-01
       2    -1     0     0   502     0  0.000000000E+00  0.000000000E+00  1.595583996E+03  1.595583996E+03  0.000000000E+00  0.00000E+00  9.000E+00
      21    -1     0     0   501   502  0.000000000E+00  0.000000000E+00 -2.278850046E+01  2.278850046E+01  0.000000000E+00  0.00000E+00  9.000E+00
      25     1     1     2     0     0  4.644690632E+01  6.447637281E+00  2.492845290E+02  2.827837752E+02  1.250000000E+02  0.00000E+00  9.000E+00
      25     1     1     2     0     0 -4.912174151E+01 -3.284151205E+01  8.359766382E+02  8.473331399E+02  1.250000000E+02  0.00000E+00  9.000E+00
       2     1     1     2   501     0  2.674835188E+00  2.639387477E+01  4.875343281E+02  4.882555811E+02  9.344061824E-06  0.00000E+00  9.000E+00
#rwgt            1           1   7.3708217226042302E-002           6      145005           0
</event>
<event>
      5   9999  3.79277E-02  1.69214E+01 -1.00000E+00  1.72590E-01
      21    -1     0     0   502   511  0.000000000E+00  0.000000000E+00  1.477598115E+02  1.477598115E+02  0.000000000E+00  0.00000E+00  9.000E+00
      21    -1     0     0   501   502  0.000000000E+00  0.000000000E+00 -1.679055300E+03  1.679055300E+03  0.000000000E+00  0.00000E+00  9.000E+00
      25     1     1     2     0     0 -8.422668270E+01 -3.191598056E+01 -3.351578017E+02  3.688746615E+02  1.250000000E+02  0.00000E+00  9.000E+00
      25     1     1     2     0     0  8.774141812E+01  4.846831228E+01 -1.321632691E+03  1.331309770E+03  1.250000000E+02  0.00000E+00  9.000E+00
      21     1     1     2   501   511 -3.514735419E+00 -1.655233172E+01  1.254950042E+02  1.266306800E+02  2.697398305E-06  0.00000E+00  9.000E+00
#rwgt            1           1   3.5229122790889120E-002           6      145119           0
</event>
<event>
      5   9999  3.79277E-02  3.23365E+01 -1.00000E+00  1.50811E-01
      21    -1     0     0   502   501  0.000000000E+00  0.000000000E+00  3.634905423E+02  3.634905423E+02  0.000000000E+00  0.00000E+00  9.000E+00
      21    -1     0     0   512   502  0.000000000E+00  0.000000000E+00 -6.135655927E+02  6.135655927E+02  0.000000000E+00  0.00000E+00  9.000E+00
      25     1     1     2     0     0  3.050576960E+02 -1.856500470E+02 -1.251681110E+02  3.985200043E+02  1.250000000E+02  0.00000E+00  9.000E+00
      25     1     1     2     0     0 -3.366434247E+02  1.925776871E+02  4.097203418E+01  4.095346977E+02  1.250000000E+02  0.00000E+00  9.000E+00
      21     1     1     2   512   501  3.158572872E+01 -6.927640139E+00 -1.658789736E+02  1.690014330E+02  0.000000000E+00  0.00000E+00  9.000E+00
#rwgt            1           1   3.5766252981750152E-002           6      145364           0
</event>
<event>
      5   9999  3.79277E-02  1.17020E+02 -1.00000E+00  1.20834E-01
      21    -1     0     0   511   501  0.000000000E+00  0.000000000E+00  9.496137179E+02  9.496137179E+02  0.000000000E+00  0.00000E+00  9.000E+00
      21    -1     0     0   501   502  0.000000000E+00  0.000000000E+00 -2.184924457E+02  2.184924457E+02  0.000000000E+00  0.00000E+00  9.000E+00
      25     1     1     2     0     0  1.632009751E+02 -1.117166068E+02  5.840176466E+02  6.291397063E+02  1.250000000E+02  0.00000E+00  9.000E+00
      25     1     1     2     0     0 -1.697608803E+02  2.285527571E+02 -4.485337207E+01  3.141527403E+02  1.250000000E+02  0.00000E+00  9.000E+00
      21     1     1     2   511   502  6.559905191E+00 -1.168361503E+02  1.919569977E+02  2.248137170E+02  3.814697266E-06  0.00000E+00  9.000E+00
#rwgt            1           1   3.1348276049221309E-002           6      145616           0
</event>
<event>
      5   9999  3.79277E-02  1.17290E+01 -1.00000E+00  1.88077E-01
      21    -1     0     0   502   512  0.000000000E+00  0.000000000E+00  1.008184440E+02  1.008184440E+02  0.000000000E+00  0.00000E+00  9.000E+00
      21    -1     0     0   501   502  0.000000000E+00  0.000000000E+00 -5.503806764E+02  5.503806764E+02  0.000000000E+00  0.00000E+00  9.000E+00
      25     1     1     2     0     0  2.391217778E+01 -1.611693484E+02 -3.291541575E+02  3.879623829E+02  1.250000000E+02  0.00000E+00  9.000E+00
      25     1     1     2     0     0 -2.356356747E+01  1.494454944E+02 -1.395355815E+02  2.407994518E+02  1.250000000E+02  0.00000E+00  9.000E+00
      21     1     1     2   501   512 -3.486103129E-01  1.172385403E+01  1.912750658E+01  2.243728572E+01  4.768371582E-07  0.00000E+00  9.000E+00
#rwgt            1           1   2.5824920290961256E-002           6      145680           0
</event>
<event>
      5   9999  3.79277E-02  1.54950E+02 -1.00000E+00  1.15838E-01
      21    -1     0     0   511   501  0.000000000E+00  0.000000000E+00  1.652631024E+02  1.652631024E+02  0.000000000E+00  0.00000E+00  9.000E+00
      21    -1     0     0   501   502  0.000000000E+00  0.000000000E+00 -8.521076988E+02  8.521076988E+02  0.000000000E+00  0.00000E+00  9.000E+00
      25     1     1     2     0     0  7.230002129E+01  1.645434758E+02  7.783629224E+00  2.190603419E+02  1.250000000E+02  0.00000E+00  9.000E+00
      25     1     1     2     0     0  5.982167935E+01 -8.359063873E+01 -5.888834427E+02  6.107165769E+02  1.250000000E+02  0.00000E+00  9.000E+00
      21     1     1     2   511   502 -1.321217006E+02 -8.095283707E+01 -1.057447829E+02  1.875938824E+02  5.878843310E-06  0.00000E+00  9.000E+00
#rwgt            1           1   3.8740607631298003E-002           6      145976           0
</event>
<event>
      5   9999  3.79277E-02  4.15574E+01 -1.00000E+00  1.43819E-01
      21    -1     0     0   502   512  0.000000000E+00  0.000000000E+00  5.079063045E+02  5.079063045E+02  0.000000000E+00  0.00000E+00  9.000E+00
      21    -1     0     0   501   502  0.000000000E+00  0.000000000E+00 -1.219988308E+02  1.219988308E+02  0.000000000E+00  0.00000E+00  9.000E+00
      25     1     1     2     0     0  4.119662426E+01 -7.940211077E+00 -6.056532901E+01  1.450977873E+02  1.250000000E+02  0.00000E+00  9.000E+00
      25     1     1     2     0     0 -6.305378377E+01  4.328535335E+01  3.657706754E+02  3.940337403E+02  1.250000000E+02  0.00000E+00  9.000E+00
      21     1     1     2   501   512  2.185715952E+01 -3.534514227E+01  8.070212727E+01  9.077360768E+01  0.000000000E+00  0.00000E+00  9.000E+00
#rwgt            1           1   3.9314314492334433E-002           6      146073           0
</event>
<event>
      5   9999  3.79277E-02  2.11347E+01 -1.00000E+00  1.64416E-01
      21    -1     0     0   502   501  0.000000000E+00  0.000000000E+00  1.895294117E+02  1.895294117E+02  0.000000000E+00  0.00000E+00  9.000E+00
      21    -1     0     0   501   511  0.000000000E+00  0.000000000E+00 -4.101300556E+02  4.101300556E+02  0.000000000E+00  0.00000E+00  9.000E+00
      25     1     1     2     0     0 -8.237348918E+01  2.044162867E+02 -5.320221008E+01  2.588955101E+02  1.250000000E+02  0.00000E+00  9.000E+00
      25     1     1     2     0     0  9.387589224E+01 -2.221467738E+02 -1.383490661E+02  3.048398536E+02  1.250000000E+02  0.00000E+00  9.000E+00
      21     1     1     2   502   511 -1.150240306E+01  1.773048709E+01 -2.904936779E+01  3.592410358E+01  4.768371582E-07  0.00000E+00  9.000E+00
#rwgt            1           1   3.3474731105437736E-002           6      146260           0
</event>
<event>
      5   9999  3.79277E-02  2.51558E+01 -1.00000E+00  1.58549E-01
      21    -1     0     0   512   501  0.000000000E+00  0.000000000E+00  1.176769196E+03  1.176769196E+03  0.000000000E+00  0.00000E+00  9.000E+00
      21    -1     0     0   501   502  0.000000000E+00  0.000000000E+00 -1.260258282E+02  1.260258282E+02  0.000000000E+00  0.00000E+00  9.000E+00
      25     1     1     2     0     0 -2.001593832E+01  2.093538649E+02  4.622812193E+02  5.230283016E+02  1.250000000E+02  0.00000E+00  9.000E+00
      25     1     1     2     0     0  2.449185157E+01 -1.845994597E+02  3.649959917E+01  2.272312304E+02  1.250000000E+02  0.00000E+00  9.000E+00
      21     1     1     2   512   502 -4.475913241E+00 -2.475440521E+01  5.519625496E+02  5.525354926E+02  1.321449896E-05  0.00000E+00  9.000E+00
#rwgt            1           1   3.9895412783175065E-002           6      146561           0
</event>
<event>
      5   9999  3.79277E-02  6.41229E+01 -1.00000E+00  1.33179E-01
      21    -1     0     0   502   501  0.000000000E+00  0.000000000E+00  4.806531486E+02  4.806531486E+02  0.000000000E+00  0.00000E+00  9.000E+00
      21    -1     0     0   501   511  0.000000000E+00  0.000000000E+00 -1.611835903E+02  1.611835903E+02  0.000000000E+00  0.00000E+00  9.000E+00
      25     1     1     2     0     0 -2.490900186E+01 -9.832113838E+01  4.079121897E+01  1.660615192E+02  1.250000000E+02  0.00000E+00  9.000E+00
      25     1     1     2     0     0 -1.243798703E+01  4.619680086E+01  3.530548898E+02  3.775733083E+02  1.250000000E+02  0.00000E+00  9.000E+00
      21     1     1     2   502   511  3.734698890E+01  5.212433752E+01 -7.437655046E+01  9.820191139E+01  1.651812370E-06  0.00000E+00  9.000E+00
#rwgt            1           1   4.2735829453976519E-002           6      146749           0
</event>
<event>
      5   9999  3.79277E-02  1.61605E+02 -1.00000E+00  1.15125E-01
      21    -1     0     0   502   501  0.000000000E+00  0.000000000E+00  5.141576975E+02  5.141576975E+02  0.000000000E+00  0.00000E+00  9.000E+00
      21    -1     0     0   501   512  0.000000000E+00  0.000000000E+00 -3.270050940E+02  3.270050940E+02  0.000000000E+00  0.00000E+00  9.000E+00
      25     1     1     2     0     0 -1.132487206E+01  1.598690014E+01  3.502115913E+02  3.723667445E+02  1.250000000E+02  0.00000E+00  9.000E+00
      25     1     1     2     0     0 -8.457928928E+01 -1.460582020E+02  3.526405896E+01  2.129676229E+02  1.250000000E+02  0.00000E+00  9.000E+00
      21     1     1     2   502   512  9.590416133E+01  1.300713019E+02 -1.983230468E+02  2.558284242E+02  4.672030912E-06  0.00000E+00  9.000E+00
#rwgt            1           1   4.9332066448699516E-002           6      146832           0
</event>
<event>
      5   9999  3.79277E-02  1.58712E+02 -1.00000E+00  1.15430E-01
      21    -1     0     0   502   501  0.000000000E+00  0.000000000E+00  6.031975754E+02  6.031975754E+02  0.000000000E+00  0.00000E+00  9.000E+00
      21    -1     0     0   501   511  0.000000000E+00  0.000000000E+00 -2.185104640E+02  2.185104640E+02  0.000000000E+00  0.00000E+00  9.000E+00
      25     1     1     2     0     0  2.445402248E+01 -1.676163016E+02  7.017701693E+01  2.219077229E+02  1.250000000E+02  0.00000E+00  9.000E+00
      25     1     1     2     0     0 -5.655071397E+01  3.230488360E+02  2.340689402E+02  4.218670436E+02  1.250000000E+02  0.00000E+00  9.000E+00
      21     1     1     2   502   511  3.209669149E+01 -1.554325343E+02  8.044115429E+01  1.779332730E+02  2.336015456E-06  0.00000E+00  9.000E+00
#rwgt            1           1   3.4447772318769013E-002           6      146972           0
</event>
<event>
      5   9999  3.79277E-02  3.00561E+01 -1.00000E+00  1.52983E-01
      21    -1     0     0   502   501  0.000000000E+00  0.000000000E+00  6.850648235E+01  6.850648235E+01  0.000000000E+00  0.00000E+00  9.000E+00
      21    -1     0     0   501   512  0.000000000E+00  0.000000000E+00 -1.631284060E+03  1.631284060E+03  0.000000000E+00  0.00000E+00  9.000E+00
      25     1     1     2     0     0  1.681758197E+02 -2.378605916E+02 -9.688799424E+02  1.019418516E+03  1.250000000E+02  0.00000E+00  9.000E+00
      25     1     1     2     0     0 -1.752277839E+02  2.086434912E+02 -5.142718221E+02  5.952624544E+02  1.250000000E+02  0.00000E+00  9.000E+00
      21     1     1     2   502   512  7.051964204E+00  2.921710045E+01 -7.962581277E+01  8.510957183E+01  9.536743164E-07  0.00000E+00  9.000E+00
#rwgt            1           1   4.1081662997984020E-002           6      147193           0
</event>
<event>
      5   9999  3.79277E-02  9.03407E+01 -1.00000E+00  1.25845E-01
      21    -1     0     0   502   501  0.000000000E+00  0.000000000E+00  1.181849907E+02  1.181849907E+02  0.000000000E+00  0.00000E+00  9.000E+00
      21    -1     0     0   501   511  0.000000000E+00  0.000000000E+00 -1.076880733E+03  1.076880733E+03  0.000000000E+00  0.00000E+00  9.000E+00
      25     1     1     2     0     0  1.675735757E+02 -2.964569260E+01 -3.046511205E+02  3.706711151E+02  1.250000000E+02  0.00000E+00  9.000E+00
      25     1     1     2     0     0 -1.383022510E+02  1.151128122E+02 -6.510362635E+01  2.285649893E+02  1.250000000E+02  0.00000E+00  9.000E+00
      21     1     1     2   502   511 -2.927132465E+01 -8.546711964E+01 -5.889409954E+02  5.958296192E+02  7.629394531E-06  0.00000E+00  9.000E+00
#rwgt            1           1   5.6499318924164550E-002           6      147445           0
</event>
<event>
      5   9999  3.79277E-02  3.98226E+01 -1.00000E+00  1.44960E-01
      21    -1     0     0   502   512  0.000000000E+00  0.000000000E+00  2.765794735E+02  2.765794735E+02  0.000000000E+00  0.00000E+00  9.000E+00
      21    -1     0     0   501   502  0.000000000E+00  0.000000000E+00 -5.701261088E+02  5.701261088E+02  0.000000000E+00  0.00000E+00  9.000E+00
      25     1     1     2     0     0  1.396921961E+02 -9.564418773E+01 -1.153715228E+02  2.399943928E+02  1.250000000E+02  0.00000E+00  9.000E+00
      25     1     1     2     0     0 -1.369090565E+02  1.353693944E+02 -3.564900201E+02  4.240036523E+02  1.250000000E+02  0.00000E+00  9.000E+00
      21     1     1     2   501   512 -2.783139564E+00 -3.972520670E+01  1.783149076E+02  1.827075373E+02  0.000000000E+00  0.00000E+00  9.000E+00
#rwgt            1           1   3.9010529035476499E-002           6      147559           0
</event>
<event>
      5   9999  3.79277E-02  5.60596E+01 -1.00000E+00  1.36299E-01
      21    -1     0     0   502   501  0.000000000E+00  0.000000000E+00  3.575762568E+02  3.575762568E+02  0.000000000E+00  0.00000E+00  9.000E+00
      21    -1     0     0   511   502  0.000000000E+00  0.000000000E+00 -2.126106451E+02  2.126106451E+02  0.000000000E+00  0.00000E+00  9.000E+00
      25     1     1     2     0     0  6.896911187E+01  1.049949670E+02  2.772056510E+02  3.290116327E+02  1.250000000E+02  0.00000E+00  9.000E+00
      25     1     1     2     0     0 -5.435954181E+01 -5.087255729E+01 -9.144580119E+01  1.718438577E+02  1.250000000E+02  0.00000E+00  9.000E+00
      21     1     1     2   511   501 -1.460957005E+01 -5.412240971E+01 -4.079423802E+01  6.933141154E+01  1.168007728E-06  0.00000E+00  9.000E+00
#rwgt            1           1   2.6635142274315255E-002           6      147707           0
</event>
<event>
      5   9999  3.79277E-02  3.98691E+01 -1.00000E+00  1.44928E-01
      21    -1     0     0   502   501  0.000000000E+00  0.000000000E+00  2.904067860E+02  2.904067860E+02  0.000000000E+00  0.00000E+00  9.000E+00
      21    -1     0     0   501   512  0.000000000E+00  0.000000000E+00 -2.639663176E+02  2.639663176E+02  0.000000000E+00  0.00000E+00  9.000E+00
      25     1     1     2     0     0 -9.148583202E+01 -1.719857256E+01  2.237139229E+02  2.726506330E+02  1.250000000E+02  0.00000E+00  9.000E+00
      25     1     1     2     0     0  6.119004031E+01  4.311601021E+01 -1.927155264E+02  2.415936371E+02  1.250000000E+02  0.00000E+00  9.000E+00
      21     1     1     2   502   512  3.029579171E+01 -2.591743765E+01 -4.557928226E+00  4.012883352E+01  5.127385418E-07  0.00000E+00  9.000E+00
#rwgt            1           1   3.6783521837383884E-002           6      147871           0
</event>
<event>
      5   9999  3.79277E-02  3.32291E+01 -1.00000E+00  1.50019E-01
      21    -1     0     0   502   511  0.000000000E+00  0.000000000E+00  2.826489659E+02  2.826489659E+02  0.000000000E+00  0.00000E+00  9.000E+00
      21    -1     0     0   501   502  0.000000000E+00  0.000000000E+00 -6.902056102E+02  6.902056102E+02  0.000000000E+00  0.00000E+00  9.000E+00
      25     1     1     2     0     0  1.472885859E+02 -8.512975052E+01 -7.254426814E+00  2.112312209E+02  1.250000000E+02  0.00000E+00  9.000E+00
      25     1     1     2     0     0 -1.221364965E+02  6.341459750E+01 -5.643810731E+02  5.942135396E+02  1.250000000E+02  0.00000E+00  9.000E+00
      21     1     1     2   501   511 -2.515208946E+01  2.171515302E+01  1.640788557E+02  1.674098156E+02  2.697398305E-06  0.00000E+00  9.000E+00
#rwgt            1           1   3.6174514931296871E-002           6      148031           0
</event>
<event>
      5   9999  3.79277E-02  7.72178E+00 -1.00000E+00  2.09701E-01
      21    -1     0     0   512   501  0.000000000E+00  0.000000000E+00  1.288535002E+02  1.288535002E+02  0.000000000E+00  0.00000E+00  9.000E+00
      21    -1     0     0   501   502  0.000000000E+00  0.000000000E+00 -3.433935923E+02  3.433935923E+02  0.000000000E+00  0.00000E+00  9.000E+00
      25     1     1     2     0     0 -1.283028478E+02 -6.895103639E+01 -6.019791905E+01  2.011582850E+02  1.250000000E+02  0.00000E+00  9.000E+00
      25     1     1     2     0     0  1.243477795E+02  7.558303363E+01 -1.682617419E+02  2.551708820E+02  1.250000000E+02  0.00000E+00  9.000E+00
      21     1     1     2   512   502  3.955068362E+00 -6.631997235E+00  1.391956883E+01  1.591792542E+01  1.685873940E-07  0.00000E+00  9.000E+00
#rwgt            1           1   5.0926066288332544E-002           6      148206           0
</event>
<event>
      5   9999  3.79277E-02  7.00880E+01 -1.00000E+00  1.31193E-01
      21    -1     0     0   502   501  0.000000000E+00  0.000000000E+00  4.983624717E+01  4.983624717E+01  0.000000000E+00  0.00000E+00  9.000E+00
       2    -1     0     0   501     0  0.000000000E+00  0.000000000E+00 -2.721958354E+03  2.721958354E+03  0.000000000E+00  0.00000E+00  9.000E+00
      25     1     1     2     0     0  1.035568885E+01 -1.244057816E+02 -1.847091677E+02  2.555905229E+02  1.250000000E+02  0.00000E+00  9.000E+00
      25     1     1     2     0     0  4.479104282E+01  1.676627804E+02 -8.236320716E+02  8.509476099E+02  1.250000000E+02  0.00000E+00  9.000E+00
       2     1     1     2   502     0 -5.514673167E+01 -4.325699877E+01 -1.663780867E+03  1.665256468E+03  0.000000000E+00  0.00000E+00  9.000E+00
#rwgt            1           1   2.1270491714345745E-002           6      148506           0
</event>
<event>
      5   9999  3.79277E-02  1.90017E+01 -1.00000E+00  1.68225E-01
      21    -1     0     0   502   501  0.000000000E+00  0.000000000E+00  9.312746841E+01  9.312746841E+01  0.000000000E+00  0.00000E+00  9.000E+00
      21    -1     0     0   501   511  0.000000000E+00  0.000000000E+00 -3.721630685E+02  3.721630685E+02  0.000000000E+00  0.00000E+00  9.000E+00
      25     1     1     2     0     0 -1.438095236E+01  4.648180264E+01 -9.177529837E-01  1.341387790E+02  1.250000000E+02  0.00000E+00  9.000E+00
      25     1     1     2     0     0 -1.823418777E+00 -5.640563262E+01 -1.566412105E+02  2.081979565E+02  1.250000000E+02  0.00000E+00  9.000E+00
      21     1     1     2   502   511  1.620437114E+01  9.923829981E+00 -1.214766366E+02  1.229538014E+02  1.348699152E-06  0.00000E+00  9.000E+00
#rwgt            1           1  0.10658022565469041                6      148580           0
</event>
<event>
      5   9999  3.79277E-02  9.10749E+00 -1.00000E+00  2.00571E-01
       2    -1     0     0   502     0  0.000000000E+00  0.000000000E+00  3.458228226E+03  3.458228226E+03  0.000000000E+00  0.00000E+00  9.000E+00
      21    -1     0     0   501   502  0.000000000E+00  0.000000000E+00 -2.162721703E+01  2.162721703E+01  0.000000000E+00  0.00000E+00  9.000E+00
      25     1     1     2     0     0 -6.783473123E+01 -1.699101331E+02  7.966766275E+02  8.269157472E+02  1.250000000E+02  0.00000E+00  9.000E+00
      25     1     1     2     0     0  7.623905786E+01  1.734192137E+02  1.982039730E+03  1.994992007E+03  1.250000000E+02  0.00000E+00  9.000E+00
       2     1     1     2   501     0 -8.404326625E+00 -3.509080546E+00  6.578846516E+02  6.579476888E+02  7.629394531E-06  0.00000E+00  9.000E+00
#rwgt            1           1   5.9397734191346391E-002           6      148789           0
</event>
<event>
      5   9999  3.79277E-02  9.12856E+01 -1.00000E+00  1.25636E-01
      21    -1     0     0   511   501  0.000000000E+00  0.000000000E+00  3.244179734E+02  3.244179734E+02  0.000000000E+00  0.00000E+00  9.000E+00
      21    -1     0     0   501   502  0.000000000E+00  0.000000000E+00 -4.834979762E+02  4.834979762E+02  0.000000000E+00  0.00000E+00  9.000E+00
      25     1     1     2     0     0 -1.418728337E+02  7.345190969E+01 -5.269116405E+01  2.095815897E+02  1.250000000E+02  0.00000E+00  9.000E+00
      25     1     1     2     0     0  1.219627282E+02 -1.625397298E+02 -3.005818194E+02  3.837557830E+02  1.250000000E+02  0.00000E+00  9.000E+00
      21     1     1     2   511   502  1.991010546E+01  8.908782006E+01  1.941929806E+02  2.145785770E+02  0.000000000E+00  0.00000E+00  9.000E+00
#rwgt            1           1   7.3547587159312144E-002           6      149289           0
</event>
<event>
      5   9999  3.79277E-02  1.98082E+01 -1.00000E+00  1.66715E-01
      21    -1     0     0   502   512  0.000000000E+00  0.000000000E+00  3.899534778E+02  3.899534778E+02  0.000000000E+00  0.00000E+00  9.000E+00
      21    -1     0     0   501   502  0.000000000E+00  0.000000000E+00 -1.513320757E+02  1.513320757E+02  0.000000000E+00  0.00000E+00  9.000E+00
      25     1     1     2     0     0  1.739181867E+01  1.472677813E+02  2.787082015E+01  1.959389124E+02  1.250000000E+02  0.00000E+00  9.000E+00
      25     1     1     2     0     0 -3.043566503E+01 -1.621748799E+02  9.473967417E+01  2.276568190E+02  1.250000000E+02  0.00000E+00  9.000E+00
      21     1     1     2   501   512  1.304384636E+01  1.490709865E+01  1.160109078E+02  1.176898221E+02  0.000000000E+00  0.00000E+00  9.000E+00
#rwgt            1           1   3.5034199231430647E-002           6      149350           0
</event>
<event>
      5   9999  3.79277E-02  2.20949E+02 -1.00000E+00  1.10095E-01
      21    -1     0     0   502   501  0.000000000E+00  0.000000000E+00  3.456003072E+02  3.456003072E+02  0.000000000E+00  0.00000E+00  9.000E+00
      21    -1     0     0   501   511  0.000000000E+00  0.000000000E+00 -4.714688147E+02  4.714688147E+02  0.000000000E+00  0.00000E+00  9.000E+00
      25     1     1     2     0     0  7.202862272E+01 -4.738122535E+01  1.382393850E+02  2.053490457E+02  1.250000000E+02  0.00000E+00  9.000E+00
      25     1     1     2     0     0 -2.899367532E+02  1.085187713E+01 -8.462701781E+01  3.270593467E+02  1.250000000E+02  0.00000E+00  9.000E+00
      21     1     1     2   502   511  2.179081305E+02  3.652934822E+01 -1.794808746E+02  2.846607296E+02  3.303624740E-06  0.00000E+00  9.000E+00
#rwgt            1           1   2.5269313303947973E-002           6      149550           0
</event>
<event>
      5   9999  3.79277E-02  4.38755E+01 -1.00000E+00  1.42393E-01
       3    -1     0     0   502     0  0.000000000E+00  0.000000000E+00  2.804544894E+02  2.804544894E+02  0.000000000E+00  0.00000E+00  9.000E+00
      21    -1     0     0   501   502  0.000000000E+00  0.000000000E+00 -2.544741364E+02  2.544741364E+02  0.000000000E+00  0.00000E+00  9.000E+00
      25     1     1     2     0     0 -1.674569127E+02 -1.977948765E+01  4.314859777E+01  2.142891673E+02  1.250000000E+02  0.00000E+00  9.000E+00
      25     1     1     2     0     0  1.241265752E+02  1.288429802E+01 -1.168126311E+02  2.117630813E+02  1.250000000E+02  0.00000E+00  9.000E+00
       3     1     1     2   501     0  4.333033748E+01  6.895189630E+00  9.964438626E+01  1.088763771E+02  1.348699152E-06  0.00000E+00  9.000E+00
#rwgt            1           1   1.6601273937101486E-002           6      149662           0
</event>
<event>
      5   9999  3.79277E-02  5.21870E+01 -1.00000E+00  1.38023E-01
      21    -1     0     0   502   501  0.000000000E+00  0.000000000E+00  2.871837521E+02  2.871837521E+02  0.000000000E+00  0.00000E+00  9.000E+00
      21    -1     0     0   511   502  0.000000000E+00  0.000000000E+00 -2.331835240E+02  2.331835240E+02  0.000000000E+00  0.00000E+00  9.000E+00
      25     1     1     2     0     0  8.473816217E+01  1.252447880E+02  1.719745673E+02  2.608966555E+02  1.250000000E+02  0.00000E+00  9.000E+00
      25     1     1     2     0     0 -4.425566274E+01 -9.231078556E+01 -4.137534968E+01  1.667835855E+02  1.250000000E+02  0.00000E+00  9.000E+00
      21     1     1     2   511   501 -4.048249944E+01 -3.293400244E+01 -7.659898960E+01  9.268703515E+01  1.348699152E-06  0.00000E+00  9.000E+00
#rwgt            1           1   3.7393231785792964E-002           6      149856           0
</event>
<event>
      5   9999  3.79277E-02  3.45741E+01 -1.00000E+00  1.48879E-01
      21    -1     0     0   512   501  0.000000000E+00  0.000000000E+00  6.966007939E+01  6.966007939E+01  0.000000000E+00  0.00000E+00  9.000E+00
      21    -1     0     0   501   502  0.000000000E+00  0.000000000E+00 -9.598425646E+02  9.598425646E+02  0.000000000E+00  0.00000E+00  9.000E+00
      25     1     1     2     0     0  2.142538095E+01 -9.219765060E+01 -5.676287193E+02  5.888860813E+02  1.250000000E+02  0.00000E+00  9.000E+00
      25     1     1     2     0     0 -5.468454116E+01  1.016422281E+02 -3.547083186E+02  3.934012365E+02  1.250000000E+02  0.00000E+00  9.000E+00
      21     1     1     2   512   502  3.325916021E+01 -9.444577546E+00  3.215455263E+01  4.721532630E+01  6.743495762E-07  0.00000E+00  9.000E+00
#rwgt            1           1   3.4899317526863718E-002           6      149981           0
</event>
<event>
      5   9999  3.79277E-02  1.05548E+02 -1.00000E+00  1.22782E-01
      21    -1     0     0   502   501  0.000000000E+00  0.000000000E+00  6.829707505E+01  6.829707505E+01  0.000000000E+00  0.00000E+00  9.000E+00
       2    -1     0     0   501     0  0.000000000E+00  0.000000000E+00 -1.221640598E+03  1.221640598E+03  0.000000000E+00  0.00000E+00  9.000E+00
      25     1     1     2     0     0  1.168701171E+02 -2.787790335E+01 -2.013383232E+02  2.657026950E+02  1.250000000E+02  0.00000E+00  9.000E+00
      25     1     1     2     0     0 -1.283142626E+02 -7.704788821E+01 -2.641602204E+02  3.283390764E+02  1.250000000E+02  0.00000E+00  9.000E+00
       2     1     1     2   502     0  1.144414559E+01  1.049257916E+02 -6.878449791E+02  6.958959013E+02  1.321449896E-05  0.00000E+00  9.000E+00
#rwgt            1           1   3.3451483174938741E-002           6      150075           0
</event>
<event>
      5   9999  3.79277E-02  2.03635E+01 -1.00000E+00  1.65726E-01
      21    -1     0     0   502   501  0.000000000E+00  0.000000000E+00  2.910219565E+02  2.910219565E+02  0.000000000E+00  0.00000E+00  9.000E+00
      21    -1     0     0   511   502  0.000000000E+00  0.000000000E+00 -1.687550113E+02  1.687550113E+02  0.000000000E+00  0.00000E+00  9.000E+00
      25     1     1     2     0     0  1.143634761E+02  8.554606519E+01  1.272539362E+02  2.285075452E+02  1.250000000E+02  0.00000E+00  9.000E+00
      25     1     1     2     0     0 -1.236310651E+02 -1.036784231E+02  1.241639415E+01  2.044823282E+02  1.250000000E+02  0.00000E+00  9.000E+00
      21     1     1     2   511   501  9.267589029E+00  1.813235792E+01 -1.740338522E+01  2.678709442E+01  6.307962682E-07  0.00000E+00  9.000E+00
#rwgt            1           1   3.7071336190847695E-002           6      150162           0
</event>
<event>
      5   9999  3.79277E-02  5.36936E+01 -1.00000E+00  1.37332E-01
      21    -1     0     0   502   501  0.000000000E+00  0.000000000E+00  3.935639395E+02  3.935639395E+02  0.000000000E+00  0.00000E+00  9.000E+00
      21    -1     0     0   512   502  0.000000000E+00  0.000000000E+00 -8.945218613E+02  8.945218613E+02  0.000000000E+00  0.00000E+00  9.000E+00
      25     1     1     2     0     0 -7.844001877E+01  1.782097213E+01 -2.064454177E+01  1.500720517E+02  1.250000000E+02  0.00000E+00  9.000E+00
      25     1     1     2     0     0  2.511555769E+01 -2.410607126E+01  3.151099459E+02  3.407802399E+02  1.250000000E+02  0.00000E+00  9.000E+00
      21     1     1     2   512   501  5.332446108E+01  6.285099127E+00 -7.954233260E+02  7.972335092E+02  1.525878906E-05  0.00000E+00  9.000E+00
#rwgt            1           1   4.3541332601502052E-002           6      150306           0
</event>
<event>
      5   9999  3.79277E-02  2.48988E+01 -1.00000E+00  1.58883E-01
      21    -1     0     0   511   501  0.000000000E+00  0.000000000E+00  9.706527350E+01  9.706527350E+01  0.000000000E+00  0.00000E+00  9.000E+00
      21    -1     0     0   501   502  0.000000000E+00  0.000000000E+00 -8.815194607E+02  8.815194607E+02  0.000000000E+00  0.00000E+00  9.000E+00
      25     1     1     2     0     0 -2.026948038E+02 -8.221995881E+01 -4.714686198E+02  5.345586634E+02  1.250000000E+02  0.00000E+00  9.000E+00
      25     1     1     2     0     0  2.132219663E+02  5.965608242E+01 -3.279562273E+02  4.149731824E+02  1.250000000E+02  0.00000E+00  9.000E+00
      21     1     1     2   511   502 -1.052716256E+01  2.256387639E+01  1.497065990E+01  2.905288845E+01  6.307962682E-07  0.00000E+00  9.000E+00
#rwgt            1           1  0.18077967893779803                6      150420           0
</event>
<event>
      5   9999  3.79277E-02  8.91382E+01 -1.00000E+00  1.26116E-01
      21    -1     0     0   502   501  0.000000000E+00  0.000000000E+00  3.327658586E+02  3.327658586E+02  0.000000000E+00  0.00000E+00  9.000E+00
      21    -1     0     0   512   502  0.000000000E+00  0.000000000E+00 -7.182082245E+02  7.182082245E+02  0.000000000E+00  0.00000E+00  9.000E+00
      25     1     1     2     0     0  1.619076518E+01  1.833457985E+02  2.682220182E+02  3.484908518E+02  1.250000000E+02  0.00000E+00  9.000E+00
      25     1     1     2     0     0 -1.120809248E+01 -9.434700266E+01 -3.106212993E+02  3.480482291E+02  1.250000000E+02  0.00000E+00  9.000E+00
      21     1     1     2   512   501 -4.982672708E+00 -8.899879582E+01 -3.430430849E+02  3.544350022E+02  3.814697266E-06  0.00000E+00  9.000E+00
#rwgt            2          11   1.1389422084862116E-003           6      150798           0
</event>
<event>
      5   9999  3.79277E-02  5.61641E+01 -1.00000E+00  1.36255E-01
      21    -1     0     0   502   511  0.000000000E+00  0.000000000E+00  2.885349745E+02  2.885349745E+02  0.000000000E+00  0.00000E+00  9.000E+00
      21    -1     0     0   501   502  0.000000000E+00  0.000000000E+00 -2.680409590E+02  2.680409590E+02  0.000000000E+00  0.00000E+00  9.000E+00
      25     1     1     2     0     0  1.306007998E+02 -9.156474773E+01 -1.391258402E+02  2.458082003E+02  1.250000000E+02  0.00000E+00  9.000E+00
      25     1     1     2     0     0 -1.584022837E+02  4.276425696E+01  1.467679418E+02  2.531519186E+02  1.250000000E+02  0.00000E+00  9.000E+00
      21     1     1     2   501   511  2.780148386E+01  4.880049077E+01  1.285191388E+01  5.761581462E+01  8.259061849E-07  0.00000E+00  9.000E+00
#rwgt            1           1   4.6766083580223737E-002           6      150818           0
</event>
<event>
      5   9999  3.79277E-02  1.57574E+01 -1.00000E+00  1.75392E-01
      21    -1     0     0   502   501  0.000000000E+00  0.000000000E+00  7.058191301E+02  7.058191301E+02  0.000000000E+00  0.00000E+00  9.000E+00
      21    -1     0     0   501   512  0.000000000E+00  0.000000000E+00 -1.551493972E+02  1.551493972E+02  0.000000000E+00  0.00000E+00  9.000E+00
      25     1     1     2     0     0 -7.377741351E+01 -2.497970125E+02  1.467105525E+02  3.240225925E+02  1.250000000E+02  0.00000E+00  9.000E+00
      25     1     1     2     0     0  8.044226307E+01  2.640755126E+02  4.176940394E+02  5.160427740E+02  1.250000000E+02  0.00000E+00  9.000E+00
      21     1     1     2   502   512 -6.664849566E+00 -1.427850009E+01 -1.373485901E+01  2.090316093E+01  3.371747881E-07  0.00000E+00  9.000E+00
#rwgt            1           1   3.5478575140743658E-002           6      150890           0
</event>
<event>
      5   9999 -3.79277E-02  1.26635E+02 -1.00000E+00  1.19385E-01
      21    -1     0     0   502   501  0.000000000E+00  0.000000000E+00  1.309507898E+03  1.309507898E+03  0.000000000E+00  0.00000E+00  9.000E+00
       2    -1     0     0   501     0  0.000000000E+00  0.000000000E+00 -1.566657325E+03  1.566657325E+03  0.000000000E+00  0.00000E+00  9.000E+00
      25     1     1     2     0     0  5.482272454E+01 -1.335954138E+02  9.767239053E+02  9.952225143E+02  1.250000000E+02  0.00000E+00  9.000E+00
      25     1     1     2     0     0  4.481471597E+01  5.543714454E+01  3.048035432E+02  3.370635485E+02  1.250000000E+02  0.00000E+00  9.000E+00
       2     1     1     2   502     0 -9.963744051E+01  7.815826930E+01 -1.538676876E+03  1.543879161E+03  2.157918644E-05  0.00000E+00  9.000E+00
#rwgt            1           1  -4.9233635098623704E-002           6      151068           0
</event>
<event>
      5   9999  3.79277E-02  1.31250E+01 -1.00000E+00  1.83027E-01
      21    -1     0     0   502   511  0.000000000E+00  0.000000000E+00  1.030509970E+02  1.030509970E+02  0.000000000E+00  0.00000E+00  9.000E+00
      21    -1     0     0   501   502  0.000000000E+00  0.000000000E+00 -3.658750925E+02  3.658750925E+02  0.000000000E+00  0.00000E+00  9.000E+00
      25     1     1     2     0     0  6.613922070E+01 -6.531050342E+01 -9.530188073E+00  1.560630733E+02  1.250000000E+02  0.00000E+00  9.000E+00
      25     1     1     2     0     0 -6.196787497E+01  5.286605380E+01 -2.587231032E+02  2.986594738E+02  1.250000000E+02  0.00000E+00  9.000E+00
      21     1     1     2   501   511 -4.171345730E+00  1.244444962E+01  5.429195712E+00  1.420354243E+01  3.318646170E-07  0.00000E+00  9.000E+00
#rwgt            1           1   5.3440631507981798E-002           6      151249           0
</event>
<event>
      5   9999 -3.79277E-02  2.32548E+01 -1.00000E+00  1.61141E-01
      21    -1     0     0   502   501  0.000000000E+00  0.000000000E+00  3.973981165E+02  3.973981165E+02  0.000000000E+00  0.00000E+00  9.000E+00
      21    -1     0     0   501   512  0.000000000E+00  0.000000000E+00 -1.578054129E+02  1.578054129E+02  0.000000000E+00  0.00000E+00  9.000E+00
      25     1     1     2     0     0  6.849076386E+01 -1.512642660E+02  2.466531032E+02  3.225439756E+02  1.250000000E+02  0.00000E+00  9.000E+00
      25     1     1     2     0     0 -8.964481856E+01  1.416056033E+02 -3.304703076E+00  2.091034706E+02  1.250000000E+02  0.00000E+00  9.000E+00
      21     1     1     2   502   512  2.115405470E+01  9.658662728E+00 -3.755696427E+00  2.355608311E+01  2.384185791E-07  0.00000E+00  9.000E+00
#rwgt            1           1 -0.10432980814592176                6      151485           0
</event>
<event>
      5   9999  3.79277E-02  3.44440E+01 -1.00000E+00  1.48987E-01
      21    -1     0     0   502   501  0.000000000E+00  0.000000000E+00  5.277705092E+02  5.277705092E+02  0.000000000E+00  0.00000E+00  9.000E+00
      21    -1     0     0   511   502  0.000000000E+00  0.000000000E+00 -3.686496318E+02  3.686496318E+02  0.000000000E+00  0.00000E+00  9.000E+00
      25     1     1     2     0     0 -8.471743363E+01 -8.819892121E+00  4.626265750E+02  4.867270097E+02  1.250000000E+02  0.00000E+00  9.000E+00
      25     1     1     2     0     0  6.845265794E+01 -2.154203216E+01 -4.806064599E+01  1.519363394E+02  1.250000000E+02  0.00000E+00  9.000E+00
      21     1     1     2   511   501  1.626477569E+01  3.036192428E+01 -2.554450517E+02  2.577567919E+02  3.814697266E-06  0.00000E+00  9.000E+00
#rwgt            1           1   4.4442759349928689E-002           6      151719           0
</event>
<event>
      5   9999  3.79277E-02  4.48745E+01 -1.00000E+00  1.41810E-01
       3    -1     0     0   502     0  0.000000000E+00  0.000000000E+00  3.522409503E+02  3.522409503E+02  0.000000000E+00  0.00000E+00  9.000E+00
      21    -1     0     0   501   502  0.000000000E+00  0.000000000E+00 -2.649900640E+02  2.649900640E+02  0.000000000E+00  0.00000E+00  9.000E+00
      25     1     1     2     0     0 -1.803943292E+02 -2.875574038E+01 -2.475427818E+01  2.227257975E+02  1.250000000E+02  0.00000E+00  9.000E+00
      25     1     1     2     0     0  1.465607871E+02 -7.232320921E-01 -7.159328941E+01  2.055022785E+02  1.250000000E+02  0.00000E+00  9.000E+00
       3     1     1     2   501     0  3.383354201E+01  2.947897248E+01  1.835984539E+02  1.890029382E+02  2.697398305E-06  0.00000E+00  9.000E+00
#rwgt            1           1   3.4632915405039696E-002           6      151970           0
</event>
<event>
      5   9999  3.79277E-02  4.60114E+01 -1.00000E+00  1.41167E-01
      21    -1     0     0   502   501  0.000000000E+00  0.000000000E+00  1.634897473E+02  1.634897473E+02  0.000000000E+00  0.00000E+00  9.000E+00
      21    -1     0     0   501   511  0.000000000E+00  0.000000000E+00 -4.617126631E+02  4.617126631E+02  0.000000000E+00  0.00000E+00  9.000E+00
      25     1     1     2     0     0 -1.564226786E+02  3.803477179E+01 -4.482499142E+01  2.086839191E+02  1.250000000E+02  0.00000E+00  9.000E+00
      25     1     1     2     0     0  1.136643037E+02 -5.502809131E+01 -2.020779486E+01  1.788323789E+02  1.250000000E+02  0.00000E+00  9.000E+00
      21     1     1     2   502   511  4.275837490E+01  1.699331952E+01 -2.331901295E+02  2.376861124E+02  2.697398305E-06  0.00000E+00  9.000E+00
#rwgt            1           1   1.0335646674080261E-002           6      152077           0
</event>
<event>
      5   9999  3.79277E-02  8.28350E+01 -1.00000E+00  1.27622E-01
      21    -1     0     0   512   501  0.000000000E+00  0.000000000E+00  1.086011968E+02  1.086011968E+02  0.000000000E+00  0.00000E+00  9.000E+00
      21    -1     0     0   501   502  0.000000000E+00  0.000000000E+00 -6.066072975E+02  6.066072975E+02  0.000000000E+00  0.00000E+00  9.000E+00
      25     1     1     2     0     0  5.064753710E+01 -1.345449109E+01 -4.521271632E+02  4.720065339E+02  1.250000000E+02  0.00000E+00  9.000E+00
      25     1     1     2     0     0 -6.256049802E+01 -6.851935050E+01 -2.385322548E+01  1.574887097E+02  1.250000000E+02  0.00000E+00  9.000E+00
      21     1     1     2   512   502  1.191296091E+01  8.197384159E+01 -2.202571199E+01  8.571325062E+01  4.129530925E-07  0.00000E+00  9.000E+00
#rwgt            1           1   5.1713037705865654E-002           6      152233           0
</event>
<event>
      5   9999  3.79277E-02  5.10043E+01 -1.00000E+00  1.38585E-01
      21    -1     0     0   511   501  0.000000000E+00  0.000000000E+00  4.197202225E+02  4.197202225E+02  0.000000000E+00  0.00000E+00  9.000E+00
      21    -1     0     0   501   502  0.000000000E+00  0.000000000E+00 -4.442266260E+02  4.442266260E+02  0.000000000E+00  0.00000E+00  9.000E+00
      25     1     1     2     0     0  3.164120702E+01 -1.275357004E+02 -2.228471045E+02  2.873192525E+02  1.250000000E+02  0.00000E+00  9.000E+00
      25     1     1     2     0     0 -8.225082792E+01  1.338683453E+02 -1.333585042E+02  2.410299218E+02  1.250000000E+02  0.00000E+00  9.000E+00
      21     1     1     2   511   502  5.060962089E+01 -6.332644920E+00  3.316992053E+02  3.355976742E+02  3.814697266E-06  0.00000E+00  9.000E+00
#rwgt            1           1   4.2513039780305677E-002           6      152419           0
</event>
<event>
      5   9999  3.79277E-02  1.23205E+02 -1.00000E+00  1.19884E-01
      21    -1     0     0   502   501  0.000000000E+00  0.000000000E+00  2.682495822E+02  2.682495822E+02  0.000000000E+00  0.00000E+00  9.000E+00
      21    -1     0     0   512   502  0.000000000E+00  0.000000000E+00 -6.143168436E+02  6.143168436E+02  0.000000000E+00  0.00000E+00  9.000E+00
      25     1     1     2     0     0 -2.000140913E+02 -9.360614538E+01 -2.588477442E+02  3.624843470E+02  1.250000000E+02  0.00000E+00  9.000E+00
      25     1     1     2     0     0  2.961112751E+02  1.650342565E+01  6.076471485E+01  3.275234356E+02  1.250000000E+02  0.00000E+00  9.000E+00
      21     1     1     2   512   501 -9.609718384E+01  7.710271973E+01 -1.479842320E+02  1.925586431E+02  1.907348633E-06  0.00000E+00  9.000E+00
#rwgt            1           1   3.5533667583301835E-002           6      152569           0
</event>
<event>
      5   9999  3.79277E-02  1.19726E+02 -1.00000E+00  1.20410E-01
      21    -1     0     0   502   511  0.000000000E+00  0.000000000E+00  2.846731195E+02  2.846731195E+02  0.000000000E+00  0.00000E+00  9.000E+00
      21    -1     0     0   501   502  0.000000000E+00  0.000000000E+00 -5.455545459E+02  5.455545459E+02  0.000000000E+00  0.00000E+00  9.000E+00
      25     1     1     2     0     0  1.265135021E+02 -1.647734967E+02 -4.402450470E+02  5.025899649E+02  1.250000000E+02  0.00000E+00  9.000E+00
      25     1     1     2     0     0 -4.549643114E+01  7.662224155E+01  1.141636046E+02  1.913092307E+02  1.250000000E+02  0.00000E+00  9.000E+00
      21     1     1     2   501   511 -8.101707099E+01  8.815125511E+01  6.520001596E+01  1.363284697E+02  3.162979880E-06  0.00000E+00  9.000E+00
#rwgt            1           1   2.6495511114779550E-002           6      152690           0
</event>
<event>
      5   9999  3.79277E-02  6.37509E+01 -1.00000E+00  1.33311E-01
      21    -1     0     0   502   501  0.000000000E+00  0.000000000E+00  1.922161877E+02  1.922161877E+02  0.000000000E+00  0.00000E+00  9.000E+00
      21    -1     0     0   512   502  0.000000000E+00  0.000000000E+00 -3.233050900E+02  3.233050900E+02  0.000000000E+00  0.00000E+00  9.000E+00
      25     1     1     2     0     0 -1.516677818E+02  2.430495704E+01 -9.729505901E+01  2.206471742E+02  1.250000000E+02  0.00000E+00  9.000E+00
      25     1     1     2     0     0  1.137379034E+02  2.693462959E+01  6.010239602E+01  1.813810435E+02  1.250000000E+02  0.00000E+00  9.000E+00
      21     1     1     2   512   501  3.792987837E+01 -5.123958663E+01 -9.389623934E+01  1.134930600E+02  0.000000000E+00  0.00000E+00  9.000E+00
#rwgt            1           1   5.0933883113755442E-002           6      152744           0
</event>
<event>
      5   9999  3.79277E-02  7.88889E+01 -1.00000E+00  1.28644E-01
      21    -1     0     0   511   501  0.000000000E+00  0.000000000E+00  1.185792939E+02  1.185792939E+02  0.000000000E+00  0.00000E+00  9.000E+00
      21    -1     0     0   501   502  0.000000000E+00  0.000000000E+00 -7.998860969E+02  7.998860969E+02  0.000000000E+00  0.00000E+00  9.000E+00
      25     1     1     2     0     0 -3.968520893E+01 -3.203766841E+01 -4.763106726E+00  1.350889159E+02  1.250000000E+02  0.00000E+00  9.000E+00
      25     1     1     2     0     0  2.269872188E+01  1.090761109E+02 -6.839424137E+02  7.041413602E+02  1.250000000E+02  0.00000E+00  9.000E+00
      21     1     1     2   511   502  1.698648705E+01 -7.703844251E+01  7.398717450E+00  7.923511460E+01  1.283923342E-06  0.00000E+00  9.000E+00
#rwgt            1           1   3.8232294757790143E-002           6      152822           0
</event>
<event>
      5   9999  3.79277E-02  3.68119E+01 -1.00000E+00  1.47113E-01
      21    -1     0     0   502   512  0.000000000E+00  0.000000000E+00  2.454348285E+03  2.454348285E+03  0.000000000E+00  0.00000E+00  9.000E+00
      21    -1     0     0   501   502  0.000000000E+00  0.000000000E+00 -1.593845080E+02  1.593845080E+02  0.000000000E+00  0.00000E+00  9.000E+00
      25     1     1     2     0     0  4.028502071E+01  1.696766124E+02 -5.335408700E+01  2.210988338E+02  1.250000000E+02  0.00000E+00  9.000E+00
      25     1     1     2     0     0 -4.768195380E+01 -1.336155766E+02  3.845507192E+02  4.285218159E+02  1.250000000E+02  0.00000E+00  9.000E+00
      21     1     1     2   501   512  7.396933087E+00 -3.606103582E+01  1.963767144E+03  1.964112143E+03  2.157918644E-05  0.00000E+00  9.000E+00
#rwgt            1           1   2.6010809912679081E-002           6      153023           0
</event>
<event>
      5   9999  3.79277E-02  4.64961E+01 -1.00000E+00  1.40900E-01
      21    -1     0     0   502   511  0.000000000E+00  0.000000000E+00  6.216708267E+02  6.216708267E+02  0.000000000E+00  0.00000E+00  9.000E+00
      21    -1     0     0   501   502  0.000000000E+00  0.000000000E+00 -1.610559253E+02  1.610559253E+02  0.000000000E+00  0.00000E+00  9.000E+00
      25     1     1     2     0     0 -1.949782930E+02 -1.951265889E+01  3.684974841E+01  2.353299440E+02  1.250000000E+02  0.00000E+00  9.000E+00
      25     1     1     2     0     0  1.919227161E+02 -2.688294712E+01  1.627140196E+02  2.822372654E+02  1.250000000E+02  0.00000E+00  9.000E+00
      21     1     1     2   501   511  3.055576851E+00  4.639560600E+01  2.610511333E+02  2.651595426E+02  3.814697266E-06  0.00000E+00  9.000E+00
#rwgt            1           1  0.37736444966957539                6      153421           0
</event>
<event>
      5   9999  3.79277E-02  7.78698E+00 -1.00000E+00  2.09215E-01
      21    -1     0     0   502   501  0.000000000E+00  0.000000000E+00  8.330943315E+02  8.330943315E+02  0.000000000E+00  0.00000E+00  9.000E+00
      21    -1     0     0   501   512  0.000000000E+00  0.000000000E+00 -8.666711762E+01  8.666711762E+01  0.000000000E+00  0.00000E+00  9.000E+00
      25     1     1     2     0     0 -9.023242253E+01 -9.211414242E+01  6.224035071E+01  1.900677947E+02  1.250000000E+02  0.00000E+00  9.000E+00
      25     1     1     2     0     0  8.339653428E+01  9.584344208E+01  6.943673331E+02  7.168765170E+02  1.250000000E+02  0.00000E+00  9.000E+00
      21     1     1     2   502   512  6.835888243E+00 -3.729299652E+00 -1.018046995E+01  1.281713745E+01  4.129530925E-07  0.00000E+00  9.000E+00
#rwgt            1           1   5.2008107686231771E-002           6      153560           0
</event>
<event>
      5   9999  3.79277E-02  1.51923E+01 -1.00000E+00  1.76864E-01
       2    -1     0     0   502     0  0.000000000E+00  0.000000000E+00  1.010859715E+03  1.010859715E+03  0.000000000E+00  0.00000E+00  9.000E+00
      21    -1     0     0   501   502  0.000000000E+00  0.000000000E+00 -6.358708272E+02  6.358708272E+02  0.000000000E+00  0.00000E+00  9.000E+00
      25     1     1     2     0     0 -8.045069109E+01 -1.089153856E+02 -4.105974767E+02  4.500557330E+02  1.250000000E+02  0.00000E+00  9.000E+00
      25     1     1     2     0     0  8.209791963E+01  1.240181328E+02 -1.595602366E+02  2.514061153E+02  1.250000000E+02  0.00000E+00  9.000E+00
       2     1     1     2   501     0 -1.647228542E+00 -1.510274722E+01  9.451466011E+02  9.452686940E+02  1.078959322E-05  0.00000E+00  9.000E+00
#rwgt            1           1   4.4383178800950079E-002           6      153888           0
</event>
<event>
      5   9999  3.79277E-02  4.26105E+01 -1.00000E+00  1.43158E-01
      21    -1     0     0   502   501  0.000000000E+00  0.000000000E+00  2.925782393E+02  2.925782393E+02  0.000000000E+00  0.00000E+00  9.000E+00
      21    -1     0     0   501   511  0.000000000E+00  0.000000000E+00 -1.867228686E+02  1.867228686E+02  0.000000000E+00  0.00000E+00  9.000E+00
      25     1     1     2     0     0 -8.705187632E+01  1.547111943E+02  8.490674536E+01  2.331260136E+02  1.250000000E+02  0.00000E+00  9.000E+00
      25     1     1     2     0     0  5.704905288E+01 -1.244541764E+02  5.304711000E+01  1.928274678E+02  1.250000000E+02  0.00000E+00  9.000E+00
      21     1     1     2   502   511  3.000282344E+01 -3.025701785E+01 -3.209848457E+01  5.334762652E+01  4.768371582E-07  0.00000E+00  9.000E+00
#rwgt            1           1   4.0587692651547116E-002           6      154124           0
</event>
<event>
      5   9999  3.79277E-02  4.78979E+01 -1.00000E+00  1.40148E-01
      21    -1     0     0   512   501  0.000000000E+00  0.000000000E+00  5.938221718E+02  5.938221718E+02  0.000000000E+00  0.00000E+00  9.000E+00
      21    -1     0     0   501   502  0.000000000E+00  0.000000000E+00 -8.780413374E+02  8.780413374E+02  0.000000000E+00  0.00000E+00  9.000E+00
      25     1     1     2     0     0  2.322106799E+02 -5.685894608E+01 -2.105173398E+02  3.421948128E+02  1.250000000E+02  0.00000E+00  9.000E+00
      25     1     1     2     0     0 -2.153711163E+02  1.201881493E+01 -5.746688201E+02  6.264171314E+02  1.250000000E+02  0.00000E+00  9.000E+00
      21     1     1     2   512   502 -1.683956360E+01  4.484013115E+01  5.009669943E+02  5.032515650E+02  5.394796609E-06  0.00000E+00  9.000E+00
#rwgt            1           1   3.5567423638231503E-002           6      154413           0
</event>
<event>
      5   9999  3.79277E-02  1.20351E+02 -1.00000E+00  1.20315E-01
      21    -1     0     0   502   501  0.000000000E+00  0.000000000E+00  7.562195787E+01  7.562195787E+01  0.000000000E+00  0.00000E+00  9.000E+00
      21    -1     0     0   501   511  0.000000000E+00  0.000000000E+00 -1.676241174E+03  1.676241174E+03  0.000000000E+00  0.00000E+00  9.000E+00
      25     1     1     2     0     0  1.351170559E+02 -1.105321454E+02 -2.374761164E+02  3.201466536E+02  1.250000000E+02  0.00000E+00  9.000E+00
      25     1     1     2     0     0 -1.687882440E+02 -5.012201141E+00 -3.274487840E+02  3.890530807E+02  1.250000000E+02  0.00000E+00  9.000E+00
      21     1     1     2   502   511  3.367118803E+01  1.155443466E+02 -1.035694316E+03  1.042663398E+03  2.157918644E-05  0.00000E+00  9.000E+00
#rwgt            1           1   4.7071989754230673E-002           6      154593           0
</event>
<event>
      5   9999  3.79277E-02  3.32161E+01 -1.00000E+00  1.50030E-01
      21    -1     0     0   502   512  0.000000000E+00  0.000000000E+00  2.700936613E+02  2.700936613E+02  0.000000000E+00  0.00000E+00  9.000E+00
      21    -1     0     0   501   502  0.000000000E+00  0.000000000E+00 -2.909661744E+02  2.909661744E+02  0.000000000E+00  0.00000E+00  9.000E+00
      25     1     1     2     0     0 -1.839900751E+02 -4.709080671E+01 -1.411792694E+02  2.676312349E+02  1.250000000E+02  0.00000E+00  9.000E+00
      25     1     1     2     0     0  1.643971255E+02  2.026869171E+01  4.674344683E+01  2.127138560E+02  1.250000000E+02  0.00000E+00  9.000E+00
      21     1     1     2   501   512  1.959294957E+01  2.682211500E+01  7.356330947E+01  8.071474479E+01  9.536743164E-07  0.00000E+00  9.000E+00
#rwgt            1           1   3.9230963048235132E-002           6      154724           0
</event>
<event>
      5   9999  3.79277E-02  1.64150E+01 -1.00000E+00  1.73773E-01
      21    -1     0     0   511   501  0.000000000E+00  0.000000000E+00  3.707398227E+02  3.707398227E+02  0.000000000E+00  0.00000E+00  9.000E+00
      21    -1     0     0   501   502  0.000000000E+00  0.000000000E+00 -2.165780339E+02  2.165780339E+02  0.000000000E+00  0.00000E+00  9.000E+00
      25     1     1     2     0     0  6.195004414E+01 -4.698543002E+01 -1.480999402E+02  2.088157822E+02  1.250000000E+02  0.00000E+00  9.000E+00
      25     1     1     2     0     0 -5.860888592E+01  6.305677129E+01  1.147487992E+02  1.902720285E+02  1.250000000E+02  0.00000E+00  9.000E+00
      21     1     1     2   511   502 -3.341158227E+00 -1.607134126E+01  1.875129298E+02  1.882300460E+02  2.697398305E-06  0.00000E+00  9.000E+00
#rwgt            1           1   4.1354871621183183E-002           6      154860           0
</event>
<event>
      5   9999  3.79277E-02  7.45122E+01 -1.00000E+00  1.29861E-01
      21    -1     0     0   502   512  0.000000000E+00  0.000000000E+00  2.355294348E+01  2.355294348E+01  0.000000000E+00  0.00000E+00  9.000E+00
      21    -1     0     0   501   502  0.000000000E+00  0.000000000E+00 -2.604215594E+03  2.604215594E+03  0.000000000E+00  0.00000E+00  9.000E+00
      25     1     1     2     0     0  2.868357065E+01  1.617202174E+02 -6.610293216E+02  6.925033863E+02  1.250000000E+02  0.00000E+00  9.000E+00
      25     1     1     2     0     0 -3.827514050E+01 -8.782791159E+01 -1.564011475E+03  1.571920998E+03  1.250000000E+02  0.00000E+00  9.000E+00
      21     1     1     2   501   512  9.591569842E+00 -7.389230581E+01 -3.556218537E+02  3.633441535E+02  3.814697266E-06  0.00000E+00  9.000E+00
#rwgt            2          11   4.2305313697885106E-003           6      155122           0
</event>
<event>
      5   9999  3.79277E-02  3.15291E+01 -1.00000E+00  1.51555E-01
      21    -1     0     0   502   511  0.000000000E+00  0.000000000E+00  7.811136243E+02  7.811136243E+02  0.000000000E+00  0.00000E+00  9.000E+00
      21    -1     0     0   501   502  0.000000000E+00  0.000000000E+00 -1.607282787E+02  1.607282787E+02  0.000000000E+00  0.00000E+00  9.000E+00
      25     1     1     2     0     0  4.503441524E+01  1.085743657E+02  3.352359316E+02  3.765960984E+02  1.250000000E+02  0.00000E+00  9.000E+00
      25     1     1     2     0     0 -2.968169220E+01 -1.361130030E+02 -7.651761777E+01  2.022070678E+02  1.250000000E+02  0.00000E+00  9.000E+00
      21     1     1     2   501   511 -1.535272303E+01  2.753863726E+01  3.616670317E+02  3.630387369E+02  3.814697266E-06  0.00000E+00  9.000E+00
#rwgt            1           1   2.9698099707726730E-002           6      155247           0
</event>
<event>
      5   9999  3.79277E-02  1.03418E+02 -1.00000E+00  1.23175E-01
       1    -1     0     0   502     0  0.000000000E+00  0.000000000E+00  1.019775370E+03  1.019775370E+03  0.000000000E+00  0.00000E+00  9.000E+00
      21    -1     0     0   501   502  0.000000000E+00  0.000000000E+00 -4.013642661E+02  4.013642661E+02  0.000000000E+00  0.00000E+00  9.000E+00
      25     1     1     2     0     0 -2.615145121E+02  3.663561059E+02  5.223128167E+02  7.007441151E+02  1.250000000E+02  0.00000E+00  9.000E+00
      25     1     1     2     0     0  1.707948434E+02 -3.167045123E+02 -1.831150252E+02  4.226449326E+02  1.250000000E+02  0.00000E+00  9.000E+00
       1     1     1     2   501     0  9.071966866E+01 -4.965159367E+01  2.792133126E+02  2.977505886E+02  3.814697266E-06  0.00000E+00  9.000E+00
#rwgt            1           1   8.6571606318676150E-002           6      155465           0
</event>
<event>
      5   9999  3.79277E-02  9.96366E+00 -1.00000E+00  1.95940E-01
      21    -1     0     0   502   501  0.000000000E+00  0.000000000E+00  5.133729408E+01  5.133729408E+01  0.000000000E+00  0.00000E+00  9.000E+00
      21    -1     0     0   501   511  0.000000000E+00  0.000000000E+00 -7.693362260E+02  7.693362260E+02  0.000000000E+00  0.00000E+00  9.000E+00
      25     1     1     2     0     0  2.432432491E+00 -7.205508496E+01 -5.499560990E+02  5.685723902E+02  1.250000000E+02  0.00000E+00  9.000E+00
      25     1     1     2     0     0 -1.132252651E+01  7.655406129E+01 -8.779218209E+01  1.712343165E+02  1.250000000E+02  0.00000E+00  9.000E+00
      21     1     1     2   502   511  8.890094023E+00 -4.498976326E+00 -8.025065078E+01  8.086681340E+01  0.000000000E+00  0.00000E+00  9.000E+00
#rwgt            1           1   4.5887086073759020E-002           6      155602           0
</event>
<event>
      5   9999  3.79277E-02  2.25098E+01 -1.00000E+00  1.62241E-01
      21    -1     0     0   502   501  0.000000000E+00  0.000000000E+00  6.480342478E+02  6.480342478E+02  0.000000000E+00  0.00000E+00  9.000E+00
      21    -1     0     0   512   502  0.000000000E+00  0.000000000E+00 -1.372545927E+02  1.372545927E+02  0.000000000E+00  0.00000E+00  9.000E+00
      25     1     1     2     0     0 -6.506022292E+00 -1.926830446E+02  2.591024339E+02  3.463064470E+02  1.250000000E+02  0.00000E+00  9.000E+00
      25     1     1     2     0     0  2.205578602E+01  1.764073605E+02  3.087860459E+02  3.775974532E+02  1.250000000E+02  0.00000E+00  9.000E+00
      21     1     1     2   512   501 -1.554976373E+01  1.627568409E+01 -5.710882462E+01  6.138494029E+01  1.348699152E-06  0.00000E+00  9.000E+00
#rwgt            1           1   2.5446143628997806E-002           6      155825           0
</event>
<event>
      5   9999  3.79277E-02  1.04101E+02 -1.00000E+00  1.23048E-01
      21    -1     0     0   502   511  0.000000000E+00  0.000000000E+00  1.635772870E+02  1.635772870E+02  0.000000000E+00  0.00000E+00  9.000E+00
      21    -1     0     0   501   502  0.000000000E+00  0.000000000E+00 -5.859617953E+02  5.859617953E+02  0.000000000E+00  0.00000E+00  9.000E+00
      25     1     1     2     0     0  2.691193184E+01 -1.461434336E+02 -4.150937448E+02  4.582684500E+02  1.250000000E+02  0.00000E+00  9.000E+00
      25     1     1     2     0     0 -1.014452869E+02  7.346723950E+01 -4.137972734E+01  1.817301939E+02  1.250000000E+02  0.00000E+00  9.000E+00
      21     1     1     2   501   511  7.453335511E+01  7.267619415E+01  3.408896386E+01  1.095404385E+02  4.768371582E-07  0.00000E+00  9.000E+00
#rwgt            1           1   3.6820117389709479E-002           6      156018           0
</event>
<event>
      5   9999  3.79277E-02  7.90693E+00 -1.00000E+00  2.08337E-01
      21    -1     0     0   512   501  0.000000000E+00  0.000000000E+00  6.211487573E+02  6.211487573E+02  0.000000000E+00  0.00000E+00  9.000E+00
      21    -1     0     0   501   502  0.000000000E+00  0.000000000E+00 -6.684328663E+01  6.684328663E+01  0.000000000E+00  0.00000E+00  9.000E+00
      25     1     1     2     0     0 -1.034772617E+02 -4.591062964E+01  4.371421014E+02  4.685440710E+02  1.250000000E+02  0.00000E+00  9.000E+00
      25     1     1     2     0     0  1.023949842E+02  5.374313777E+01  9.300994400E+01  1.940332635E+02  1.250000000E+02  0.00000E+00  9.000E+00
      21     1     1     2   512   502  1.082277519E+00 -7.832508128E+00  2.415342523E+01  2.541470949E+01  3.371747881E-07  0.00000E+00  9.000E+00
#rwgt            1           1   3.6726761041561654E-002           6      156175           0
</event>
<event>
      5   9999 -3.79277E-02  2.15674E+01 -1.00000E+00  1.63710E-01
      21    -1     0     0   502   511  0.000000000E+00  0.000000000E+00  4.963237592E+02  4.963237592E+02  0.000000000E+00  0.00000E+00  9.000E+00
      21    -1     0     0   501   502  0.000000000E+00  0.000000000E+00 -2.520746418E+02  2.520746418E+02  0.000000000E+00  0.00000E+00  9.000E+00
      25     1     1     2     0     0  6.727845071E+01  2.460912958E+02 -1.221678122E+01  2.843616808E+02  1.250000000E+02  0.00000E+00  9.000E+00
      25     1     1     2     0     0 -7.056927151E+01 -2.674061367E+02  1.207808030E+02  3.266482304E+02  1.250000000E+02  0.00000E+00  9.000E+00
      21     1     1     2   501   511  3.290820794E+00  2.131484098E+01  1.356850956E+02  1.373884898E+02  1.907348633E-06  0.00000E+00  9.000E+00
#rwgt            1           1  -3.4875243882165008E-002           6      156458           0
</event>
<event>
      5   9999  3.79277E-02  3.81059E+01 -1.00000E+00  1.46159E-01
      21    -1     0     0   512   501  0.000000000E+00  0.000000000E+00  3.611010298E+02  3.611010298E+02  0.000000000E+00  0.00000E+00  9.000E+00
      21    -1     0     0   501   502  0.000000000E+00  0.000000000E+00 -1.344456118E+02  1.344456118E+02  0.000000000E+00  0.00000E+00  9.000E+00
      25     1     1     2     0     0 -1.195709924E+01 -1.128607700E+02 -1.346807112E+01  1.693721186E+02  1.250000000E+02  0.00000E+00  9.000E+00
      25     1     1     2     0     0 -2.517106850E+01  1.214374237E+02  1.620716852E+02  2.393174914E+02  1.250000000E+02  0.00000E+00  9.000E+00
      21     1     1     2   512   502  3.712816774E+01 -8.576653668E+00  7.805180396E+01  8.685703155E+01  0.000000000E+00  0.00000E+00  9.000E+00
#rwgt            1           1   3.5996690317324984E-002           6      156648           0
</event>
<event>
      5   9999  3.79277E-02  5.53302E+01 -1.00000E+00  1.36611E-01
      21    -1     0     0   502   501  0.000000000E+00  0.000000000E+00  1.999756340E+02  1.999756340E+02  0.000000000E+00  0.00000E+00  9.000E+00
       2    -1     0     0   501     0  0.000000000E+00  0.000000000E+00 -1.240137839E+03  1.240137839E+03  0.000000000E+00  0.00000E+00  9.000E+00
      25     1     1     2     0     0 -1.179532878E+02  7.018524408E+01  1.350226995E+02  2.295540807E+02  1.250000000E+02  0.00000E+00  9.000E+00
      25     1     1     2     0     0  1.216481564E+02 -1.497852411E+01 -4.437433301E+02  4.770280633E+02  1.250000000E+02  0.00000E+00  9.000E+00
       2     1     1     2   502     0 -3.694868632E+00 -5.520671997E+01 -7.314415749E+02  7.335313296E+02  1.078959322E-05  0.00000E+00  9.000E+00
#rwgt            1           1   5.1037014461089776E-002           6      156722           0
</event>
<event>
      5   9999  3.79277E-02  4.12043E+01 -1.00000E+00  1.44046E-01
      21    -1     0     0   502   501  0.000000000E+00  0.000000000E+00  2.088217147E+02  2.088217147E+02  0.000000000E+00  0.00000E+00  9.000E+00
      21    -1     0     0   511   502  0.000000000E+00  0.000000000E+00 -2.595864214E+02  2.595864214E+02  0.000000000E+00  0.00000E+00  9.000E+00
      25     1     1     2     0     0 -1.502809483E+01  9.947482359E+01 -1.547375765E+02  2.229120942E+02  1.250000000E+02  0.00000E+00  9.000E+00
      25     1     1     2     0     0 -2.593401483E+01 -1.039354429E+02  1.173595523E+02  2.021717436E+02  1.250000000E+02  0.00000E+00  9.000E+00
      21     1     1     2   511   501  4.096210966E+01  4.460619268E+00 -1.338668240E+01  4.332429824E+01  5.331201500E-07  0.00000E+00  9.000E+00
#rwgt            1           1   4.1014784710897298E-002           6      156832           0
</event>
<event>
      5   9999  3.79277E-02  1.22430E+01 -1.00000E+00  1.86117E-01
      21    -1     0     0   512   501  0.000000000E+00  0.000000000E+00  6.346184982E+01  6.346184982E+01  0.000000000E+00  0.00000E+00  9.000E+00
      21    -1     0     0   501   502  0.000000000E+00  0.000000000E+00 -8.095453364E+02  8.095453364E+02  0.000000000E+00  0.00000E+00  9.000E+00
      25     1     1     2     0     0  6.269029996E+01  1.470586558E+02 -3.332525711E+02  3.901776494E+02  1.250000000E+02  0.00000E+00  9.000E+00
      25     1     1     2     0     0 -7.149311230E+01 -1.555676222E+02 -4.186602166E+02  4.692695677E+02  1.250000000E+02  0.00000E+00  9.000E+00
      21     1     1     2   512   502  8.802812341E+00  8.508966368E+00  5.829301063E+00  1.355996920E+01  6.194296387E-07  0.00000E+00  9.000E+00
#rwgt            1           1   6.9551328932054526E-002           6      156930           0
</event>
<event>
      5   9999  3.79277E-02  5.17654E+01 -1.00000E+00  1.38221E-01
      21    -1     0     0   502   501  0.000000000E+00  0.000000000E+00  6.559431869E+02  6.559431869E+02  0.000000000E+00  0.00000E+00  9.000E+00
      21    -1     0     0   501   511  0.000000000E+00  0.000000000E+00 -1.712237486E+02  1.712237486E+02  0.000000000E+00  0.00000E+00  9.000E+00
      25     1     1     2     0     0 -2.008546120E+02 -1.805501223E+01  4.551509768E+02  5.132796219E+02  1.250000000E+02  0.00000E+00  9.000E+00
      25     1     1     2     0     0  2.100803428E+02 -3.288162139E+01  5.998560128E+01  2.538468511E+02  1.250000000E+02  0.00000E+00  9.000E+00
      21     1     1     2   502   511 -9.225730780E+00  5.093663362E+01 -3.041713970E+01  6.004046253E+01  7.539457465E-07  0.00000E+00  9.000E+00
#rwgt            1           1   3.8185498144263856E-002           6      157165           0
</event>
<event>
      5   9999  3.79277E-02  1.65988E+02 -1.00000E+00  1.14677E-01
       2    -1     0     0   502     0  0.000000000E+00  0.000000000E+00  1.563165131E+03  1.563165131E+03  0.000000000E+00  0.00000E+00  9.000E+00
      21    -1     0     0   501   502  0.000000000E+00  0.000000000E+00 -1.031920440E+02  1.031920440E+02  0.000000000E+00  0.00000E+00  9.000E+00
      25     1     1     2     0     0 -1.781235211E+02  5.552824449E+01  6.141828330E+02  6.539548356E+02  1.250000000E+02  0.00000E+00  9.000E+00
      25     1     1     2     0     0  1.220400662E+01 -6.030231426E+01 -1.093121629E+01  1.397490550E+02  1.250000000E+02  0.00000E+00  9.000E+00
       2     1     1     2   501     0  1.659195144E+02  4.774069774E+00  8.567214702E+02  8.726532842E+02  1.078959322E-05  0.00000E+00  9.000E+00
#rwgt            1           1   4.6106667715568886E-002           6      157307           0
</event>
<event>
      5   9999  3.79277E-02  4.57219E+01 -1.00000E+00  1.41329E-01
      21    -1     0     0   511   501  0.000000000E+00  0.000000000E+00  1.224056547E+02  1.224056547E+02  0.000000000E+00  0.00000E+00  9.000E+00
      21    -1     0     0   501   502  0.000000000E+00  0.000000000E+00 -7.792168218E+02  7.792168218E+02  0.000000000E+00  0.00000E+00  9.000E+00
      25     1     1     2     0     0  1.021060069E+02  1.200208142E+02 -1.071778072E+02  2.279094444E+02  1.250000000E+02  0.00000E+00  9.000E+00
      25     1     1     2     0     0 -1.112637654E+02 -7.522540395E+01 -5.867844853E+02  6.148003897E+02  1.250000000E+02  0.00000E+00  9.000E+00
      21     1     1     2   511   502  9.157758593E+00 -4.479541021E+01  3.715112552E+01  5.891264249E+01  0.000000000E+00  0.00000E+00  9.000E+00
#rwgt            1           1   4.8715765625866166E-002           6      157450           0
</event>
<event>
      5   9999  3.79277E-02  4.56079E+01 -1.00000E+00  1.41393E-01
      21    -1     0     0   502   501  0.000000000E+00  0.000000000E+00  2.101406265E+02  2.101406265E+02  0.000000000E+00  0.00000E+00  9.000E+00
      21    -1     0     0   512   502  0.000000000E+00  0.000000000E+00 -2.778832353E+02  2.778832353E+02  0.000000000E+00  0.00000E+00  9.000E+00
      25     1     1     2     0     0 -8.621326187E+01 -1.104435264E+02 -1.435097621E+02  2.363272114E+02  1.250000000E+02  0.00000E+00  9.000E+00
      25     1     1     2     0     0  6.837060525E+01  6.847063638E+01  1.117637434E+02  1.935946850E+02  1.250000000E+02  0.00000E+00  9.000E+00
      21     1     1     2   512   501  1.784265662E+01  4.197288999E+01 -3.599659008E+01  5.810196543E+01  6.743495762E-07  0.00000E+00  9.000E+00
#rwgt            1           1   4.1214756882941773E-002           6      157631           0
</event>
<event>
      5   9999  3.79277E-02  3.39657E+01 -1.00000E+00  1.49387E-01
      21    -1     0     0   502   501  0.000000000E+00  0.000000000E+00  3.694192887E+01  3.694192887E+01  0.000000000E+00  0.00000E+00  9.000E+00
      21    -1     0     0   511   502  0.000000000E+00  0.000000000E+00 -8.494357345E+02  8.494357345E+02  0.000000000E+00  0.00000E+00  9.000E+00
      25     1     1     2     0     0  5.669761392E-01 -4.933703330E+01 -1.618750731E+02  2.103877459E+02  1.250000000E+02  0.00000E+00  9.000E+00
      25     1     1     2     0     0 -3.372275797E+01  5.671018986E+01 -4.264786169E+02  4.492908643E+02  1.250000000E+02  0.00000E+00  9.000E+00
      21     1     1     2   511   501  3.315578183E+01 -7.373156563E+00 -2.241401156E+02  2.266990532E+02  0.000000000E+00  0.00000E+00  9.000E+00
#rwgt            1           1  0.10563984390362592                6      157798           0
</event>
<event>
      5   9999  3.79277E-02  2.78573E+01 -1.00000E+00  1.55309E-01
      21    -1     0     0   512   501  0.000000000E+00  0.000000000E+00  4.040159853E+02  4.040159853E+02  0.000000000E+00  0.00000E+00  9.000E+00
      21    -1     0     0   501   502  0.000000000E+00  0.000000000E+00 -2.099551460E+02  2.099551460E+02  0.000000000E+00  0.00000E+00  9.000E+00
      25     1     1     2     0     0  1.226432545E+02  1.457011558E+02  5.916529931E+01  2.353629693E+02  1.250000000E+02  0.00000E+00  9.000E+00
      25     1     1     2     0     0 -9.763504322E+01 -1.334284547E+02 -3.171734852E+01  2.096824847E+02  1.250000000E+02  0.00000E+00  9.000E+00
      21     1     1     2   512   502 -2.500821128E+01 -1.227270102E+01  1.666128885E+02  1.689256773E+02  1.907348633E-06  0.00000E+00  9.000E+00
#rwgt            1           1   3.4514490082619066E-002           6      157979           0
</event>
<event>
      5   9999  3.79277E-02  9.07323E+01 -1.00000E+00  1.25758E-01
      21    -1     0     0   502   501  0.000000000E+00  0.000000000E+00  1.031747050E+03  1.031747050E+03  0.000000000E+00  0.00000E+00  9.000E+00
      21    -1     0     0   501   511  0.000000000E+00  0.000000000E+00 -1.536515016E+02  1.536515016E+02  0.000000000E+00  0.00000E+00  9.000E+00
      25     1     1     2     0     0  1.531366011E+01 -1.367107468E+02  5.199975465E+02  5.522198701E+02  1.250000000E+02  0.00000E+00  9.000E+00
      25     1     1     2     0     0  5.079061300E+01  1.988603598E+02  4.461440131E+02  5.067490597E+02  1.250000000E+02  0.00000E+00  9.000E+00
      21     1     1     2   502   511 -6.610427311E+01 -6.214961296E+01 -8.804601093E+01  1.264296221E+02  3.162979880E-06  0.00000E+00  9.000E+00
#rwgt            1           1   4.0462320873224676E-002           6      158136           0
</event>
<event>
      5   9999  3.79277E-02  6.05975E+01 -1.00000E+00  1.34474E-01
      21    -1     0     0   502   501  0.000000000E+00  0.000000000E+00  8.318174812E+02  8.318174812E+02  0.000000000E+00  0.00000E+00  9.000E+00
      21    -1     0     0   512   502  0.000000000E+00  0.000000000E+00 -1.678817073E+02  1.678817073E+02  0.000000000E+00  0.00000E+00  9.000E+00
      25     1     1     2     0     0 -2.169223180E+02  2.618927209E+02  3.985791918E+02  5.386403823E+02  1.250000000E+02  0.00000E+00  9.000E+00
      25     1     1     2     0     0  1.672261741E+02 -2.272177403E+02  2.534164788E+02  3.992961389E+02  1.250000000E+02  0.00000E+00  9.000E+00
      21     1     1     2   512   501  4.969614391E+01 -3.467498064E+01  1.194010329E+01  6.176266727E+01  4.768371582E-07  0.00000E+00  9.000E+00
#rwgt            1           1   3.7729479133670425E-002           6      158249           0
</event>
<event>
      5   9999  3.79277E-02  4.08882E+01 -1.00000E+00  1.44251E-01
      21    -1     0     0   511   501  0.000000000E+00  0.000000000E+00  1.154034133E+03  1.154034133E+03  0.000000000E+00  0.00000E+00  9.000E+00
      21    -1     0     0   501   502  0.000000000E+00  0.000000000E+00 -6.361784717E+02  6.361784717E+02  0.000000000E+00  0.00000E+00  9.000E+00
      25     1     1     2     0     0 -3.485716712E+01  1.215711541E+02 -2.952477670E+02  3.446604293E+02  1.250000000E+02  0.00000E+00  9.000E+00
      25     1     1     2     0     0  6.586591235E+00 -1.511112719E+02 -2.853677338E+02  3.463202899E+02  1.250000000E+02  0.00000E+00  9.000E+00
      21     1     1     2   511   502  2.827057589E+01  2.954011777E+01  1.098471162E+03  1.099231886E+03  1.525878906E-05  0.00000E+00  9.000E+00
#rwgt            1           1   2.3564137632119092E-002           6      158322           0
</event>
<event>
      5   9999  3.79277E-02  2.51061E+01 -1.00000E+00  1.58613E-01
      21    -1     0     0   502   512  0.000000000E+00  0.000000000E+00  9.817986764E+01  9.817986764E+01  0.000000000E+00  0.00000E+00  9.000E+00
      21    -1     0     0   501   502  0.000000000E+00  0.000000000E+00 -2.372325258E+03  2.372325258E+03  0.000000000E+00  0.00000E+00  9.000E+00
      25     1     1     2     0     0 -1.830930956E+02  6.162565492E+01 -1.262963501E+03  1.283753328E+03  1.250000000E+02  0.00000E+00  9.000E+00
      25     1     1     2     0     0  1.784505056E+02 -8.629876752E+01 -1.084356549E+03  1.109390006E+03  1.250000000E+02  0.00000E+00  9.000E+00
      21     1     1     2   501   512  4.642590025E+00  2.467311260E+01  7.317465901E+01  7.736179192E+01  3.015782986E-06  0.00000E+00  9.000E+00
#rwgt            1           1   4.8658178217083493E-002           6      158641           0
</event>
<event>
      5   9999 -3.79277E-02  4.06971E+01 -1.00000E+00  1.44376E-01
      21    -1     0     0   502   501  0.000000000E+00  0.000000000E+00  3.567210033E+03  3.567210033E+03  0.000000000E+00  0.00000E+00  9.000E+00
      21    -1     0     0   501   511  0.000000000E+00  0.000000000E+00 -2.679892198E+01  2.679892198E+01  0.000000000E+00  0.00000E+00  9.000E+00
      25     1     1     2     0     0  8.919454550E+01 -1.567990215E+02  9.581491934E+02  9.829631106E+02  1.250000000E+02  0.00000E+00  9.000E+00
      25     1     1     2     0     0 -4.852112787E+01  1.554102806E+02  2.552222273E+03  2.560462885E+03  1.250000000E+02  0.00000E+00  9.000E+00
      21     1     1     2   502   511 -4.067341763E+01  1.388740892E+00  3.003964429E+01  5.058295891E+01  2.477718555E-06  0.00000E+00  9.000E+00
#rwgt            1           1  -1.7121565979843958E-003           6      158806           0
</event>
<event>
      5   9999  3.79277E-02  1.78961E+01 -1.00000E+00  1.70453E-01
      21    -1     0     0   502   512  0.000000000E+00  0.000000000E+00  4.134094146E+02  4.134094146E+02  0.000000000E+00  0.00000E+00  9.000E+00
      21    -1     0     0   501   502  0.000000000E+00  0.000000000E+00 -4.171416232E+02  4.171416232E+02  0.000000000E+00  0.00000E+00  9.000E+00
      25     1     1     2     0     0 -1.206893396E+02  2.389079286E+02 -2.392256405E+02  3.801273762E+02  1.250000000E+02  0.00000E+00  9.000E+00
      25     1     1     2     0     0  1.040076564E+02 -2.453881657E+02  9.577754260E+01  3.095662807E+02  1.250000000E+02  0.00000E+00  9.000E+00
      21     1     1     2   501   512  1.668168327E+01  6.480237115E+00  1.397158893E+02  1.408573809E+02  2.697398305E-06  0.00000E+00  9.000E+00
#rwgt            1           1   3.9891122789786439E-002           6      158947           0
</event>
<event>
      5   9999  3.79277E-02  2.84091E+01 -1.00000E+00  1.54702E-01
      21    -1     0     0   502   501  0.000000000E+00  0.000000000E+00  9.315573196E+02  9.315573196E+02  0.000000000E+00  0.00000E+00  9.000E+00
      21    -1     0     0   501   511  0.000000000E+00  0.000000000E+00 -4.515329622E+02  4.515329622E+02  0.000000000E+00  0.00000E+00  9.000E+00
      25     1     1     2     0     0  3.100013315E+02  7.490515351E+00  1.573456345E+01  3.347080964E+02  1.250000000E+02  0.00000E+00  9.000E+00
      25     1     1     2     0     0 -3.195793452E+02 -3.423634200E+01  7.161853725E+02  7.948896608E+02  1.250000000E+02  0.00000E+00  9.000E+00
      21     1     1     2   502   511  9.578013719E+00  2.674582665E+01 -2.518955785E+02  2.534925247E+02  2.697398305E-06  0.00000E+00  9.000E+00
#rwgt            1           1   3.1668763221768426E-002           6      159225           0
</event>
<event>
      5   9999  3.79277E-02  1.52893E+02 -1.00000E+00  1.16066E-01
       1    -1     0     0   502     0  0.000000000E+00  0.000000000E+00  6.684301371E+02  6.684301371E+02  0.000000000E+00  0.00000E+00  9.000E+00
      21    -1     0     0   501   502  0.000000000E+00  0.000000000E+00 -2.445034836E+02  2.445034836E+02  0.000000000E+00  0.00000E+00  9.000E+00
      25     1     1     2     0     0  6.567383348E+00 -1.408631583E+02  3.870022983E+01  1.923753302E+02  1.250000000E+02  0.00000E+00  9.000E+00
      25     1     1     2     0     0 -1.439485714E+01 -1.182949079E+01 -1.310840420E+02  1.820856250E+02  1.250000000E+02  0.00000E+00  9.000E+00
       1     1     1     2   501     0  7.827473793E+00  1.526926491E+02  5.163104657E+02  5.384726654E+02  7.629394531E-06  0.00000E+00  9.000E+00
#rwgt            1           1   3.2495348160301474E-002           6      159505           0
</event>
<event>
      5   9999  3.79277E-02  2.82375E+02 -1.00000E+00  1.06453E-01
      21    -1     0     0   502   501  0.000000000E+00  0.000000000E+00  2.323566741E+02  2.323566741E+02  0.000000000E+00  0.00000E+00  9.000E+00
       1    -1     0     0   501     0  0.000000000E+00  0.000000000E+00 -7.496484901E+02  7.496484901E+02  0.000000000E+00  0.00000E+00  9.000E+00
      25     1     1     2     0     0 -9.114549032E+01 -1.411488461E+02  3.188960680E+01  2.118311691E+02  1.250000000E+02  0.00000E+00  9.000E+00
      25     1     1     2     0     0  1.855495779E+02 -1.249778911E+02 -2.343917123E+02  3.472932391E+02  1.250000000E+02  0.00000E+00  9.000E+00
       1     1     1     2   502     0 -9.440408759E+01  2.661267373E+02 -3.147897104E+02  4.228807560E+02  0.000000000E+00  0.00000E+00  9.000E+00
#rwgt            2          12   8.5851706762268544E-005           6      159750           0
</event>
<event>
      5   9999  3.79277E-02  3.60577E+01 -1.00000E+00  1.47691E-01
      21    -1     0     0   511   501  0.000000000E+00  0.000000000E+00  5.162028390E+02  5.162028390E+02  0.000000000E+00  0.00000E+00  9.000E+00
      21    -1     0     0   501   502  0.000000000E+00  0.000000000E+00 -2.340502414E+02  2.340502414E+02  0.000000000E+00  0.00000E+00  9.000E+00
      25     1     1     2     0     0 -2.755670247E+02 -1.574749796E+01  2.518179297E+02  3.939827896E+02  1.250000000E+02  0.00000E+00  9.000E+00
      25     1     1     2     0     0  2.833808599E+02  5.094841793E+01  8.268636937E+00  3.139965341E+02  1.250000000E+02  0.00000E+00  9.000E+00
      21     1     1     2   511   502 -7.813835208E+00 -3.520091997E+01  2.206603092E+01  4.227375673E+01  7.152557373E-07  0.00000E+00  9.000E+00
#rwgt            1           1   3.9043704724599490E-002           6      159814           0
</event>
<event>
      5   9999  3.79277E-02  1.34630E+01 -1.00000E+00  1.81924E-01
      21    -1     0     0   502   501  0.000000000E+00  0.000000000E+00  4.514626576E+02  4.514626576E+02  0.000000000E+00  0.00000E+00  9.000E+00
       2    -1     0     0   501     0  0.000000000E+00  0.000000000E+00 -5.135766384E+02  5.135766384E+02  0.000000000E+00  0.00000E+00  9.000E+00
      25     1     1     2     0     0  2.058363356E+02  1.260896395E+02  1.026398428E+02  2.905634726E+02  1.250000000E+02  0.00000E+00  9.000E+00
      25     1     1     2     0     0 -1.936521841E+02 -1.203625652E+02  1.883756125E+02  3.210898424E+02  1.250000000E+02  0.00000E+00  9.000E+00
       2     1     1     2   502     0 -1.218415151E+01 -5.727074350E+00 -3.531294361E+02  3.533859810E+02  5.394796609E-06  0.00000E+00  9.000E+00
#rwgt            1           1   2.6300305034714300E-002           6      160086           0
</event>
<event>
      5   9999 -3.79277E-02  1.58414E+02 -1.00000E+00  1.15462E-01
      21    -1     0     0   502   501  0.000000000E+00  0.000000000E+00  1.176894798E+03  1.176894798E+03  0.000000000E+00  0.00000E+00  9.000E+00
      21    -1     0     0   511   502  0.000000000E+00  0.000000000E+00 -2.255327244E+02  2.255327244E+02  0.000000000E+00  0.00000E+00  9.000E+00
      25     1     1     2     0     0  6.619505038E+01  2.269427732E+02  2.941282523E+02  3.975188497E+02  1.250000000E+02  0.00000E+00  9.000E+00
      25     1     1     2     0     0  8.357966941E+01 -2.785410128E+02  7.550589047E+02  8.187243777E+02  1.250000000E+02  0.00000E+00  9.000E+00
      21     1     1     2   511   501 -1.497747198E+02  5.159823960E+01 -9.782508299E+01  1.861842955E+02  4.264961200E-06  0.00000E+00  9.000E+00
#rwgt            1           1 -0.12826617181010702                6      160431           0
</event>
<event>
      5   9999  3.79277E-02  3.81813E+01 -1.00000E+00  1.46105E-01
      21    -1     0     0   502   501  0.000000000E+00  0.000000000E+00  1.786155141E+02  1.786155141E+02  0.000000000E+00  0.00000E+00  9.000E+00
      21    -1     0     0   501   512  0.000000000E+00  0.000000000E+00 -8.069297386E+02  8.069297386E+02  0.000000000E+00  0.00000E+00  9.000E+00
      25     1     1     2     0     0 -2.905998859E+01 -7.973377889E+01  4.482933769E+01  1.575964084E+02  1.250000000E+02  0.00000E+00  9.000E+00
      25     1     1     2     0     0  1.564233669E+01  1.154797839E+02 -1.816478969E+01  1.718581473E+02  1.250000000E+02  0.00000E+00  9.000E+00
      21     1     1     2   502   512  1.341765190E+01 -3.574600504E+01 -6.549787725E+02  6.560906970E+02  0.000000000E+00  0.00000E+00  9.000E+00
#rwgt            1           1   2.6919654406432496E-002           6      160494           0
</event>
<event>
      5   9999  3.79277E-02  8.21723E+01 -1.00000E+00  1.27789E-01
      21    -1     0     0   502   501  0.000000000E+00  0.000000000E+00  1.203652796E+03  1.203652796E+03  0.000000000E+00  0.00000E+00  9.000E+00
      21    -1     0     0   501   511  0.000000000E+00  0.000000000E+00 -7.187958437E+01  7.187958437E+01  0.000000000E+00  0.00000E+00  9.000E+00
      25     1     1     2     0     0 -1.045263605E+02  1.087493675E+02  3.610030935E+02  4.107315650E+02  1.250000000E+02  0.00000E+00  9.000E+00
      25     1     1     2     0     0  2.251344355E+01 -1.036334370E+02  7.650661014E+02  7.824307534E+02  1.250000000E+02  0.00000E+00  9.000E+00
      21     1     1     2   502   511  8.201291699E+01 -5.115930425E+00  5.704016751E+00  8.237006194E+01  1.233110479E-06  0.00000E+00  9.000E+00
#rwgt            1           1   4.1617820360106764E-002           6      160919           0
</event>
<event>
      5   9999  3.79277E-02  3.83136E+01 -1.00000E+00  1.46010E-01
      21    -1     0     0   502   501  0.000000000E+00  0.000000000E+00  1.202907462E+02  1.202907462E+02  0.000000000E+00  0.00000E+00  9.000E+00
      21    -1     0     0   512   502  0.000000000E+00  0.000000000E+00 -3.377845052E+02  3.377845052E+02  0.000000000E+00  0.00000E+00  9.000E+00
      25     1     1     2     0     0 -2.826846311E+01  9.253091043E+01 -8.445059598E+01  1.792148949E+02  1.250000000E+02  0.00000E+00  9.000E+00
      25     1     1     2     0     0  5.634970952E+01 -1.185957912E+02 -5.102032802E+01  1.883303622E+02  1.250000000E+02  0.00000E+00  9.000E+00
      21     1     1     2   512   501 -2.808124641E+01  2.606488078E+01 -8.202283496E+01  9.052999428E+01  1.907348633E-06  0.00000E+00  9.000E+00
#rwgt            1           1   4.0781101264464263E-002           6      161236           0
</event>
<event>
      5   9999 -3.79277E-02  3.49616E+01 -1.00000E+00  1.48562E-01
      21    -1     0     0   502   501  0.000000000E+00  0.000000000E+00  1.257696166E+02  1.257696166E+02  0.000000000E+00  0.00000E+00  9.000E+00
      21    -1     0     0   511   502  0.000000000E+00  0.000000000E+00 -7.486027771E+02  7.486027771E+02  0.000000000E+00  0.00000E+00  9.000E+00
      25     1     1     2     0     0  1.223290143E+02 -2.487274444E+01  3.317751777E+01  1.797464571E+02  1.250000000E+02  0.00000E+00  9.000E+00
      25     1     1     2     0     0 -1.474105607E+02  5.164539984E-01 -5.465222125E+02  5.796910115E+02  1.250000000E+02  0.00000E+00  9.000E+00
      21     1     1     2   511   501  2.508154633E+01  2.435629044E+01 -1.094884658E+02  1.149349250E+02  0.000000000E+00  0.00000E+00  9.000E+00
#rwgt            1           1  -9.3696428170784111E-003           6      161350           0
</event>
<event>
      5   9999  3.79277E-02  1.40024E+02 -1.00000E+00  1.17591E-01
      21    -1     0     0   502   512  0.000000000E+00  0.000000000E+00  8.671521001E+01  8.671521001E+01  0.000000000E+00  0.00000E+00  9.000E+00
      21    -1     0     0   501   502  0.000000000E+00  0.000000000E+00 -2.150641553E+03  2.150641553E+03  0.000000000E+00  0.00000E+00  9.000E+00
      25     1     1     2     0     0 -1.223650849E+02  1.984059441E+02 -7.376184104E+02  7.836096299E+02  1.250000000E+02  0.00000E+00  9.000E+00
      25     1     1     2     0     0  2.546489289E+02 -2.443164676E+02 -1.224960952E+03  1.280894589E+03  1.250000000E+02  0.00000E+00  9.000E+00
      21     1     1     2   501   512 -1.322838440E+02  4.591052352E+01 -1.013469798E+02  1.728525437E+02  1.907348633E-06  0.00000E+00  9.000E+00
#rwgt            2          11   7.3037520632235637E-003           6      161584           0
</event>
<event>
      5   9999 -3.79277E-02  5.40001E+01 -1.00000E+00  1.37195E-01
      21    -1     0     0   502   501  0.000000000E+00  0.000000000E+00  8.994743311E+01  8.994743311E+01  0.000000000E+00  0.00000E+00  9.000E+00
      21    -1     0     0   511   502  0.000000000E+00  0.000000000E+00 -1.286245090E+03  1.286245090E+03  0.000000000E+00  0.00000E+00  9.000E+00
      25     1     1     2     0     0  1.831925825E+02  5.951284542E+01 -4.591331942E+02  5.133513330E+02  1.250000000E+02  0.00000E+00  9.000E+00
      25     1     1     2     0     0 -2.346605598E+02 -7.585461031E+01 -2.501843770E+02  3.728762834E+02  1.250000000E+02  0.00000E+00  9.000E+00
      21     1     1     2   511   501  5.146797726E+01  1.634176489E+01 -4.869800859E+02  4.899649069E+02  7.629394531E-06  0.00000E+00  9.000E+00
#rwgt            1           1 -0.32097570442598283                6      161604           0
</event>
<event>
      5   9999  3.79277E-02  3.84561E+01 -1.00000E+00  1.45908E-01
      21    -1     0     0   512   501  0.000000000E+00  0.000000000E+00  5.806913125E+01  5.806913125E+01  0.000000000E+00  0.00000E+00  9.000E+00
      21    -1     0     0   501   502  0.000000000E+00  0.000000000E+00 -8.742794374E+02  8.742794374E+02  0.000000000E+00  0.00000E+00  9.000E+00
      25     1     1     2     0     0 -6.714129909E+01 -1.118419445E+02 -2.350921756E+02  2.964960465E+02  1.250000000E+02  0.00000E+00  9.000E+00
      25     1     1     2     0     0  8.161126578E+01  1.474718209E+02 -5.410419670E+02  5.803100436E+02  1.250000000E+02  0.00000E+00  9.000E+00
      21     1     1     2   512   502 -1.446996669E+01 -3.562987646E+01 -4.007616353E+01  5.554247848E+01  1.507891493E-06  0.00000E+00  9.000E+00
#rwgt            1           1   3.6127002644547150E-002           6      161696           0
</event>
<event>
      5   9999 -3.79277E-02  1.60564E+02 -1.00000E+00  1.15234E-01
      21    -1     0     0   502   501  0.000000000E+00  0.000000000E+00  1.574335389E+02  1.574335389E+02  0.000000000E+00  0.00000E+00  9.000E+00
      21    -1     0     0   501   511  0.000000000E+00  0.000000000E+00 -9.360674873E+02  9.360674873E+02  0.000000000E+00  0.00000E+00  9.000E+00
      25     1     1     2     0     0 -3.531651091E+01  2.438531097E+01 -4.353657192E+02  4.549837456E+02  1.250000000E+02  0.00000E+00  9.000E+00
      25     1     1     2     0     0  1.504967018E+02  8.748254809E+01  4.444904277E+01  2.188679302E+02  1.250000000E+02  0.00000E+00  9.000E+00
      21     1     1     2   502   511 -1.151801909E+02 -1.118678591E+02 -3.877172721E+02  4.196493504E+02  0.000000000E+00  0.00000E+00  9.000E+00
#rwgt            1           1  -2.8083192603441397E-002           6      161800           0
</event>
<event>
      5   9999  3.79277E-02  1.06861E+02 -1.00000E+00  1.22545E-01
      21    -1     0     0   502   501  0.000000000E+00  0.000000000E+00  1.785682701E+02  1.785682701E+02  0.000000000E+00  0.00000E+00  9.000E+00
      21    -1     0     0   512   502  0.000000000E+00  0.000000000E+00 -3.911039667E+02  3.911039667E+02  0.000000000E+00  0.00000E+00  9.000E+00
      25     1     1     2     0     0  8.178600084E+01  1.027271610E+02  5.867659070E+01  1.905512053E+02  1.250000000E+02  0.00000E+00  9.000E+00
      25     1     1     2     0     0  1.385600184E+01 -5.506298992E+01 -2.230310567E+02  2.619003129E+02  1.250000000E+02  0.00000E+00  9.000E+00
      21     1     1     2   512   501 -9.564200268E+01 -4.766417110E+01 -4.818123070E+01  1.172207186E+02  2.336015456E-06  0.00000E+00  9.000E+00
#rwgt            1           1   4.6078909535286663E-002           6      161842           0
</event>
<event>
      5   9999  3.79277E-02  2.40146E+01 -1.00000E+00  1.60070E-01
      21    -1     0     0   502   501  0.000000000E+00  0.000000000E+00  1.275449272E+02  1.275449272E+02  0.000000000E+00  0.00000E+00  9.000E+00
      21    -1     0     0   501   511  0.000000000E+00  0.000000000E+00 -3.603429397E+02  3.603429397E+02  0.000000000E+00  0.00000E+00  9.000E+00
      25     1     1     2     0     0 -1.271630252E+02  7.711542997E+01 -3.638034804E+01  1.976505862E+02  1.250000000E+02  0.00000E+00  9.000E+00
      25     1     1     2     0     0  1.320854445E+02 -5.361078019E+01 -1.766141699E+02  2.591104888E+02  1.250000000E+02  0.00000E+00  9.000E+00
      21     1     1     2   502   511 -4.922419281E+00 -2.350464978E+01 -1.980349454E+01  3.112679181E+01  4.129530925E-07  0.00000E+00  9.000E+00
#rwgt            1           1   3.6525533562314631E-002           6      161976           0
</event>
<event>
      5   9999  3.79277E-02  7.26047E+01 -1.00000E+00  1.30422E-01
      21    -1     0     0   512   501  0.000000000E+00  0.000000000E+00  1.700395721E+02  1.700395721E+02  0.000000000E+00  0.00000E+00  9.000E+00
      21    -1     0     0   501   502  0.000000000E+00  0.000000000E+00 -2.846326077E+02  2.846326077E+02  0.000000000E+00  0.00000E+00  9.000E+00
      25     1     1     2     0     0 -9.238415892E+01  5.911788331E+00 -8.834306280E+01  1.788834224E+02  1.250000000E+02  0.00000E+00  9.000E+00
      25     1     1     2     0     0  8.516964797E+01  6.633355851E+01 -8.185760590E+01  1.843357740E+02  1.250000000E+02  0.00000E+00  9.000E+00
      21     1     1     2   512   502  7.214510946E+00 -7.224534684E+01  5.560763308E+01  9.145298336E+01  6.743495762E-07  0.00000E+00  9.000E+00
#rwgt            1           1   4.3195598078048708E-002           6      162302           0
</event>
<event>
      5   9999  3.79277E-02  5.37564E+01 -1.00000E+00  1.37304E-01
      -1    -1     0     0     0   501  0.000000000E+00  0.000000000E+00  5.770703213E+02  5.770703213E+02  0.000000000E+00  0.00000E+00  9.000E+00
      21    -1     0     0   501   502  0.000000000E+00  0.000000000E+00 -1.495575140E+03  1.495575140E+03  0.000000000E+00  0.00000E+00  9.000E+00
      25     1     1     2     0     0  8.038611358E+01 -4.598009869E+01 -1.714825038E+02  2.315326021E+02  1.250000000E+02  0.00000E+00  9.000E+00
      25     1     1     2     0     0 -1.337520153E+02  5.244783593E+01 -1.285716486E+03  1.299743151E+03  1.250000000E+02  0.00000E+00  9.000E+00
      -1     1     1     2     0   502  5.336590171E+01 -6.467737234E+00  5.386941709E+02  5.413697081E+02  1.321449896E-05  0.00000E+00  9.000E+00
#rwgt            1           1   4.4820196417187763E-002           6      162429           0
</event>
<event>
      5   9999  3.79277E-02  1.26017E+02 -1.00000E+00  1.19473E-01
      21    -1     0     0   502   501  0.000000000E+00  0.000000000E+00  1.221829069E+02  1.221829069E+02  0.000000000E+00  0.00000E+00  9.000E+00
      21    -1     0     0   501   511  0.000000000E+00  0.000000000E+00 -4.918510240E+02  4.918510240E+02  0.000000000E+00  0.00000E+00  9.000E+00
      25     1     1     2     0     0  3.156418632E+01 -3.933486563E+01 -2.638445370E+02  2.962810645E+02  1.250000000E+02  0.00000E+00  9.000E+00
      25     1     1     2     0     0  1.286149699E+01 -7.859138646E+01  7.323747865E+00  1.483936030E+02  1.250000000E+02  0.00000E+00  9.000E+00
      21     1     1     2   502   511 -4.442568332E+01  1.179262521E+02 -1.131473280E+02  1.693592634E+02  0.000000000E+00  0.00000E+00  9.000E+00
#rwgt            1           1   5.5881848446207708E-002           6      162546           0
</event>
<event>
      5   9999 -3.79277E-02  1.50128E+01 -1.00000E+00  1.77349E-01
      21    -1     0     0   502   512  0.000000000E+00  0.000000000E+00  1.578752561E+02  1.578752561E+02  0.000000000E+00  0.00000E+00  9.000E+00
      21    -1     0     0   501   502  0.000000000E+00  0.000000000E+00 -1.001967565E+03  1.001967565E+03  0.000000000E+00  0.00000E+00  9.000E+00
      25     1     1     2     0     0 -4.160204957E+01  1.340589210E+02 -9.188982330E+02  9.379240307E+02  1.250000000E+02  0.00000E+00  9.000E+00
      25     1     1     2     0     0  2.923630169E+01 -1.425720082E+02  6.045458013E+01  2.011499320E+02  1.250000000E+02  0.00000E+00  9.000E+00
      21     1     1     2   501   512  1.236574789E+01  8.513087201E+00  1.435134438E+01  2.076885794E+01  1.685873940E-07  0.00000E+00  9.000E+00
#rwgt            1           1  -1.6748528292872211E-002           6      162588           0
</event>
<event>
      5   9999  3.79277E-02  8.15692E+00 -1.00000E+00  2.06574E-01
      21    -1     0     0   502   501  0.000000000E+00  0.000000000E+00  2.016327150E+02  2.016327150E+02  0.000000000E+00  0.00000E+00  9.000E+00
       1    -1     0     0   501     0  0.000000000E+00  0.000000000E+00 -8.733516626E+02  8.733516626E+02  0.000000000E+00  0.00000E+00  9.000E+00
      25     1     1     2     0     0 -5.668320739E+01  9.200674084E+01 -3.264550377E+01  1.684308620E+02  1.250000000E+02  0.00000E+00  9.000E+00
      25     1     1     2     0     0  4.866125426E+01 -9.052903819E+01  8.475467033E+01  1.826794421E+02  1.250000000E+02  0.00000E+00  9.000E+00
       1     1     1     2   502     0  8.021953131E+00 -1.477702644E+00 -7.238281142E+02  7.238740734E+02  1.078959322E-05  0.00000E+00  9.000E+00
#rwgt            1           1   4.4690161817097618E-002           6      162862           0
</event>
<event>
      5   9999  3.79277E-02  1.51476E+02 -1.00000E+00  1.16225E-01
      21    -1     0     0   502   501  0.000000000E+00  0.000000000E+00  1.262986778E+02  1.262986778E+02  0.000000000E+00  0.00000E+00  9.000E+00
       2    -1     0     0   501     0  0.000000000E+00  0.000000000E+00 -3.055167978E+03  3.055167978E+03  0.000000000E+00  0.00000E+00  9.000E+00
      25     1     1     2     0     0  5.515088562E+01  1.454228998E+02  2.274115056E+01  2.008272887E+02  1.250000000E+02  0.00000E+00  9.000E+00
      25     1     1     2     0     0  7.649823160E+01 -7.050066410E+01 -5.322240511E+02  5.565157353E+02  1.250000000E+02  0.00000E+00  9.000E+00
       2     1     1     2   502     0 -1.316491172E+02 -7.492223567E+01 -2.419386399E+03  2.424123631E+03  3.051757812E-05  0.00000E+00  9.000E+00
#rwgt            1           1   4.1248166824979754E-002           6      163126           0
</event>
<event>
      5   9999  3.79277E-02  4.74938E+01 -1.00000E+00  1.40362E-01
      21    -1     0     0   502   501  0.000000000E+00  0.000000000E+00  1.429923252E+02  1.429923252E+02  0.000000000E+00  0.00000E+00  9.000E+00
      21    -1     0     0   511   502  0.000000000E+00  0.000000000E+00 -2.690382373E+02  2.690382373E+02  0.000000000E+00  0.00000E+00  9.000E+00
      25     1     1     2     0     0 -1.050416675E+02 -5.709217632E+01 -2.394261579E+01  1.746182046E+02  1.250000000E+02  0.00000E+00  9.000E+00
      25     1     1     2     0     0  6.811511421E+01  8.696000286E+01 -7.787549659E+01  1.840959094E+02  1.250000000E+02  0.00000E+00  9.000E+00
      21     1     1     2   511   501  3.692655333E+01 -2.986782653E+01 -2.422779979E+01  5.331644855E+01  1.261592536E-06  0.00000E+00  9.000E+00
#rwgt            1           1   2.8586417241723706E-002           6      163219           0
</event>
<event>
      5   9999  3.79277E-02  4.06690E+01 -1.00000E+00  1.44395E-01
      21    -1     0     0   502   501  0.000000000E+00  0.000000000E+00  1.445437482E+03  1.445437482E+03  0.000000000E+00  0.00000E+00  9.000E+00
      21    -1     0     0   501   512  0.000000000E+00  0.000000000E+00 -8.720922557E+02  8.720922557E+02  0.000000000E+00  0.00000E+00  9.000E+00
      25     1     1     2     0     0 -1.096751859E+01 -7.144904592E+01 -8.631563230E+00  1.446539198E+02  1.250000000E+02  0.00000E+00  9.000E+00
      25     1     1     2     0     0  2.031165938E+01  1.110299909E+02  1.371752910E+03  1.382053280E+03  1.250000000E+02  0.00000E+00  9.000E+00
      21     1     1     2   502   512 -9.344140790E+00 -3.958094498E+01 -7.897761211E+02  7.908225374E+02  1.868812365E-05  0.00000E+00  9.000E+00
#rwgt            1           1   2.8545956073877839E-002           6      163337           0
</event>
<event>
      5   9999  3.79277E-02  3.55299E+01 -1.00000E+00  1.48106E-01
      21    -1     0     0   502   501  0.000000000E+00  0.000000000E+00  4.715559873E+02  4.715559873E+02  0.000000000E+00  0.00000E+00  9.000E+00
      21    -1     0     0   511   502  0.000000000E+00  0.000000000E+00 -2.110421143E+02  2.110421143E+02  0.000000000E+00  0.00000E+00  9.000E+00
      25     1     1     2     0     0 -6.071265142E+01  7.940655074E+01 -2.705790970E+01  1.623223855E+02  1.250000000E+02  0.00000E+00  9.000E+00
      25     1     1     2     0     0  2.534089250E+01 -7.605783931E+01  3.870944218E+02  4.146010699E+02  1.250000000E+02  0.00000E+00  9.000E+00
      21     1     1     2   511   501  3.537175892E+01 -3.348711434E+00 -9.952263899E+01  1.056746463E+02  1.348699152E-06  0.00000E+00  9.000E+00
#rwgt            1           1   3.4333638998436639E-002           6      163453           0
</event>
<event>
      5   9999  3.79277E-02  2.81219E+01 -1.00000E+00  1.55016E-01
      21    -1     0     0   512   501  0.000000000E+00  0.000000000E+00  9.763830446E+01  9.763830446E+01  0.000000000E+00  0.00000E+00  9.000E+00
      21    -1     0     0   501   502  0.000000000E+00  0.000000000E+00 -5.442605525E+02  5.442605525E+02  0.000000000E+00  0.00000E+00  9.000E+00
      25     1     1     2     0     0  7.254383415E+01 -1.133358283E+02 -3.184629001E+02  3.676292107E+02  1.250000000E+02  0.00000E+00  9.000E+00
      25     1     1     2     0     0 -5.071435845E+01  1.310647955E+02 -1.484359714E+02  2.396000091E+02  1.250000000E+02  0.00000E+00  9.000E+00
      21     1     1     2   512   502 -2.182947570E+01 -1.772896716E+01  2.027662338E+01  3.466963717E+01  9.830249847E-07  0.00000E+00  9.000E+00
#rwgt            1           1   3.2697789294470252E-002           6      163658           0
</event>
<event>
      5   9999  3.79277E-02  1.24275E+02 -1.00000E+00  1.19726E-01
      21    -1     0     0   502   501  0.000000000E+00  0.000000000E+00  5.784516456E+01  5.784516456E+01  0.000000000E+00  0.00000E+00  9.000E+00
      21    -1     0     0   511   502  0.000000000E+00  0.000000000E+00 -2.362235103E+03  2.362235103E+03  0.000000000E+00  0.00000E+00  9.000E+00
      25     1     1     2     0     0 -2.850976142E+00 -1.631156129E+02 -2.270332270E+02  3.062415998E+02  1.250000000E+02  0.00000E+00  9.000E+00
      25     1     1     2     0     0  1.212276757E+02  2.009485697E+02 -1.479164725E+03  1.502873834E+03  1.250000000E+02  0.00000E+00  9.000E+00
      21     1     1     2   511   501 -1.183766996E+02 -3.783295679E+01 -5.981919867E+02  6.109648341E+02  7.629394531E-06  0.00000E+00  9.000E+00
#rwgt            1           1   5.3295462562595985E-002           6      163971           0
</event>
<event>
      5   9999  3.79277E-02  1.01138E+02 -1.00000E+00  1.23607E-01
      21    -1     0     0   502   501  0.000000000E+00  0.000000000E+00  5.438387487E+01  5.438387487E+01  0.000000000E+00  0.00000E+00  9.000E+00
      21    -1     0     0   501   512  0.000000000E+00  0.000000000E+00 -1.359653730E+03  1.359653730E+03  0.000000000E+00  0.00000E+00  9.000E+00
      25     1     1     2     0     0 -1.048405507E+01 -1.415242275E+02 -4.540082909E+02  4.918206488E+02  1.250000000E+02  0.00000E+00  9.000E+00
      25     1     1     2     0     0  8.960740149E+01  7.852838723E+01 -2.047855381E+02  2.678774171E+02  1.250000000E+02  0.00000E+00  9.000E+00
      21     1     1     2   502   512 -7.912334642E+01  6.299584022E+01 -6.464760265E+02  6.543395393E+02  1.321449896E-05  0.00000E+00  9.000E+00
#rwgt            1           1   6.0610157784885800E-002           6      164084           0
</event>
<event>
      5   9999  3.79277E-02  1.00732E+02 -1.00000E+00  1.23686E-01
      21    -1     0     0   511   501  0.000000000E+00  0.000000000E+00  6.407532315E+01  6.407532315E+01  0.000000000E+00  0.00000E+00  9.000E+00
      21    -1     0     0   501   502  0.000000000E+00  0.000000000E+00 -1.431612575E+03  1.431612575E+03  0.000000000E+00  0.00000E+00  9.000E+00
      25     1     1     2     0     0 -4.057046617E+01 -1.396531639E+02 -7.936867434E+02  8.165247183E+02  1.250000000E+02  0.00000E+00  9.000E+00
      25     1     1     2     0     0 -5.916753243E+01  1.537665368E+02 -5.307116317E+02  5.695829885E+02  1.250000000E+02  0.00000E+00  9.000E+00
      21     1     1     2   511   502  9.973799861E+01 -1.411337288E+01 -4.313887676E+01  1.095801914E+02  1.261592536E-06  0.00000E+00  9.000E+00
#rwgt            1           1   3.7303870949778856E-002           6      164311           0
</event>
<event>
      5   9999  3.79277E-02  7.18776E+01 -1.00000E+00  1.30641E-01
      21    -1     0     0   502   501  0.000000000E+00  0.000000000E+00  7.467161669E+01  7.467161669E+01  0.000000000E+00  0.00000E+00  9.000E+00
      21    -1     0     0   512   502  0.000000000E+00  0.000000000E+00 -9.708332393E+02  9.708332393E+02  0.000000000E+00  0.00000E+00  9.000E+00
      25     1     1     2     0     0  1.414806815E+02  6.537686201E+01 -1.422385318E+02  2.452503155E+02  1.250000000E+02  0.00000E+00  9.000E+00
      25     1     1     2     0     0 -9.181827138E+01 -1.341498057E+01 -2.753330429E+02  3.162970774E+02  1.250000000E+02  0.00000E+00  9.000E+00
      21     1     1     2   512   501 -4.966241012E+01 -5.196188145E+01 -4.785900479E+02  4.839574631E+02  5.394796609E-06  0.00000E+00  9.000E+00
#rwgt            1           1   4.2627130595737618E-002           6      164403           0
</event>
<event>
      5   9999  3.79277E-02  3.04625E+01 -1.00000E+00  1.52580E-01
      21    -1     0     0   511   501  0.000000000E+00  0.000000000E+00  1.118621520E+02  1.118621520E+02  0.000000000E+00  0.00000E+00  9.000E+00
      21    -1     0     0   501   502  0.000000000E+00  0.000000000E+00 -6.015173765E+02  6.015173765E+02  0.000000000E+00  0.00000E+00  9.000E+00
      25     1     1     2     0     0  1.372259153E+02  9.939854870E+01 -6.064985194E+01  2.191219474E+02  1.250000000E+02  0.00000E+00  9.000E+00
      25     1     1     2     0     0 -1.216345563E+02 -7.322851904E+01 -4.227754400E+02  4.631646079E+02  1.250000000E+02  0.00000E+00  9.000E+00
      21     1     1     2   511   502 -1.559135899E+01 -2.617002966E+01 -6.229932534E+00  3.109297327E+01  3.475518164E-07  0.00000E+00  9.000E+00
#rwgt            1           1  0.14359819611369862                6      164509           0
</event>
<event>
      5   9999  3.79277E-02  2.01556E+01 -1.00000E+00  1.66092E-01
      21    -1     0     0   502   512  0.000000000E+00  0.000000000E+00  2.463267808E+02  2.463267808E+02  0.000000000E+00  0.00000E+00  9.000E+00
      21    -1     0     0   501   502  0.000000000E+00  0.000000000E+00 -2.472011897E+02  2.472011897E+02  0.000000000E+00  0.00000E+00  9.000E+00
      25     1     1     2     0     0 -6.511628426E+01 -1.507771217E+02 -9.318763827E+01  2.264570750E+02  1.250000000E+02  0.00000E+00  9.000E+00
      25     1     1     2     0     0  5.563565888E+01  1.329904089E+02  1.982511648E+01  1.918327674E+02  1.250000000E+02  0.00000E+00  9.000E+00
      21     1     1     2   501   512  9.480625375E+00  1.778671272E+01  7.248811291E+01  7.523812810E+01  0.000000000E+00  0.00000E+00  9.000E+00
#rwgt            1           1   4.1510445120255035E-002           6      164725           0
</event>
<event>
      5   9999  3.79277E-02  1.81516E+01 -1.00000E+00  1.69921E-01
      21    -1     0     0   502   501  0.000000000E+00  0.000000000E+00  7.183099881E+02  7.183099881E+02  0.000000000E+00  0.00000E+00  9.000E+00
      21    -1     0     0   511   502  0.000000000E+00  0.000000000E+00 -1.748601081E+02  1.748601081E+02  0.000000000E+00  0.00000E+00  9.000E+00
      25     1     1     2     0     0  8.568830811E+00 -4.190021145E+01  5.181395923E+02  5.347173924E+02  1.250000000E+02  0.00000E+00  9.000E+00
      25     1     1     2     0     0 -2.014051027E+01  5.588509948E+01  1.662683958E+02  2.163306820E+02  1.250000000E+02  0.00000E+00  9.000E+00
      21     1     1     2   511   501  1.157167946E+01 -1.398488803E+01 -1.409581082E+02  1.421220219E+02  2.697398305E-06  0.00000E+00  9.000E+00
#rwgt            1           1   3.1121579920968222E-002           6      164909           0
</event>
<event>
      5   9999  3.79277E-02  7.44658E+01 -1.00000E+00  1.29875E-01
      21    -1     0     0   502   501  0.000000000E+00  0.000000000E+00  1.900849640E+02  1.900849640E+02  0.000000000E+00  0.00000E+00  9.000E+00
      21    -1     0     0   512   502  0.000000000E+00  0.000000000E+00 -3.939848572E+02  3.939848572E+02  0.000000000E+00  0.00000E+00  9.000E+00
      25     1     1     2     0     0  1.123206265E+02  1.682714548E+01 -2.251123379E+02  2.814243071E+02  1.250000000E+02  0.00000E+00  9.000E+00
      25     1     1     2     0     0 -4.986766993E+01 -5.738316414E+01  1.127037882E+02  1.846801448E+02  1.250000000E+02  0.00000E+00  9.000E+00
      21     1     1     2   512   501 -6.245295654E+01  4.055601865E+01 -9.149134339E+01  1.179653693E+02  1.348699152E-06  0.00000E+00  9.000E+00
#rwgt            2          11   2.2309567708643607E-003           6      165161           0
</event>
<event>
      5   9999  3.79277E-02  7.90701E+01 -1.00000E+00  1.28596E-01
      21    -1     0     0   502   501  0.000000000E+00  0.000000000E+00  4.142128472E+02  4.142128472E+02  0.000000000E+00  0.00000E+00  9.000E+00
      21    -1     0     0   501   511  0.000000000E+00  0.000000000E+00 -1.412442982E+02  1.412442982E+02  0.000000000E+00  0.00000E+00  9.000E+00
      25     1     1     2     0     0 -7.553603383E+01 -1.632907004E+02  6.464383932E+01  2.284149102E+02  1.250000000E+02  0.00000E+00  9.000E+00
      25     1     1     2     0     0  4.119055817E+01  9.206942333E+01  1.841575992E+02  2.443613352E+02  1.250000000E+02  0.00000E+00  9.000E+00
      21     1     1     2   502   511  3.434547566E+01  7.122127705E+01  2.416711047E+01  8.268090004E+01  4.768371582E-07  0.00000E+00  9.000E+00
#rwgt            2          11   2.7310493637226060E-003           6      165286           0
</event>
<event>
      5   9999  3.79277E-02  8.38739E+00 -1.00000E+00  2.05021E-01
      21    -1     0     0   502   501  0.000000000E+00  0.000000000E+00  4.741329503E+02  4.741329503E+02  0.000000000E+00  0.00000E+00  9.000E+00
      21    -1     0     0   501   512  0.000000000E+00  0.000000000E+00 -1.469233832E+02  1.469233832E+02  0.000000000E+00  0.00000E+00  9.000E+00
      25     1     1     2     0     0  2.078995046E+02  5.461310906E+01  2.319992606E+02  3.400785977E+02  1.250000000E+02  0.00000E+00  9.000E+00
      25     1     1     2     0     0 -2.161211173E+02 -5.627245937E+01  9.301130244E+01  2.723068663E+02  1.250000000E+02  0.00000E+00  9.000E+00
      21     1     1     2   502   512  8.221612764E+00  1.659350313E+00  2.199004179E+00  8.670869580E+00  1.032382731E-07  0.00000E+00  9.000E+00
#rwgt            1           1   1.8697500508845423E-002           6      165336           0
</event>
<event>
      5   9999  3.79277E-02  7.29956E+01 -1.00000E+00  1.30306E-01
      21    -1     0     0   502   501  0.000000000E+00  0.000000000E+00  8.153069656E+02  8.153069656E+02  0.000000000E+00  0.00000E+00  9.000E+00
      21    -1     0     0   501   511  0.000000000E+00  0.000000000E+00 -1.561726650E+03  1.561726650E+03  0.000000000E+00  0.00000E+00  9.000E+00
      25     1     1     2     0     0 -2.502759388E+01 -3.857767333E+01  7.033735967E+02  7.158729174E+02  1.250000000E+02  0.00000E+00  9.000E+00
      25     1     1     2     0     0  9.456540474E+01  6.077779487E+01  3.736329849E+01  1.722137399E+02  1.250000000E+02  0.00000E+00  9.000E+00
      21     1     1     2   502   511 -6.953781086E+01 -2.220012154E+01 -1.487156580E+03  1.488946959E+03  2.157918644E-05  0.00000E+00  9.000E+00
#rwgt            1           1   5.0681540122122802E-002           6      165786           0
</event>
<event>
      5   9999  3.79277E-02  2.96846E+01 -1.00000E+00  1.53359E-01
      21    -1     0     0   502   501  0.000000000E+00  0.000000000E+00  1.806625742E+01  1.806625742E+01  0.000000000E+00  0.00000E+00  9.000E+00
      21    -1     0     0   501   512  0.000000000E+00  0.000000000E+00 -2.406745294E+03  2.406745294E+03  0.000000000E+00  0.00000E+00  9.000E+00
      25     1     1     2     0     0  7.989990299E+01 -9.250550512E+01 -7.124632895E+02  7.336008464E+02  1.250000000E+02  0.00000E+00  9.000E+00
      25     1     1     2     0     0 -8.629573417E+01  1.214928944E+02 -1.490479627E+03  1.503117426E+03  1.250000000E+02  0.00000E+00  9.000E+00
      21     1     1     2   502   512  6.395831185E+00 -2.898738929E+01 -1.857361205E+02  1.880932797E+02  3.814697266E-06  0.00000E+00  9.000E+00
#rwgt            1           1  0.10731387712871454                6      165900           0
</event>
<event>
      5   9999  3.79277E-02  9.41166E+00 -1.00000E+00  1.98851E-01
      21    -1     0     0   502   511  0.000000000E+00  0.000000000E+00  8.550410401E+01  8.550410401E+01  0.000000000E+00  0.00000E+00  9.000E+00
      21    -1     0     0   501   502  0.000000000E+00  0.000000000E+00 -3.629480523E+02  3.629480523E+02  0.000000000E+00  0.00000E+00  9.000E+00
      25     1     1     2     0     0  1.869331535E+01  1.079535254E+02 -1.675383874E+02  2.360032096E+02  1.250000000E+02  0.00000E+00  9.000E+00
      25     1     1     2     0     0 -2.796189267E+01 -1.095883754E+02 -1.125269564E+02  2.026790452E+02  1.250000000E+02  0.00000E+00  9.000E+00
      21     1     1     2   501   511  9.268577320E+00  1.634849988E+00  2.621395488E+00  9.769901449E+00  1.548574097E-07  0.00000E+00  9.000E+00
#rwgt            1           1   2.6742176038618500E-002           6      166011           0
</event>
<event>
      5   9999  3.79277E-02  4.83680E+00 -1.00000E+00  2.45434E-01
      21    -1     0     0   502   501  0.000000000E+00  0.000000000E+00  9.498254895E+02  9.498254895E+02  0.000000000E+00  0.00000E+00  9.000E+00
      21    -1     0     0   512   502  0.000000000E+00  0.000000000E+00 -5.077102076E+01  5.077102076E+01  0.000000000E+00  0.00000E+00  9.000E+00
      25     1     1     2     0     0 -1.427210470E+02 -7.154944389E+01  6.104767152E+02  6.432693370E+02  1.250000000E+02  0.00000E+00  9.000E+00
      25     1     1     2     0     0  1.444466291E+02  7.606796072E+01  2.787972299E+02  3.464160197E+02  1.250000000E+02  0.00000E+00  9.000E+00
      21     1     1     2   512   501 -1.725582148E+00 -4.518516840E+00  9.780523648E+00  1.091115351E+01  1.685873940E-07  0.00000E+00  9.000E+00
#rwgt            1           1   3.6279334394575806E-002           6      166262           0
</event>
<event>
      5   9999  3.79277E-02  2.98583E+01 -1.00000E+00  1.53183E-01
      21    -1     0     0   502   511  0.000000000E+00  0.000000000E+00  9.003375443E+02  9.003375443E+02  0.000000000E+00  0.00000E+00  9.000E+00
      21    -1     0     0   501   502  0.000000000E+00  0.000000000E+00 -1.042570422E+02  1.042570422E+02  0.000000000E+00  0.00000E+00  9.000E+00
      25     1     1     2     0     0  1.021304320E+02  1.076973611E+02  9.063659704E+01  2.141712853E+02  1.250000000E+02  0.00000E+00  9.000E+00
      25     1     1     2     0     0 -7.604276357E+01 -1.222215341E+02  1.739085270E+02  2.580499584E+02  1.250000000E+02  0.00000E+00  9.000E+00
      21     1     1     2   501   511 -2.608766839E+01  1.452417302E+01  5.315353780E+02  5.323733428E+02  1.078959322E-05  0.00000E+00  9.000E+00
#rwgt            1           1   4.0104961763506523E-002           6      166815           0
</event>
<event>
      5   9999  3.79277E-02  2.53810E+01 -1.00000E+00  1.58260E-01
      21    -1     0     0   502   512  0.000000000E+00  0.000000000E+00  3.300299145E+02  3.300299145E+02  0.000000000E+00  0.00000E+00  9.000E+00
      21    -1     0     0   501   502  0.000000000E+00  0.000000000E+00 -4.074786632E+02  4.074786632E+02  0.000000000E+00  0.00000E+00  9.000E+00
      25     1     1     2     0     0  1.682530395E+02 -8.153647910E+01  2.806369669E+01  2.266491866E+02  1.250000000E+02  0.00000E+00  9.000E+00
      25     1     1     2     0     0 -1.879346641E+02  6.551052340E+01 -2.622084110E+02  3.521211687E+02  1.250000000E+02  0.00000E+00  9.000E+00
      21     1     1     2   501   512  1.968162459E+01  1.602595570E+01  1.566959656E+02  1.587382224E+02  2.697398305E-06  0.00000E+00  9.000E+00
#rwgt            1           1   3.7572435212442287E-002           6      166985           0
</event>
<event>
      5   9999  3.79277E-02  1.89454E+02 -1.00000E+00  1.12511E-01
      21    -1     0     0   502   511  0.000000000E+00  0.000000000E+00  2.563756464E+02  2.563756464E+02  0.000000000E+00  0.00000E+00  9.000E+00
      21    -1     0     0   501   502  0.000000000E+00  0.000000000E+00 -1.413937155E+03  1.413937155E+03  0.000000000E+00  0.00000E+00  9.000E+00
      25     1     1     2     0     0 -4.293841538E+02  2.227144700E+02 -4.022094723E+02  6.413812800E+02  1.250000000E+02  0.00000E+00  9.000E+00
      25     1     1     2     0     0  2.670531092E+02 -1.250336341E+02 -7.748933787E+02  8.384721350E+02  1.250000000E+02  0.00000E+00  9.000E+00
      21     1     1     2   501   511  1.623310446E+02 -9.768083582E+01  1.954134255E+01  1.904593862E+02  4.702349406E-06  0.00000E+00  9.000E+00
#rwgt            1           1   2.7520180347891259E-002           6      167356           0
</event>
<event>
      5   9999  3.79277E-02  8.23089E+00 -1.00000E+00  2.06068E-01
      21    -1     0     0   512   501  0.000000000E+00  0.000000000E+00  6.004525201E+01  6.004525201E+01  0.000000000E+00  0.00000E+00  9.000E+00
      21    -1     0     0   501   502  0.000000000E+00  0.000000000E+00 -8.809124627E+02  8.809124627E+02  0.000000000E+00  0.00000E+00  9.000E+00
      25     1     1     2     0     0  1.302316397E+02 -1.221026218E+02 -3.122583152E+02  3.807881112E+02  1.250000000E+02  0.00000E+00  9.000E+00
      25     1     1     2     0     0 -1.384620315E+02  1.220124010E+02 -5.030962421E+02  5.502631997E+02  1.250000000E+02  0.00000E+00  9.000E+00
      21     1     1     2   512   502  8.230391769E+00  9.022080820E-02 -5.512653408E+00  9.906403791E+00  8.429369702E-08  0.00000E+00  9.000E+00
#rwgt            1           1   6.1852706591253095E-002           6      167604           0
</event>
<event>
      5   9999  3.79277E-02  7.25108E+01 -1.00000E+00  1.30450E-01
      21    -1     0     0   502   501  0.000000000E+00  0.000000000E+00  2.331430692E+02  2.331430692E+02  0.000000000E+00  0.00000E+00  9.000E+00
      21    -1     0     0   511   502  0.000000000E+00  0.000000000E+00 -6.166288484E+02  6.166288484E+02  0.000000000E+00  0.00000E+00  9.000E+00
      25     1     1     2     0     0 -9.229710162E+01  6.538509819E+00  1.150647928E+02  1.934590748E+02  1.250000000E+02  0.00000E+00  9.000E+00
      25     1     1     2     0     0  1.608711479E+02  1.702891478E+01 -6.178540202E+01  2.135695345E+02  1.250000000E+02  0.00000E+00  9.000E+00
      21     1     1     2   511   501 -6.857404627E+01 -2.356742460E+01 -4.367651700E+02  4.427433083E+02  5.394796609E-06  0.00000E+00  9.000E+00
#rwgt            1           1   4.1626418421672778E-002           6      167946           0
</event>
<event>
      5   9999  3.79277E-02  6.15858E+01 -1.00000E+00  1.34101E-01
      21    -1     0     0   502   501  0.000000000E+00  0.000000000E+00  1.216914340E+03  1.216914340E+03  0.000000000E+00  0.00000E+00  9.000E+00
      21    -1     0     0   512   502  0.000000000E+00  0.000000000E+00 -8.045470931E+01  8.045470931E+01  0.000000000E+00  0.00000E+00  9.000E+00
      25     1     1     2     0     0  2.163090679E+01 -1.768201538E+02  8.174480874E+02  8.459194043E+02  1.250000000E+02  0.00000E+00  9.000E+00
      25     1     1     2     0     0  2.833165659E+01  2.128278686E+02  2.941643874E+02  3.850403501E+02  1.250000000E+02  0.00000E+00  9.000E+00
      21     1     1     2   512   501 -4.996256338E+01 -3.600771482E+01  2.484715555E+01  6.640929457E+01  1.305872339E-06  0.00000E+00  9.000E+00
#rwgt            1           1   3.7670153183406004E-002           6      168052           0
</event>
<event>
      5   9999  3.79277E-02  3.09513E+01 -1.00000E+00  1.52104E-01
      21    -1     0     0   502   501  0.000000000E+00  0.000000000E+00  3.186627191E+01  3.186627191E+01  0.000000000E+00  0.00000E+00  9.000E+00
      21    -1     0     0   511   502  0.000000000E+00  0.000000000E+00 -1.613002379E+03  1.613002379E+03  0.000000000E+00  0.00000E+00  9.000E+00
      25     1     1     2     0     0 -7.659379412E+01 -1.195691599E+02 -8.776746768E+02  8.978314048E+02  1.250000000E+02  0.00000E+00  9.000E+00
      25     1     1     2     0     0  1.074683274E+02  1.173911779E+02 -4.725530440E+02  5.140637212E+02  1.250000000E+02  0.00000E+00  9.000E+00
      21     1     1     2   511   501 -3.087453332E+01  2.177982013E+00 -2.309083862E+02  2.329735248E+02  3.814697266E-06  0.00000E+00  9.000E+00
#rwgt            1           1   3.0606201311443051E-002           6      168146           0
</event>
<event>
      5   9999  3.79277E-02  1.96765E+01 -1.00000E+00  1.66956E-01
      21    -1     0     0   502   512  0.000000000E+00  0.000000000E+00  5.454683113E+02  5.454683113E+02  0.000000000E+00  0.00000E+00  9.000E+00
      21    -1     0     0   501   502  0.000000000E+00  0.000000000E+00 -1.422696285E+03  1.422696285E+03  0.000000000E+00  0.00000E+00  9.000E+00
      25     1     1     2     0     0 -5.106183785E+01 -8.668005798E+01 -1.228146717E+03  1.238583910E+03  1.250000000E+02  0.00000E+00  9.000E+00
      25     1     1     2     0     0  3.557566839E+01  9.881857775E+01 -1.539063670E+02  2.243722560E+02  1.250000000E+02  0.00000E+00  9.000E+00
      21     1     1     2   501   512  1.548616946E+01 -1.213851977E+01  5.048251107E+02  5.052084298E+02  7.629394531E-06  0.00000E+00  9.000E+00
#rwgt            1           1   4.3069652075254830E-002           6      168366           0
</event>
<event>
      5   9999  3.79277E-02  8.33952E+00 -1.00000E+00  2.05338E-01
      21    -1     0     0   511   501  0.000000000E+00  0.000000000E+00  2.672868571E+02  2.672868571E+02  0.000000000E+00  0.00000E+00  9.000E+00
      21    -1     0     0   501   502  0.000000000E+00  0.000000000E+00 -2.429414259E+02  2.429414259E+02  0.000000000E+00  0.00000E+00  9.000E+00
      25     1     1     2     0     0 -1.296274979E+02 -8.253130232E+01  1.269139586E+02  2.352591272E+02  1.250000000E+02  0.00000E+00  9.000E+00
      25     1     1     2     0     0  1.286682416E+02  7.424713612E+01 -1.382406889E+02  2.383351457E+02  1.250000000E+02  0.00000E+00  9.000E+00
      21     1     1     2   511   502  9.592562347E-01  8.284166192E+00  3.567216153E+01  3.663401002E+01  8.259061849E-07  0.00000E+00  9.000E+00
#rwgt            1           1   1.6846051257038114E-002           6      168783           0
</event>
<event>
      5   9999  3.79277E-02  6.39864E+01 -1.00000E+00  1.33227E-01
      21    -1     0     0   502   501  0.000000000E+00  0.000000000E+00  1.779706513E+03  1.779706513E+03  0.000000000E+00  0.00000E+00  9.000E+00
      21    -1     0     0   512   502  0.000000000E+00  0.000000000E+00 -4.690751650E+01  4.690751650E+01  0.000000000E+00  0.00000E+00  9.000E+00
      25     1     1     2     0     0  1.325151544E+02  1.556920864E+02  1.234139119E+03  1.257189189E+03  1.250000000E+02  0.00000E+00  9.000E+00
      25     1     1     2     0     0 -7.363044469E+01 -1.306551891E+02  4.448968543E+02  4.858502154E+02  1.250000000E+02  0.00000E+00  9.000E+00
      21     1     1     2   512   501 -5.888470968E+01 -2.503689729E+01  5.376302255E+01  8.357462446E+01  2.023048729E-06  0.00000E+00  9.000E+00
#rwgt            1           1   3.9498107628084651E-002           6      169106           0
</event>
<event>
      5   9999  3.79277E-02  2.12377E+02 -1.00000E+00  1.10707E-01
       2    -1     0     0   502     0  0.000000000E+00  0.000000000E+00  1.257341949E+03  1.257341949E+03  0.000000000E+00  0.00000E+00  9.000E+00
      21    -1     0     0   501   502  0.000000000E+00  0.000000000E+00 -1.456587850E+02  1.456587850E+02  0.000000000E+00  0.00000E+00  9.000E+00
      25     1     1     2     0     0 -4.286239191E+01 -1.729496594E+01 -2.774293407E+01  1.361285087E+02  1.250000000E+02  0.00000E+00  9.000E+00
      25     1     1     2     0     0  2.296297075E+02  1.183996504E+02  3.676690243E+02  4.664266193E+02  1.250000000E+02  0.00000E+00  9.000E+00
       2     1     1     2   501     0 -1.867673155E+02 -1.011046845E+02  7.717570741E+02  8.004456064E+02  0.000000000E+00  0.00000E+00  9.000E+00
#rwgt            1           1   2.5521282759210888E-002           6      169183           0
</event>
<event>
      5   9999  3.79277E-02  6.69268E+01 -1.00000E+00  1.32216E-01
      21    -1     0     0   502   501  0.000000000E+00  0.000000000E+00  1.554462855E+02  1.554462855E+02  0.000000000E+00  0.00000E+00  9.000E+00
      21    -1     0     0   511   502  0.000000000E+00  0.000000000E+00 -9.285726198E+02  9.285726198E+02  0.000000000E+00  0.00000E+00  9.000E+00
      25     1     1     2     0     0  9.988487878E+01 -2.527633395E+02 -3.168651223E+02  4.357692056E+02  1.250000000E+02  0.00000E+00  9.000E+00
      25     1     1     2     0     0 -8.020693112E+01  3.167318945E+02 -2.461755834E+02  4.277612216E+02  1.250000000E+02  0.00000E+00  9.000E+00
      21     1     1     2   511   501 -1.967794766E+01 -6.396855510E+01 -2.100856286E+02  2.204884782E+02  4.672030912E-06  0.00000E+00  9.000E+00
#rwgt            1           1   2.9460005209908036E-002           6      169288           0
</event>
<event>
      5   9999  3.79277E-02  3.16323E+01 -1.00000E+00  1.51459E-01
      21    -1     0     0   512   501  0.000000000E+00  0.000000000E+00  3.504043555E+01  3.504043555E+01  0.000000000E+00  0.00000E+00  9.000E+00
      21    -1     0     0   501   502  0.000000000E+00  0.000000000E+00 -1.089599395E+03  1.089599395E+03  0.000000000E+00  0.00000E+00  9.000E+00
      25     1     1     2     0     0 -2.697067546E+01 -1.942475704E+01 -1.666390751E+02  2.109462487E+02  1.250000000E+02  0.00000E+00  9.000E+00
      25     1     1     2     0     0  4.649098647E+01 -5.466146163E+00 -8.634377393E+02  8.736938939E+02  1.250000000E+02  0.00000E+00  9.000E+00
      21     1     1     2   512   502 -1.952031101E+01  2.489090321E+01 -2.448214505E+01  3.999968788E+01  5.840038640E-07  0.00000E+00  9.000E+00
#rwgt            1           1   6.9023794912247458E-002           6      169434           0
</event>
<event>
      5   9999  3.79277E-02  5.03605E+01 -1.00000E+00  1.38898E-01
      21    -1     0     0   511   501  0.000000000E+00  0.000000000E+00  6.756089882E+02  6.756089882E+02  0.000000000E+00  0.00000E+00  9.000E+00
      21    -1     0     0   501   502  0.000000000E+00  0.000000000E+00 -1.191708917E+02  1.191708917E+02  0.000000000E+00  0.00000E+00  9.000E+00
      25     1     1     2     0     0 -1.034102720E+01 -1.241777444E+02 -3.546224131E+00  1.765350525E+02  1.250000000E+02  0.00000E+00  9.000E+00
      25     1     1     2     0     0  2.361161730E+01  7.559718686E+01  1.715278034E+02  2.265374814E+02  1.250000000E+02  0.00000E+00  9.000E+00
      21     1     1     2   511   502 -1.327059011E+01  4.858055751E+01  3.884565172E+02  3.917073460E+02  5.394796609E-06  0.00000E+00  9.000E+00
#rwgt            1           1   3.3433548166788299E-002           6      169610           0
</event>
<event>
      5   9999 -3.79277E-02  2.85077E+02 -1.00000E+00  1.06317E-01
      21    -1     0     0   512   501  0.000000000E+00  0.000000000E+00  1.572659655E+02  1.572659655E+02  0.000000000E+00  0.00000E+00  9.000E+00
      21    -1     0     0   501   502  0.000000000E+00  0.000000000E+00 -1.651552978E+03  1.651552978E+03  0.000000000E+00  0.00000E+00  9.000E+00
      25     1     1     2     0     0 -3.542779936E+02  8.983657489E+01 -8.408290546E+02  9.253118425E+02  1.250000000E+02  0.00000E+00  9.000E+00
      25     1     1     2     0     0  8.311578094E+01 -1.860996588E+00 -5.656227832E+02  5.852058007E+02  1.250000000E+02  0.00000E+00  9.000E+00
      21     1     1     2   512   502  2.711622126E+02 -8.797557830E+01 -8.783517515E+01  2.983013006E+02  9.536743164E-07  0.00000E+00  9.000E+00
#rwgt            1           1 -0.11476197418444509                6      169785           0
</event>
<event>
      5   9999  3.79277E-02  2.88658E+01 -1.00000E+00  1.54212E-01
      21    -1     0     0   511   501  0.000000000E+00  0.000000000E+00  9.087338138E+02  9.087338138E+02  0.000000000E+00  0.00000E+00  9.000E+00
      21    -1     0     0   501   502  0.000000000E+00  0.000000000E+00 -8.899151977E+01  8.899151977E+01  0.000000000E+00  0.00000E+00  9.000E+00
      25     1     1     2     0     0  8.678080841E+01  1.931468756E+02  2.129833365E+02  3.253052811E+02  1.250000000E+02  0.00000E+00  9.000E+00
      25     1     1     2     0     0 -1.156383497E+02 -1.924554503E+02  5.046703199E+02  5.663289328E+02  1.250000000E+02  0.00000E+00  9.000E+00
      21     1     1     2   511   502  2.885754134E+01 -6.914252669E-01  1.020886376E+02  1.060911197E+02  1.907348633E-06  0.00000E+00  9.000E+00
#rwgt            1           1   3.4329750077333160E-002           6      169849           0
</event>
<event>
      5   9999  3.79277E-02  5.19472E+01 -1.00000E+00  1.38135E-01
      21    -1     0     0   502   501  0.000000000E+00  0.000000000E+00  1.349702626E+02  1.349702626E+02  0.000000000E+00  0.00000E+00  9.000E+00
      21    -1     0     0   512   502  0.000000000E+00  0.000000000E+00 -9.997660242E+02  9.997660242E+02  0.000000000E+00  0.00000E+00  9.000E+00
      25     1     1     2     0     0  2.490996254E+02  9.023281705E+01 -6.057011587E+02  6.728235120E+02  1.250000000E+02  0.00000E+00  9.000E+00
      25     1     1     2     0     0 -2.857982970E+02 -5.346710041E+01 -1.712254778E+02  3.598368542E+02  1.250000000E+02  0.00000E+00  9.000E+00
      21     1     1     2   512   501  3.669867165E+01 -3.676571664E+01 -8.786912521E+01  1.020759207E+02  9.536743164E-07  0.00000E+00  9.000E+00
#rwgt            1           1   3.5584347649636985E-002           6      170073           0
</event>
<event>
      5   9999  3.79277E-02  8.53285E+01 -1.00000E+00  1.27009E-01
      21    -1     0     0   511   501  0.000000000E+00  0.000000000E+00  4.036893521E+02  4.036893521E+02  0.000000000E+00  0.00000E+00  9.000E+00
      21    -1     0     0   501   502  0.000000000E+00  0.000000000E+00 -5.382595148E+02  5.382595148E+02  0.000000000E+00  0.00000E+00  9.000E+00
      25     1     1     2     0     0 -1.761115218E+02 -1.465922726E+02 -2.094848792E+02  3.346841453E+02  1.250000000E+02  0.00000E+00  9.000E+00
      25     1     1     2     0     0  1.456467797E+02  6.688746061E+01 -2.204331582E+02  2.998377796E+02  1.250000000E+02  0.00000E+00  9.000E+00
      21     1     1     2   511   502  3.046474210E+01  7.970481201E+01  2.953478748E+02  3.074269420E+02  0.000000000E+00  0.00000E+00  9.000E+00
#rwgt            1           1   3.0913195382499432E-002           6      170240           0
</event>
<event>
      5   9999  3.79277E-02  8.33240E+00 -1.00000E+00  2.05385E-01
      21    -1     0     0   502   501  0.000000000E+00  0.000000000E+00  2.926756681E+01  2.926756681E+01  0.000000000E+00  0.00000E+00  9.000E+00
      21    -1     0     0   512   502  0.000000000E+00  0.000000000E+00 -1.116541290E+03  1.116541290E+03  0.000000000E+00  0.00000E+00  9.000E+00
      25     1     1     2     0     0  7.837578884E+01  6.923951185E+01 -3.388763629E+02  3.760306684E+02  1.250000000E+02  0.00000E+00  9.000E+00
      25     1     1     2     0     0 -8.624672024E+01 -7.197398576E+01 -6.627341269E+02  6.837106657E+02  1.250000000E+02  0.00000E+00  9.000E+00
      21     1     1     2   512   501  7.870931396E+00  2.734473908E+00 -8.566323379E+01  8.606752309E+01  0.000000000E+00  0.00000E+00  9.000E+00
#rwgt            1           1  0.14267293110618942                6      170361           0
</event>
<event>
      5   9999  3.79277E-02  5.30325E+01 -1.00000E+00  1.37632E-01
      21    -1     0     0   511   501  0.000000000E+00  0.000000000E+00  1.145495273E+02  1.145495273E+02  0.000000000E+00  0.00000E+00  9.000E+00
      21    -1     0     0   501   502  0.000000000E+00  0.000000000E+00 -3.583344384E+02  3.583344384E+02  0.000000000E+00  0.00000E+00  9.000E+00
      25     1     1     2     0     0  2.787509173E+01  7.754209906E+01 -1.317107131E+02  1.994053906E+02  1.250000000E+02  0.00000E+00  9.000E+00
      25     1     1     2     0     0 -8.071371020E+01 -7.301179806E+01 -1.368557546E+02  2.149416741E+02  1.250000000E+02  0.00000E+00  9.000E+00
      21     1     1     2   511   502  5.283861847E+01 -4.530300999E+00  2.478155665E+01  5.853690100E+01  3.371747881E-07  0.00000E+00  9.000E+00
#rwgt            1           1   4.3648212526663149E-002           6      170597           0
</event>
<event>
      5   9999  3.79277E-02  1.79957E+02 -1.00000E+00  1.13343E-01
      21    -1     0     0   502   501  0.000000000E+00  0.000000000E+00  1.413305456E+02  1.413305456E+02  0.000000000E+00  0.00000E+00  9.000E+00
       2    -1     0     0   501     0  0.000000000E+00  0.000000000E+00 -9.594405406E+02  9.594405406E+02  0.000000000E+00  0.00000E+00  9.000E+00
      25     1     1     2     0     0  7.120719475E+01 -4.854531109E+01 -3.565945678E+01  1.559605997E+02  1.250000000E+02  0.00000E+00  9.000E+00
      25     1     1     2     0     0 -1.526820463E+02  2.090018134E+02 -6.787748743E+02  7.371254271E+02  1.250000000E+02  0.00000E+00  9.000E+00
       2     1     1     2   502     0  8.147485158E+01 -1.604565023E+02 -1.036756639E+02  2.076850593E+02  1.907348633E-06  0.00000E+00  9.000E+00
#rwgt            1           1   3.1057389883983696E-002           6      170673           0
</event>
<event>
      5   9999  3.79277E-02  9.27839E+01 -1.00000E+00  1.25309E-01
      21    -1     0     0   502   501  0.000000000E+00  0.000000000E+00  1.099096654E+03  1.099096654E+03  0.000000000E+00  0.00000E+00  9.000E+00
      21    -1     0     0   501   511  0.000000000E+00  0.000000000E+00 -9.670641901E+01  9.670641901E+01  0.000000000E+00  0.00000E+00  9.000E+00
      25     1     1     2     0     0  1.465738044E+01 -1.277218381E+02  5.062145294E+02  5.370343159E+02  1.250000000E+02  0.00000E+00  9.000E+00
      25     1     1     2     0     0 -8.223761314E+01  1.912967581E+02  5.100825642E+02  5.649484021E+02  1.250000000E+02  0.00000E+00  9.000E+00
      21     1     1     2   502   511  6.758023271E+01 -6.357492003E+01 -1.390685854E+01  9.382035506E+01  1.914784718E-06  0.00000E+00  9.000E+00
#rwgt            1           1   3.5211022216056272E-002           6      170740           0
</event>
<event>
      5   9999  3.79277E-02  6.31361E+01 -1.00000E+00  1.33532E-01
      21    -1     0     0   512   501  0.000000000E+00  0.000000000E+00  1.706951706E+02  1.706951706E+02  0.000000000E+00  0.00000E+00  9.000E+00
      21    -1     0     0   501   502  0.000000000E+00  0.000000000E+00 -3.427177698E+02  3.427177698E+02  0.000000000E+00  0.00000E+00  9.000E+00
      25     1     1     2     0     0  1.069701659E+02  1.276974665E+02 -1.123528121E+02  2.366377267E+02  1.250000000E+02  0.00000E+00  9.000E+00
      25     1     1     2     0     0 -4.775924531E+01 -1.057832378E+02 -1.038632501E+02  1.997088222E+02  1.250000000E+02  0.00000E+00  9.000E+00
      21     1     1     2   512   502 -5.921092060E+01 -2.191422864E+01  4.419346301E+01  7.706639156E+01  0.000000000E+00  0.00000E+00  9.000E+00
#rwgt            1           1   3.1851954422174630E-002           6      170821           0
</event>
<event>
      5   9999  3.79277E-02  6.73866E+01 -1.00000E+00  1.32063E-01
       2    -1     0     0   502     0  0.000000000E+00  0.000000000E+00  1.752692028E+03  1.752692028E+03  0.000000000E+00  0.00000E+00  9.000E+00
      21    -1     0     0   501   502  0.000000000E+00  0.000000000E+00 -1.020672507E+02  1.020672507E+02  0.000000000E+00  0.00000E+00  9.000E+00
      25     1     1     2     0     0 -2.636266577E+02 -3.647045992E+00  1.114029151E+03  1.151606819E+03  1.250000000E+02  0.00000E+00  9.000E+00
      25     1     1     2     0     0  2.030905664E+02  3.325010496E+01  9.890485502E+01  2.603046637E+02  1.250000000E+02  0.00000E+00  9.000E+00
       2     1     1     2   501     0  6.053609133E+01 -2.960305896E+01  4.376907710E+02  4.428477960E+02  5.394796609E-06  0.00000E+00  9.000E+00
#rwgt            1           1   3.4323028214398983E-002           6      170883           0
</event>
<event>
      5   9999  3.79277E-02  1.96849E+01 -1.00000E+00  1.66940E-01
      -3    -1     0     0     0   501  0.000000000E+00  0.000000000E+00  1.636927623E+03  1.636927623E+03  0.000000000E+00  0.00000E+00  9.000E+00
      21    -1     0     0   501   502  0.000000000E+00  0.000000000E+00 -2.534827108E+02  2.534827108E+02  0.000000000E+00  0.00000E+00  9.000E+00
      25     1     1     2     0     0  1.982957872E+02  5.034925318E+01 -3.529659876E+01  2.423367830E+02  1.250000000E+02  0.00000E+00  9.000E+00
      25     1     1     2     0     0 -2.040806874E+02 -3.153355975E+01  1.251837581E+01  2.417126436E+02  1.250000000E+02  0.00000E+00  9.000E+00
      -3     1     1     2     0   502  5.784900242E+00 -1.881569342E+01  1.406223136E+03  1.406360908E+03  0.000000000E+00  0.00000E+00  9.000E+00
#rwgt            1           1   2.5956612273287192E-002           6      171063           0
</event>
<event>
      5   9999  3.79277E-02  4.46709E+01 -1.00000E+00  1.41927E-01
      21    -1     0     0   502   511  0.000000000E+00  0.000000000E+00  1.615487422E+02  1.615487422E+02  0.000000000E+00  0.00000E+00  9.000E+00
      21    -1     0     0   501   502  0.000000000E+00  0.000000000E+00 -3.742146076E+02  3.742146076E+02  0.000000000E+00  0.00000E+00  9.000E+00
      25     1     1     2     0     0  1.076079168E+02 -1.664486900E+01  2.230398178E+01  1.672691933E+02  1.250000000E+02  0.00000E+00  9.000E+00
      25     1     1     2     0     0 -1.504238836E+02  3.905816745E+00 -2.534400473E+02  3.201553650E+02  1.250000000E+02  0.00000E+00  9.000E+00
      21     1     1     2   501   511  4.281596684E+01  1.273905226E+01  1.847020015E+01  4.833879149E+01  7.539457465E-07  0.00000E+00  9.000E+00
#rwgt            1           1   6.8433571497390835E-002           6      171279           0
</event>
<event>
      5   9999  3.79277E-02  2.03309E+01 -1.00000E+00  1.65783E-01
      21    -1     0     0   502   501  0.000000000E+00  0.000000000E+00  1.463103765E+02  1.463103765E+02  0.000000000E+00  0.00000E+00  9.000E+00
      21    -1     0     0   501   512  0.000000000E+00  0.000000000E+00 -3.537372429E+02  3.537372429E+02  0.000000000E+00  0.00000E+00  9.000E+00
      25     1     1     2     0     0 -8.458992472E+01 -6.620287413E+00  6.572379283E+01  1.647540607E+02  1.250000000E+02  0.00000E+00  9.000E+00
      25     1     1     2     0     0  7.016394984E+01  2.094640929E+01 -1.429760834E+02  2.035408862E+02  1.250000000E+02  0.00000E+00  9.000E+00
      21     1     1     2   502   512  1.442597487E+01 -1.432612187E+01 -1.301745758E+02  1.317526725E+02  0.000000000E+00  0.00000E+00  9.000E+00
#rwgt            1           1   4.6605322908400727E-002           6      171386           0
</event>
<event>
      5   9999  3.79277E-02  1.53363E+01 -1.00000E+00  1.76481E-01
      21    -1     0     0   502   501  0.000000000E+00  0.000000000E+00  5.401844375E+01  5.401844375E+01  0.000000000E+00  0.00000E+00  9.000E+00
      21    -1     0     0   511   502  0.000000000E+00  0.000000000E+00 -1.065948440E+03  1.065948440E+03  0.000000000E+00  0.00000E+00  9.000E+00
      25     1     1     2     0     0 -1.131683611E+02  9.625363817E+01 -3.700326502E+02  4.178767797E+02  1.250000000E+02  0.00000E+00  9.000E+00
      25     1     1     2     0     0  1.065309354E+02 -1.100792461E+02 -2.966383684E+02  3.564906763E+02  1.250000000E+02  0.00000E+00  9.000E+00
      21     1     1     2   511   501  6.637425684E+00  1.382560791E+01 -3.452589774E+02  3.455994276E+02  3.814697266E-06  0.00000E+00  9.000E+00
#rwgt            1           1   4.5974330066156754E-002           6      171709           0
</event>
<event>
      5   9999  4.08797E-02  8.14390E+01 -1.00000E+00  1.27976E-01
      21    -1     0     0   502   512  0.000000000E+00  0.000000000E+00  1.396970399E+02  1.396970399E+02  0.000000000E+00  0.00000E+00  9.000E+00
      21    -1     0     0   501   502  0.000000000E+00  0.000000000E+00 -1.851668382E+03  1.851668382E+03  0.000000000E+00  0.00000E+00  9.000E+00
      25     1     1     2     0     0  3.944186021E+01  2.063390871E+01 -1.494759095E+03  1.500636921E+03  1.250000000E+02  0.00000E+00  9.000E+00
      25     1     1     2     0     0  3.481684376E+01 -5.406986510E+01 -3.258942467E+02  3.549194598E+02  1.250000000E+02  0.00000E+00  9.000E+00
      21     1     1     2   501   512 -7.425870397E+01  3.343595639E+01  1.086819999E+02  1.358090402E+02  2.336015456E-06  0.00000E+00  9.000E+00
#rwgt            1           1  0.18997933492599711                6      171906           0
</event>
<event>
      5   9999  3.79277E-02  2.77439E+02 -1.00000E+00  1.06707E-01
      21    -1     0     0   502   501  0.000000000E+00  0.000000000E+00  2.420795859E+02  2.420795859E+02  0.000000000E+00  0.00000E+00  9.000E+00
       1    -1     0     0   501     0  0.000000000E+00  0.000000000E+00 -1.092916242E+03  1.092916242E+03  0.000000000E+00  0.00000E+00  9.000E+00
      25     1     1     2     0     0  1.678130829E+02  1.738995860E+00 -3.595917036E+02  4.160474110E+02  1.250000000E+02  0.00000E+00  9.000E+00
      25     1     1     2     0     0 -4.126728399E+02 -1.321848643E+02 -1.418044561E+02  4.727633815E+02  1.250000000E+02  0.00000E+00  9.000E+00
       1     1     1     2   502     0  2.448597570E+02  1.304458684E+02 -3.494404960E+02  4.461850350E+02  5.394796609E-06  0.00000E+00  9.000E+00
#rwgt            1           1   3.5540957555954607E-002           6      171977           0
</event>
<event>
      5   9999  3.79277E-02  8.94821E+01 -1.00000E+00  1.26038E-01
      21    -1     0     0   502   501  0.000000000E+00  0.000000000E+00  1.102848579E+02  1.102848579E+02  0.000000000E+00  0.00000E+00  9.000E+00
      21    -1     0     0   511   502  0.000000000E+00  0.000000000E+00 -7.357458049E+02  7.357458049E+02  0.000000000E+00  0.00000E+00  9.000E+00
      25     1     1     2     0     0  1.372801752E+02  7.345549906E+01 -2.462301473E+01  2.011786512E+02  1.250000000E+02  0.00000E+00  9.000E+00
      25     1     1     2     0     0 -6.566348297E+01 -1.980755608E+01 -4.098133421E+02  4.339078331E+02  1.250000000E+02  0.00000E+00  9.000E+00
      21     1     1     2   511   501 -7.161669219E+01 -5.364794298E+01 -1.910245901E+02  2.109441784E+02  3.814697266E-06  0.00000E+00  9.000E+00
#rwgt            1           1   4.4853204412713010E-002           6      172117           0
</event>
<event>
      5   9999  3.79277E-02  5.13853E+01 -1.00000E+00  1.38402E-01
      21    -1     0     0   512   501  0.000000000E+00  0.000000000E+00  9.785936516E+02  9.785936516E+02  0.000000000E+00  0.00000E+00  9.000E+00
      21    -1     0     0   501   502  0.000000000E+00  0.000000000E+00 -5.759110722E+01  5.759110722E+01  0.000000000E+00  0.00000E+00  9.000E+00
      25     1     1     2     0     0  9.201755657E+01  9.909662401E+01  2.069263115E+02  2.770033754E+02  1.250000000E+02  0.00000E+00  9.000E+00
      25     1     1     2     0     0 -7.332587486E+01 -1.469617727E+02  5.713199823E+02  6.074586149E+02  1.250000000E+02  0.00000E+00  9.000E+00
      21     1     1     2   512   502 -1.869168171E+01  4.786514869E+01  1.427562505E+02  1.517227685E+02  0.000000000E+00  0.00000E+00  9.000E+00
#rwgt            2          11   2.6073227912072785E-003           6      172272           0
</event>
<event>
      5   9999  3.79277E-02  9.33261E+00 -1.00000E+00  1.99290E-01
      21    -1     0     0   502   501  0.000000000E+00  0.000000000E+00  7.445494637E+01  7.445494637E+01  0.000000000E+00  0.00000E+00  9.000E+00
      21    -1     0     0   501   511  0.000000000E+00  0.000000000E+00 -6.239388524E+02  6.239388524E+02  0.000000000E+00  0.00000E+00  9.000E+00
      25     1     1     2     0     0  1.122877846E+02 -7.938109404E+01 -2.308912001E+02  2.963876700E+02  1.250000000E+02  0.00000E+00  9.000E+00
      25     1     1     2     0     0 -1.122943647E+02  8.871370110E+01 -1.756609142E+02  2.587699787E+02  1.250000000E+02  0.00000E+00  9.000E+00
      21     1     1     2   502   511  6.580111159E-03 -9.332607054E+00 -1.429317917E+02  1.432361500E+02  2.697398305E-06  0.00000E+00  9.000E+00
#rwgt            1           1   2.5120462441052184E-002           6      172337           0
</event>
<event>
      5   9999  3.79277E-02  2.48989E+01 -1.00000E+00  1.58883E-01
      21    -1     0     0   512   501  0.000000000E+00  0.000000000E+00  9.076409518E+01  9.076409518E+01  0.000000000E+00  0.00000E+00  9.000E+00
      21    -1     0     0   501   502  0.000000000E+00  0.000000000E+00 -3.645010374E+02  3.645010374E+02  0.000000000E+00  0.00000E+00  9.000E+00
      25     1     1     2     0     0 -1.010283944E+02 -5.926019684E+00 -6.081211236E+01  1.719446632E+02  1.250000000E+02  0.00000E+00  9.000E+00
      25     1     1     2     0     0  9.882383825E+01 -1.887507480E+01 -1.955585115E+02  2.529635366E+02  1.250000000E+02  0.00000E+00  9.000E+00
      21     1     1     2   512   502  2.204556113E+00  2.480109449E+01 -1.736631842E+01  3.035693283E+01  6.307962682E-07  0.00000E+00  9.000E+00
#rwgt            1           1   3.6450190711997933E-002           6      172555           0
</event>
<event>
      5   9999  3.79277E-02  1.15047E+01 -1.00000E+00  1.88973E-01
      21    -1     0     0   502   501  0.000000000E+00  0.000000000E+00  8.200302163E+02  8.200302163E+02  0.000000000E+00  0.00000E+00  9.000E+00
      21    -1     0     0   511   502  0.000000000E+00  0.000000000E+00 -1.334346312E+02  1.334346312E+02  0.000000000E+00  0.00000E+00  9.000E+00
      25     1     1     2     0     0 -5.350269394E+01  1.239663422E+01  1.406731148E+02  1.960360681E+02  1.250000000E+02  0.00000E+00  9.000E+00
      25     1     1     2     0     0  6.121534375E+01 -3.860020019E+00  6.438977533E+02  6.587803388E+02  1.250000000E+02  0.00000E+00  9.000E+00
      21     1     1     2   511   501 -7.712649814E+00 -8.536614204E+00 -9.797528302E+01  9.864844059E+01  2.336015456E-06  0.00000E+00  9.000E+00
#rwgt            1           1   4.5407506228172918E-002           6      172703           0
</event>
<event>
      5   9999  3.79277E-02  2.87696E+01 -1.00000E+00  1.54314E-01
      21    -1     0     0   512   501  0.000000000E+00  0.000000000E+00  2.509188925E+02  2.509188925E+02  0.000000000E+00  0.00000E+00  9.000E+00
      21    -1     0     0   501   502  0.000000000E+00  0.000000000E+00 -3.452204035E+02  3.452204035E+02  0.000000000E+00  0.00000E+00  9.000E+00
      25     1     1     2     0     0  1.011368861E+02 -1.216311541E+02 -1.837253606E+02  2.727687949E+02  1.250000000E+02  0.00000E+00  9.000E+00
      25     1     1     2     0     0 -1.101602985E+02  1.489490073E+02 -6.139444173E+00  2.235705502E+02  1.250000000E+02  0.00000E+00  9.000E+00
      21     1     1     2   512   502  9.023412422E+00 -2.731785319E+01  9.556329382E+01  9.979995090E+01  1.348699152E-06  0.00000E+00  9.000E+00
#rwgt            1           1   3.5963879521362145E-002           6      173032           0
</event>
<event>
      5   9999  3.79277E-02  2.68502E+01 -1.00000E+00  1.56463E-01
      21    -1     0     0   511   501  0.000000000E+00  0.000000000E+00  2.209941221E+02  2.209941221E+02  0.000000000E+00  0.00000E+00  9.000E+00
      21    -1     0     0   501   502  0.000000000E+00  0.000000000E+00 -1.323086183E+02  1.323086183E+02  0.000000000E+00  0.00000E+00  9.000E+00
      25     1     1     2     0     0 -9.683061969E+01  1.767783457E+01  1.972487053E+00  1.591149441E+02  1.250000000E+02  0.00000E+00  9.000E+00
      25     1     1     2     0     0  7.156066340E+01 -2.675335992E+01  6.834626637E+01  1.616566823E+02  1.250000000E+02  0.00000E+00  9.000E+00
      21     1     1     2   511   502  2.526995628E+01  9.075525352E+00  1.836675044E+01  3.253111392E+01  2.384185791E-07  0.00000E+00  9.000E+00
#rwgt            1           1   2.4331192345062012E-002           6      173218           0
</event>
<event>
      5   9999  3.79277E-02  3.43013E+01 -1.00000E+00  1.49105E-01
      21    -1     0     0   512   501  0.000000000E+00  0.000000000E+00  5.102372844E+02  5.102372844E+02  0.000000000E+00  0.00000E+00  9.000E+00
      21    -1     0     0   501   502  0.000000000E+00  0.000000000E+00 -6.009346688E+02  6.009346688E+02  0.000000000E+00  0.00000E+00  9.000E+00
      25     1     1     2     0     0  1.105084618E+02 -1.123321036E+01 -3.284052214E+01  1.704165633E+02  1.250000000E+02  0.00000E+00  9.000E+00
      25     1     1     2     0     0 -7.872139857E+01  2.412346949E+01 -4.873894653E+02  5.098553631E+02  1.250000000E+02  0.00000E+00  9.000E+00
      21     1     1     2   512   502 -3.178706323E+01 -1.289025913E+01  4.295326030E+02  4.309000269E+02  0.000000000E+00  0.00000E+00  9.000E+00
#rwgt            1           1   4.4937775578160075E-002           6      173409           0
</event>
<event>
      5   9999  3.79277E-02  3.78909E+01 -1.00000E+00  1.46314E-01
      21    -1     0     0   502   501  0.000000000E+00  0.000000000E+00  2.113701806E+02  2.113701806E+02  0.000000000E+00  0.00000E+00  9.000E+00
      21    -1     0     0   501   511  0.000000000E+00  0.000000000E+00 -2.824029932E+02  2.824029932E+02  0.000000000E+00  0.00000E+00  9.000E+00
      25     1     1     2     0     0  1.440757971E-01  1.421180929E+02  2.218959241E+01  1.905648212E+02  1.250000000E+02  0.00000E+00  9.000E+00
      25     1     1     2     0     0  1.335898117E+01 -1.775212924E+02 -1.712385019E+01  2.181982995E+02  1.250000000E+02  0.00000E+00  9.000E+00
      21     1     1     2   502   511 -1.350305696E+01  3.540319953E+01 -7.609855481E+01  8.501005310E+01  9.536743164E-07  0.00000E+00  9.000E+00
#rwgt            1           1   3.8634970786064218E-002           6      173481           0
</event>
<event>
      5   9999  3.79277E-02  1.19260E+01 -1.00000E+00  1.87311E-01
      21    -1     0     0   502   501  0.000000000E+00  0.000000000E+00  3.688780206E+02  3.688780206E+02  0.000000000E+00  0.00000E+00  9.000E+00
      21    -1     0     0   501   512  0.000000000E+00  0.000000000E+00 -1.529071472E+02  1.529071472E+02  0.000000000E+00  0.00000E+00  9.000E+00
      25     1     1     2     0     0  7.612991416E+01 -1.409940350E+02 -1.184630581E+01  2.035691939E+02  1.250000000E+02  0.00000E+00  9.000E+00
      25     1     1     2     0     0 -8.800862366E+01  1.420545866E+02  2.228218417E+02  3.052860897E+02  1.250000000E+02  0.00000E+00  9.000E+00
      21     1     1     2   502   512  1.187870950E+01 -1.060551653E+00  4.995337541E+00  1.292988424E+01  2.064765462E-07  0.00000E+00  9.000E+00
#rwgt            1           1   3.4292664541592653E-002           6      173634           0
</event>
<event>
      5   9999  3.79277E-02  1.91089E+01 -1.00000E+00  1.68019E-01
       2    -1     0     0   502     0  0.000000000E+00  0.000000000E+00  1.157042096E+02  1.157042096E+02  0.000000000E+00  0.00000E+00  9.000E+00
      21    -1     0     0   501   502  0.000000000E+00  0.000000000E+00 -5.594048683E+02  5.594048683E+02  0.000000000E+00  0.00000E+00  9.000E+00
      25     1     1     2     0     0 -8.411115847E+01  1.935983455E+01  4.076488355E+01  1.572776713E+02  1.250000000E+02  0.00000E+00  9.000E+00
      25     1     1     2     0     0  8.587615925E+01 -3.326338591E-01 -4.700074074E+02  4.938692017E+02  1.250000000E+02  0.00000E+00  9.000E+00
       2     1     1     2   501     0 -1.765000779E+00 -1.902720070E+01 -1.445813482E+01  2.396220475E+01  1.685873940E-07  0.00000E+00  9.000E+00
#rwgt            1           1   4.5174610991830282E-002           6      173950           0
</event>
<event>
      5   9999  3.79277E-02  8.30521E+01 -1.00000E+00  1.27567E-01
      21    -1     0     0   511   501  0.000000000E+00  0.000000000E+00  4.502323898E+02  4.502323898E+02  0.000000000E+00  0.00000E+00  9.000E+00
      21    -1     0     0   501   502  0.000000000E+00  0.000000000E+00 -7.409173471E+02  7.409173471E+02  0.000000000E+00  0.00000E+00  9.000E+00
      25     1     1     2     0     0  9.538241722E+01 -1.670751479E+02 -2.226978493E+02  3.197362079E+02  1.250000000E+02  0.00000E+00  9.000E+00
      25     1     1     2     0     0 -1.626736392E+02  1.183972131E+02 -4.348987542E+02  4.952196880E+02  1.250000000E+02  0.00000E+00  9.000E+00
      21     1     1     2   511   502  6.729122199E+01  4.867793483E+01  3.669116462E+02  3.761938410E+02  7.629394531E-06  0.00000E+00  9.000E+00
#rwgt            1           1   3.1996436529594378E-002           6      174393           0
</event>
<event>
      5   9999  3.79277E-02  2.63874E+01 -1.00000E+00  1.57014E-01
      21    -1     0     0   502   512  0.000000000E+00  0.000000000E+00  5.887711374E+01  5.887711374E+01  0.000000000E+00  0.00000E+00  9.000E+00
      21    -1     0     0   501   502  0.000000000E+00  0.000000000E+00 -1.320104496E+03  1.320104496E+03  0.000000000E+00  0.00000E+00  9.000E+00
      25     1     1     2     0     0  9.263825405E+01 -1.481403688E+02 -6.403797495E+02  6.754543941E+02  1.250000000E+02  0.00000E+00  9.000E+00
      25     1     1     2     0     0 -1.188190228E+02  1.514363194E+02 -6.338408214E+02  6.741143122E+02  1.250000000E+02  0.00000E+00  9.000E+00
      21     1     1     2   501   512  2.618076873E+01 -3.295950600E+00  1.299318861E+01  2.941290349E+01  3.371747881E-07  0.00000E+00  9.000E+00
#rwgt            1           1   8.3890303730061497E-002           6      174457           0
</event>
<event>
      5   9999  3.79277E-02  2.62701E+01 -1.00000E+00  1.57156E-01
      21    -1     0     0   502   501  0.000000000E+00  0.000000000E+00  1.184656841E+03  1.184656841E+03  0.000000000E+00  0.00000E+00  9.000E+00
      21    -1     0     0   511   502  0.000000000E+00  0.000000000E+00 -4.466689334E+01  4.466689334E+01  0.000000000E+00  0.00000E+00  9.000E+00
      25     1     1     2     0     0  7.479449480E+01  1.335616166E+02  6.816671469E+02  7.097379946E+02  1.250000000E+02  0.00000E+00  9.000E+00
      25     1     1     2     0     0 -8.275660224E+01 -1.585960347E+02  4.012776410E+02  4.567823361E+02  1.250000000E+02  0.00000E+00  9.000E+00
      21     1     1     2   511   501  7.962107442E+00  2.503441810E+01  5.704515990E+01  6.280340367E+01  1.507891493E-06  0.00000E+00  9.000E+00
#rwgt            1           1   4.3547964223601507E-002           6      174572           0
</event>
<event>
      5   9999  3.79277E-02  2.71693E+01 -1.00000E+00  1.56091E-01
      21    -1     0     0   512   501  0.000000000E+00  0.000000000E+00  3.751795168E+02  3.751795168E+02  0.000000000E+00  0.00000E+00  9.000E+00
      21    -1     0     0   501   502  0.000000000E+00  0.000000000E+00 -1.738883443E+02  1.738883443E+02  0.000000000E+00  0.00000E+00  9.000E+00
      25     1     1     2     0     0  1.568558359E+02  6.687088199E+01  7.862576384E+01  2.255714496E+02  1.250000000E+02  0.00000E+00  9.000E+00
      25     1     1     2     0     0 -1.824368585E+02 -5.771748531E+01  3.438739055E+01  2.311320144E+02  1.250000000E+02  0.00000E+00  9.000E+00
      21     1     1     2   512   502  2.558102256E+01 -9.153396686E+00  8.827801811E+01  9.236439718E+01  9.536743164E-07  0.00000E+00  9.000E+00
#rwgt            1           1   4.3162489210959006E-002           6      174725           0
</event>
<event>
      5   9999 -3.79277E-02  8.10595E+01 -1.00000E+00  1.28074E-01
      21    -1     0     0   502   501  0.000000000E+00  0.000000000E+00  1.164562009E+02  1.164562009E+02  0.000000000E+00  0.00000E+00  9.000E+00
       1    -1     0     0   501     0  0.000000000E+00  0.000000000E+00 -9.633908125E+02  9.633908125E+02  0.000000000E+00  0.00000E+00  9.000E+00
      25     1     1     2     0     0 -1.445921846E+02 -8.559789879E+01 -1.973429083E+02  2.877553189E+02  1.250000000E+02  0.00000E+00  9.000E+00
      25     1     1     2     0     0  1.277428491E+02  1.648869236E+02 -1.494481098E+02  2.854219168E+02  1.250000000E+02  0.00000E+00  9.000E+00
       1     1     1     2   502     0  1.684933550E+01 -7.928902485E+01 -5.001435934E+02  5.066697777E+02  5.394796609E-06  0.00000E+00  9.000E+00
#rwgt            1           1  -7.8314980243728530E-002           6      174867           0
</event>
<event>
      5   9999 -3.79277E-02  5.92326E+01 -1.00000E+00  1.35003E-01
      21    -1     0     0   511   501  0.000000000E+00  0.000000000E+00  1.539127087E+02  1.539127087E+02  0.000000000E+00  0.00000E+00  9.000E+00
      21    -1     0     0   501   502  0.000000000E+00  0.000000000E+00 -4.028586963E+02  4.028586963E+02  0.000000000E+00  0.00000E+00  9.000E+00
      25     1     1     2     0     0  9.109363291E+01 -1.086786398E+02 -4.092909304E+01  1.934148065E+02  1.250000000E+02  0.00000E+00  9.000E+00
      25     1     1     2     0     0 -1.377000771E+02  1.452346335E+02 -1.848759141E+02  2.997640966E+02  1.250000000E+02  0.00000E+00  9.000E+00
      21     1     1     2   511   502  4.660644421E+01 -3.655599362E+01 -2.314098051E+01  6.359250184E+01  5.840038640E-07  0.00000E+00  9.000E+00
#rwgt            1           1  -2.5063964871882269E-002           6      174929           0
</event>
<event>
      5   9999  3.79277E-02  3.77323E+01 -1.00000E+00  1.46430E-01
      21    -1     0     0   502   501  0.000000000E+00  0.000000000E+00  5.210747221E+02  5.210747221E+02  0.000000000E+00  0.00000E+00  9.000E+00
      21    -1     0     0   512   502  0.000000000E+00  0.000000000E+00 -6.982212876E+02  6.982212876E+02  0.000000000E+00  0.00000E+00  9.000E+00
      25     1     1     2     0     0  2.160481667E+02 -8.324555068E+01  2.699249736E+02  3.769497624E+02  1.250000000E+02  0.00000E+00  9.000E+00
      25     1     1     2     0     0 -1.982829209E+02  4.995705259E+01  1.241310489E+02  2.698987609E+02  1.250000000E+02  0.00000E+00  9.000E+00
      21     1     1     2   512   501 -1.776524575E+01  3.328849809E+01 -5.712025880E+02  5.724474863E+02  7.629394531E-06  0.00000E+00  9.000E+00
#rwgt            1           1   3.5152492505689581E-002           6      175037           0
</event>
<event>
      5   9999  3.79277E-02  1.20824E+01 -1.00000E+00  1.86716E-01
      21    -1     0     0   502   501  0.000000000E+00  0.000000000E+00  7.305305277E+01  7.305305277E+01  0.000000000E+00  0.00000E+00  9.000E+00
       2    -1     0     0   501     0  0.000000000E+00  0.000000000E+00 -1.787035223E+03  1.787035223E+03  0.000000000E+00  0.00000E+00  9.000E+00
      25     1     1     2     0     0 -3.989116394E+01 -6.856958520E+01 -6.697792478E+02  6.859463053E+02  1.250000000E+02  0.00000E+00  9.000E+00
      25     1     1     2     0     0  3.566272698E+01  7.988795061E+01 -2.469194035E+01  1.545593953E+02  1.250000000E+02  0.00000E+00  9.000E+00
       2     1     1     2   502     0  4.228436958E+00 -1.131836541E+01 -1.019510982E+03  1.019582576E+03  1.078959322E-05  0.00000E+00  9.000E+00
#rwgt            1           1   3.2333036741167373E-002           6      175205           0
</event>
<event>
      5   9999  3.79277E-02  2.17690E+01 -1.00000E+00  1.63388E-01
      21    -1     0     0   511   501  0.000000000E+00  0.000000000E+00  1.002929016E+02  1.002929016E+02  0.000000000E+00  0.00000E+00  9.000E+00
      21    -1     0     0   501   502  0.000000000E+00  0.000000000E+00 -8.166741579E+02  8.166741579E+02  0.000000000E+00  0.00000E+00  9.000E+00
      25     1     1     2     0     0 -3.444633270E+01 -1.982081004E+02 -3.611593407E+02  4.318959022E+02  1.250000000E+02  0.00000E+00  9.000E+00
      25     1     1     2     0     0  4.628061602E+01  2.164793338E+02 -3.767202833E+02  4.544759282E+02  1.250000000E+02  0.00000E+00  9.000E+00
      21     1     1     2   511   502 -1.183428333E+01 -1.827123340E+01  2.149836778E+01  3.059522919E+01  3.371747881E-07  0.00000E+00  9.000E+00
#rwgt            1           1   4.6003599364831761E-002           6      175550           0
</event>
<event>
      5   9999  3.79277E-02  2.85090E+02 -1.00000E+00  1.06316E-01
      21    -1     0     0   502   501  0.000000000E+00  0.000000000E+00  1.156437202E+03  1.156437202E+03  0.000000000E+00  0.00000E+00  9.000E+00
      21    -1     0     0   512   502  0.000000000E+00  0.000000000E+00 -2.903161065E+02  2.903161065E+02  0.000000000E+00  0.00000E+00  9.000E+00
      25     1     1     2     0     0  3.718229956E+02 -1.022437753E+02  8.641394059E+02  9.544988436E+02  1.250000000E+02  0.00000E+00  9.000E+00
      25     1     1     2     0     0 -8.741587671E+01  8.251993392E+01 -8.643185767E+01  1.937692984E+02  1.250000000E+02  0.00000E+00  9.000E+00
      21     1     1     2   512   501 -2.844071189E+02  1.972384143E+01  8.841354705E+01  2.984851663E+02  5.394796609E-06  0.00000E+00  9.000E+00
#rwgt            1           1   3.9385369539356833E-002           6      175798           0
</event>
<event>
      5   9999  3.79277E-02  6.68329E+01 -1.00000E+00  1.32247E-01
      21    -1     0     0   511   501  0.000000000E+00  0.000000000E+00  3.136791615E+02  3.136791615E+02  0.000000000E+00  0.00000E+00  9.000E+00
      21    -1     0     0   501   502  0.000000000E+00  0.000000000E+00 -4.175223008E+02  4.175223008E+02  0.000000000E+00  0.00000E+00  9.000E+00
      25     1     1     2     0     0  1.351445819E+02  8.622899573E+00 -2.923553929E+01  1.865961660E+02  1.250000000E+02  0.00000E+00  9.000E+00
      25     1     1     2     0     0 -1.401873232E+02  5.801946452E+01 -2.723442252E+02  3.358796226E+02  1.250000000E+02  0.00000E+00  9.000E+00
      21     1     1     2   511   502  5.042741267E+00 -6.664236409E+01  1.977366252E+02  2.087256738E+02  0.000000000E+00  0.00000E+00  9.000E+00
#rwgt            2          11   1.8730837780660482E-003           6      175844           0
</event>
<event>
      5   9999  3.79277E-02  1.57712E+01 -1.00000E+00  1.75357E-01
      21    -1     0     0   502   501  0.000000000E+00  0.000000000E+00  1.327846951E+02  1.327846951E+02  0.000000000E+00  0.00000E+00  9.000E+00
      -2    -1     0     0     0   502  0.000000000E+00  0.000000000E+00 -4.363930265E+02  4.363930265E+02  0.000000000E+00  0.00000E+00  9.000E+00
      25     1     1     2     0     0  7.339333868E+01  1.535969959E+02 -2.568971456E+02  3.325654262E+02  1.250000000E+02  0.00000E+00  9.000E+00
      25     1     1     2     0     0 -8.885266069E+01 -1.504763293E+02 -3.679697826E+01  2.179838036E+02  1.250000000E+02  0.00000E+00  9.000E+00
      -2     1     1     2     0   501  1.545932201E+01 -3.120666521E+00 -9.914207519E+00  1.862849181E+01  3.371747881E-07  0.00000E+00  9.000E+00
#rwgt            1           1   4.0859060273061437E-002           6      175894           0
</event>
<event>
      5   9999  3.79277E-02  3.35351E+01 -1.00000E+00  1.49754E-01
      21    -1     0     0   502   501  0.000000000E+00  0.000000000E+00  1.942481335E+01  1.942481335E+01  0.000000000E+00  0.00000E+00  9.000E+00
      21    -1     0     0   501   511  0.000000000E+00  0.000000000E+00 -1.507319927E+03  1.507319927E+03  0.000000000E+00  0.00000E+00  9.000E+00
      25     1     1     2     0     0  6.120150243E+01 -4.459290021E+01 -8.207714595E+02  8.336815576E+02  1.250000000E+02  0.00000E+00  9.000E+00
      25     1     1     2     0     0 -2.943916712E+01  5.535190808E+01 -3.978826189E+02  4.217417180E+02  1.250000000E+02  0.00000E+00  9.000E+00
      21     1     1     2   502   511 -3.176233531E+01 -1.075900788E+01 -2.692410349E+02  2.713214644E+02  0.000000000E+00  0.00000E+00  9.000E+00
#rwgt            1           1  0.12439869203442085                6      176263           0
</event>
<event>
      5   9999  3.79277E-02  2.38919E+01 -1.00000E+00  1.60240E-01
      21    -1     0     0   502   512  0.000000000E+00  0.000000000E+00  3.341126813E+02  3.341126813E+02  0.000000000E+00  0.00000E+00  9.000E+00
      21    -1     0     0   501   502  0.000000000E+00  0.000000000E+00 -1.110469097E+03  1.110469097E+03  0.000000000E+00  0.00000E+00  9.000E+00
      25     1     1     2     0     0 -2.317046731E+02 -3.565236271E+02 -3.738133110E+02  5.797909483E+02  1.250000000E+02  0.00000E+00  9.000E+00
      25     1     1     2     0     0  2.481625896E+02  3.392042442E+02 -5.567811850E+02  7.087132552E+02  1.250000000E+02  0.00000E+00  9.000E+00
      21     1     1     2   501   512 -1.645791649E+01  1.731938293E+01  1.542380801E+02  1.560775749E+02  3.814697266E-06  0.00000E+00  9.000E+00
#rwgt            1           1   3.1698925947552262E-002           6      176381           0
</event>
<event>
      5   9999 -3.79277E-02  4.62440E+01 -1.00000E+00  1.41039E-01
       2    -1     0     0   502     0  0.000000000E+00  0.000000000E+00  4.387592158E+02  4.387592158E+02  0.000000000E+00  0.00000E+00  9.000E+00
      21    -1     0     0   501   502  0.000000000E+00  0.000000000E+00 -2.086047422E+02  2.086047422E+02  0.000000000E+00  0.00000E+00  9.000E+00
      25     1     1     2     0     0  8.924364555E+01 -6.740822718E+01 -1.131267549E+02  2.023140134E+02  1.250000000E+02  0.00000E+00  9.000E+00
      25     1     1     2     0     0 -1.123116961E+02  1.074878110E+02  1.591159459E+02  2.551674564E+02  1.250000000E+02  0.00000E+00  9.000E+00
       2     1     1     2   501     0  2.306805055E+01 -4.007958379E+01  1.841652826E+02  1.898824881E+02  0.000000000E+00  0.00000E+00  9.000E+00
#rwgt            1           1  -2.8578308774664992E-002           6      176607           0
</event>
<event>
      5   9999  3.79277E-02  1.58579E+01 -1.00000E+00  1.75138E-01
      21    -1     0     0   502   501  0.000000000E+00  0.000000000E+00  7.724094172E+01  7.724094172E+01  0.000000000E+00  0.00000E+00  9.000E+00
      21    -1     0     0   501   511  0.000000000E+00  0.000000000E+00 -5.522765368E+02  5.522765368E+02  0.000000000E+00  0.00000E+00  9.000E+00
      25     1     1     2     0     0  8.611874724E-01  1.020634102E+02 -5.294814825E+01  1.698416549E+02  1.250000000E+02  0.00000E+00  9.000E+00
      25     1     1     2     0     0  1.180576427E+01 -9.252292557E+01 -3.158196898E+02  3.522313789E+02  1.250000000E+02  0.00000E+00  9.000E+00
      21     1     1     2   502   511 -1.266695174E+01 -9.540484581E+00 -1.062677570E+02  1.074444447E+02  0.000000000E+00  0.00000E+00  9.000E+00
#rwgt            1           1   3.3014958440466549E-002           6      176736           0
</event>
<event>
      5   9999 -3.79277E-02  7.75675E+01 -1.00000E+00  1.29002E-01
      21    -1     0     0   502   501  0.000000000E+00  0.000000000E+00  1.673027672E+03  1.673027672E+03  0.000000000E+00  0.00000E+00  9.000E+00
      21    -1     0     0   512   502  0.000000000E+00  0.000000000E+00 -7.767526548E+01  7.767526548E+01  0.000000000E+00  0.00000E+00  9.000E+00
      25     1     1     2     0     0  1.689509804E+02 -8.618567805E+01  8.172854506E+02  8.482646478E+02  1.250000000E+02  0.00000E+00  9.000E+00
      25     1     1     2     0     0 -2.445570466E+02  1.035188470E+02  7.704891027E+02  8.245015210E+02  1.250000000E+02  0.00000E+00  9.000E+00
      21     1     1     2   512   501  7.560606626E+01 -1.733316896E+01  7.577852795E+00  7.793676831E+01  2.139134222E-06  0.00000E+00  9.000E+00
#rwgt            1           1 -0.15494139786667865                6      176896           0
</event>
<event>
      5   9999  3.79277E-02  8.32995E+01 -1.00000E+00  1.27506E-01
      21    -1     0     0   502   501  0.000000000E+00  0.000000000E+00  1.041699675E+02  1.041699675E+02  0.000000000E+00  0.00000E+00  9.000E+00
       2    -1     0     0   501     0  0.000000000E+00  0.000000000E+00 -2.850554549E+03  2.850554549E+03  0.000000000E+00  0.00000E+00  9.000E+00
      25     1     1     2     0     0 -9.538640146E+01  8.768896844E+01 -2.587572267E+02  3.152272563E+02  1.250000000E+02  0.00000E+00  9.000E+00
      25     1     1     2     0     0  1.628900117E+02 -3.888252182E+01 -6.992778330E+01  2.203631124E+02  1.250000000E+02  0.00000E+00  9.000E+00
       2     1     1     2   502     0 -6.750361029E+01 -4.880644662E+01 -2.417699571E+03  2.419134148E+03  4.315837288E-05  0.00000E+00  9.000E+00
#rwgt            1           1   3.1861448918809383E-002           6      176983           0
</event>
<event>
      5   9999 -3.79277E-02  2.59246E+02 -1.00000E+00  1.07694E-01
      21    -1     0     0   502   501  0.000000000E+00  0.000000000E+00  2.078198645E+03  2.078198645E+03  0.000000000E+00  0.00000E+00  9.000E+00
      21    -1     0     0   511   502  0.000000000E+00  0.000000000E+00 -8.864866220E+01  8.864866220E+01  0.000000000E+00  0.00000E+00  9.000E+00
      25     1     1     2     0     0  2.185703351E+02 -2.334304874E+02  8.928928321E+02  9.566323189E+02  1.250000000E+02  0.00000E+00  9.000E+00
      25     1     1     2     0     0 -1.614724120E+02 -1.944984459E+01  7.487487131E+02  7.763383744E+02  1.250000000E+02  0.00000E+00  9.000E+00
      21     1     1     2   511   501 -5.709792309E+01  2.528803320E+02  3.479084376E+02  4.338766139E+02  5.394796609E-06  0.00000E+00  9.000E+00
#rwgt            1           1 -0.31651348410133356                6      177089           0
</event>
<event>
      5   9999  3.79277E-02  1.63549E+01 -1.00000E+00  1.73917E-01
      21    -1     0     0   502   512  0.000000000E+00  0.000000000E+00  4.667471218E+02  4.667471218E+02  0.000000000E+00  0.00000E+00  9.000E+00
      21    -1     0     0   501   502  0.000000000E+00  0.000000000E+00 -2.311303780E+02  2.311303780E+02  0.000000000E+00  0.00000E+00  9.000E+00
      25     1     1     2     0     0  8.969005941E+01 -7.912116986E+01 -2.515158723E+01  1.748201036E+02  1.250000000E+02  0.00000E+00  9.000E+00
      25     1     1     2     0     0 -9.039452687E+01  6.278143347E+01 -7.799142246E+01  1.839030746E+02  1.250000000E+02  0.00000E+00  9.000E+00
      21     1     1     2   501   512  7.044674571E-01  1.633973639E+01  3.387597535E+02  3.391543216E+02  3.814697266E-06  0.00000E+00  9.000E+00
#rwgt            1           1   3.7111141000816882E-002           6      177233           0
</event>
<event>
      5   9999  3.79277E-02  3.43111E+01 -1.00000E+00  1.49097E-01
      21    -1     0     0   511   501  0.000000000E+00  0.000000000E+00  8.194797163E+01  8.194797163E+01  0.000000000E+00  0.00000E+00  9.000E+00
      21    -1     0     0   501   502  0.000000000E+00  0.000000000E+00 -4.646930880E+02  4.646930880E+02  0.000000000E+00  0.00000E+00  9.000E+00
      25     1     1     2     0     0 -5.909380558E+01  3.672739797E+01 -3.293043038E+02  3.590366334E+02  1.250000000E+02  0.00000E+00  9.000E+00
      25     1     1     2     0     0  3.399990774E+01 -6.012713856E+01 -2.967382471E+01  1.458656998E+02  1.250000000E+02  0.00000E+00  9.000E+00
      21     1     1     2   511   502  2.509389783E+01  2.339974058E+01 -2.376698783E+01  4.173872636E+01  5.840038640E-07  0.00000E+00  9.000E+00
#rwgt            1           1   2.9545318404776279E-002           6      177472           0
</event>
<event>
      5   9999 -4.15658E-02  1.33095E+02 -1.00000E+00  1.18489E-01
      21    -1     0     0   512   501  0.000000000E+00  0.000000000E+00  2.049941912E+02  2.049941912E+02  0.000000000E+00  0.00000E+00  9.000E+00
      21    -1     0     0   501   502  0.000000000E+00  0.000000000E+00 -8.007137419E+02  8.007137419E+02  0.000000000E+00  0.00000E+00  9.000E+00
      25     1     1     2     0     0  1.069374835E+02 -3.618680728E+02 -3.157545380E+02  5.076515102E+02  1.250000000E+02  0.00000E+00  9.000E+00
      25     1     1     2     0     0 -6.083191557E+01  2.370137298E+02 -2.203744273E+02  3.522299225E+02  1.250000000E+02  0.00000E+00  9.000E+00
      21     1     1     2   512   502 -4.610556793E+01  1.248543430E+02 -5.959058546E+01  1.458265005E+02  2.336015456E-06  0.00000E+00  9.000E+00
#rwgt            1           1 -0.55488234679490878                6      177557           0
</event>
<event>
      5   9999  3.79277E-02  5.29623E+01 -1.00000E+00  1.37664E-01
      21    -1     0     0   502   511  0.000000000E+00  0.000000000E+00  2.385612494E+02  2.385612494E+02  0.000000000E+00  0.00000E+00  9.000E+00
      21    -1     0     0   501   502  0.000000000E+00  0.000000000E+00 -3.073708372E+02  3.073708372E+02  0.000000000E+00  0.00000E+00  9.000E+00
      25     1     1     2     0     0  1.676944131E+02  1.414943045E+02  3.032749418E+01  2.543360205E+02  1.250000000E+02  0.00000E+00  9.000E+00
      25     1     1     2     0     0 -1.195403595E+02 -1.194444193E+02 -1.104380924E+02  2.374414435E+02  1.250000000E+02  0.00000E+00  9.000E+00
      21     1     1     2   501   511 -4.815405363E+01 -2.204988519E+01  1.130101042E+01  5.415462265E+01  5.462855929E-07  0.00000E+00  9.000E+00
#rwgt            1           1   4.5839065865269403E-002           6      177741           0
</event>
<event>
      5   9999  3.79277E-02  1.47164E+02 -1.00000E+00  1.16723E-01
      21    -1     0     0   502   512  0.000000000E+00  0.000000000E+00  6.723003550E+02  6.723003550E+02  0.000000000E+00  0.00000E+00  9.000E+00
      21    -1     0     0   501   502  0.000000000E+00  0.000000000E+00 -2.191654325E+02  2.191654325E+02  0.000000000E+00  0.00000E+00  9.000E+00
      25     1     1     2     0     0 -3.315433130E+00  9.971118323E+01 -1.056319387E+02  1.916674689E+02  1.250000000E+02  0.00000E+00  9.000E+00
      25     1     1     2     0     0 -5.111021036E+01 -2.364411786E+02  3.932758468E+02  4.783383491E+02  1.250000000E+02  0.00000E+00  9.000E+00
      21     1     1     2   501   512  5.442564349E+01  1.367299953E+02  1.654910143E+02  2.214599696E+02  3.814697266E-06  0.00000E+00  9.000E+00
#rwgt            1           1   3.9353971389347694E-002           6      177829           0
</event>
<event>
      5   9999  3.79277E-02  8.22918E+01 -1.00000E+00  1.27759E-01
      21    -1     0     0   502   501  0.000000000E+00  0.000000000E+00  3.928244609E+02  3.928244609E+02  0.000000000E+00  0.00000E+00  9.000E+00
      21    -1     0     0   501   511  0.000000000E+00  0.000000000E+00 -4.870629478E+02  4.870629478E+02  0.000000000E+00  0.00000E+00  9.000E+00
      25     1     1     2     0     0  9.149648322E+01 -2.309511324E+02  1.472918383E+02  3.146901931E+02  1.250000000E+02  0.00000E+00  9.000E+00
      25     1     1     2     0     0 -2.732996524E+01  1.794282881E+02  7.912394726E+01  2.341517384E+02  1.250000000E+02  0.00000E+00  9.000E+00
      21     1     1     2   502   511 -6.416651797E+01  5.152284430E+01 -3.206542725E+02  3.310454772E+02  0.000000000E+00  0.00000E+00  9.000E+00
#rwgt            1           1   3.4740539972608307E-002           6      177933           0
</event>
<event>
      5   9999  3.79277E-02  4.68262E+01 -1.00000E+00  1.40720E-01
      21    -1     0     0   502   512  0.000000000E+00  0.000000000E+00  7.596574915E+02  7.596574915E+02  0.000000000E+00  0.00000E+00  9.000E+00
      21    -1     0     0   501   502  0.000000000E+00  0.000000000E+00 -7.103965893E+01  7.103965893E+01  0.000000000E+00  0.00000E+00  9.000E+00
      25     1     1     2     0     0 -1.221079381E+02 -4.722887556E+00  4.287179521E+02  4.629867565E+02  1.250000000E+02  0.00000E+00  9.000E+00
      25     1     1     2     0     0  1.412185601E+02 -3.802607053E+01  1.369759343E+02  2.361695797E+02  1.250000000E+02  0.00000E+00  9.000E+00
      21     1     1     2   501   512 -1.911062201E+01  4.274895809E+01  1.229239461E+02  1.315408143E+02  1.907348633E-06  0.00000E+00  9.000E+00
#rwgt            1           1   3.7434887831274931E-002           6      178154           0
</event>
<event>
      5   9999  3.79277E-02  7.57581E+01 -1.00000E+00  1.29505E-01
      21    -1     0     0   502   501  0.000000000E+00  0.000000000E+00  1.979744446E+02  1.979744446E+02  0.000000000E+00  0.00000E+00  9.000E+00
      21    -1     0     0   511   502  0.000000000E+00  0.000000000E+00 -4.340092303E+02  4.340092303E+02  0.000000000E+00  0.00000E+00  9.000E+00
      25     1     1     2     0     0  1.146612865E+02 -7.816860962E+01 -2.263355656E+02  2.934456175E+02  1.250000000E+02  0.00000E+00  9.000E+00
      25     1     1     2     0     0 -1.886756804E+02  6.200815129E+01  5.255820303E+01  2.404805354E+02  1.250000000E+02  0.00000E+00  9.000E+00
      21     1     1     2   511   501  7.401439388E+01  1.616045833E+01 -6.225742312E+01  9.805752214E+01  1.651812370E-06  0.00000E+00  9.000E+00
#rwgt            1           1   4.5005464587527785E-002           6      178349           0
</event>
<event>
      5   9999  5.03211E-02  5.45997E+01 -1.00000E+00  1.36929E-01
      21    -1     0     0   502   512  0.000000000E+00  0.000000000E+00  1.132094457E+03  1.132094457E+03  0.000000000E+00  0.00000E+00  9.000E+00
      21    -1     0     0   501   502  0.000000000E+00  0.000000000E+00 -3.110765203E+02  3.110765203E+02  0.000000000E+00  0.00000E+00  9.000E+00
      25     1     1     2     0     0  2.364954688E+02 -4.507759472E+02  1.589487371E+02  5.477396849E+02  1.250000000E+02  0.00000E+00  9.000E+00
      25     1     1     2     0     0 -2.907965906E+02  4.450732660E+02  6.217556732E+02  8.275614699E+02  1.250000000E+02  0.00000E+00  9.000E+00
      21     1     1     2   501   512  5.430112179E+01  5.702681208E+00  4.031352634E+01  6.786982250E+01  4.768371582E-07  0.00000E+00  9.000E+00
#rwgt            1           1  0.42187134366714463                6      178481           0
</event>
<event>
      5   9999  3.79277E-02  8.62422E+01 -1.00000E+00  1.26790E-01
      21    -1     0     0   502   511  0.000000000E+00  0.000000000E+00  4.833172974E+02  4.833172974E+02  0.000000000E+00  0.00000E+00  9.000E+00
      21    -1     0     0   501   502  0.000000000E+00  0.000000000E+00 -1.748449573E+02  1.748449573E+02  0.000000000E+00  0.00000E+00  9.000E+00
      25     1     1     2     0     0  8.544821982E+01 -4.386965374E+01 -9.744891279E+01  1.853300715E+02  1.250000000E+02  0.00000E+00  9.000E+00
      25     1     1     2     0     0 -8.192161220E+01 -4.230045088E+01  2.408695380E+02  2.866070708E+02  1.250000000E+02  0.00000E+00  9.000E+00
      21     1     1     2   501   511 -3.526607621E+00  8.617010462E+01  1.650517150E+02  1.862251124E+02  1.907348633E-06  0.00000E+00  9.000E+00
#rwgt            1           1   2.4439478655573870E-002           6      178793           0
</event>
<event>
      5   9999  3.79277E-02  4.02613E+01 -1.00000E+00  1.44665E-01
      21    -1     0     0   502   501  0.000000000E+00  0.000000000E+00  3.464770333E+02  3.464770333E+02  0.000000000E+00  0.00000E+00  9.000E+00
      -1    -1     0     0     0   502  0.000000000E+00  0.000000000E+00 -1.099020184E+02  1.099020184E+02  0.000000000E+00  0.00000E+00  9.000E+00
      25     1     1     2     0     0  5.784970198E+01 -1.662744922E+01  2.216471198E+02  2.614871044E+02  1.250000000E+02  0.00000E+00  9.000E+00
      25     1     1     2     0     0 -2.735973985E+01 -9.665827745E+00 -3.280122605E+01  1.324496282E+02  1.250000000E+02  0.00000E+00  9.000E+00
      -1     1     1     2     0   501 -3.048996212E+01  2.629327697E+01  4.772912114E+01  6.244231905E+01  9.536743164E-07  0.00000E+00  9.000E+00
#rwgt            1           1   3.6122255372717169E-002           6      178896           0
</event>
<event>
      5   9999  3.79277E-02  2.89575E+02 -1.00000E+00  1.06093E-01
      21    -1     0     0   502   501  0.000000000E+00  0.000000000E+00  5.043776928E+02  5.043776928E+02  0.000000000E+00  0.00000E+00  9.000E+00
      21    -1     0     0   511   502  0.000000000E+00  0.000000000E+00 -9.687827104E+02  9.687827104E+02  0.000000000E+00  0.00000E+00  9.000E+00
      25     1     1     2     0     0 -1.565676278E+02  5.645363517E+02 -1.172242340E+01  5.991470017E+02  1.250000000E+02  0.00000E+00  9.000E+00
      25     1     1     2     0     0 -8.774742729E+01 -4.090889172E+02 -1.678039015E+02  4.677996393E+02  1.250000000E+02  0.00000E+00  9.000E+00
      21     1     1     2   511   501  2.443150550E+02 -1.554474346E+02 -2.848786927E+02  4.062137622E+02  5.394796609E-06  0.00000E+00  9.000E+00
#rwgt            2          11   8.4977988961397865E-003           6      179108           0
</event>
<event>
      5   9999  3.79277E-02  1.23685E+01 -1.00000E+00  1.85657E-01
      21    -1     0     0   502   501  0.000000000E+00  0.000000000E+00  3.215004710E+02  3.215004710E+02  0.000000000E+00  0.00000E+00  9.000E+00
      21    -1     0     0   501   512  0.000000000E+00  0.000000000E+00 -1.120913767E+02  1.120913767E+02  0.000000000E+00  0.00000E+00  9.000E+00
      25     1     1     2     0     0  9.747100772E+01 -8.952729309E+01  8.976601587E+01  2.029745579E+02  1.250000000E+02  0.00000E+00  9.000E+00
      25     1     1     2     0     0 -1.051665696E+02  7.984437825E+01  1.206431577E+02  2.182083949E+02  1.250000000E+02  0.00000E+00  9.000E+00
      21     1     1     2   502   512  7.695561899E+00  9.682914841E+00 -1.000079322E+00  1.240889485E+01  1.504943511E-07  0.00000E+00  9.000E+00
#rwgt            1           1   4.5725236444265065E-002           6      179128           0
</event>
<event>
      5   9999  3.79277E-02  3.99339E+01 -1.00000E+00  1.44885E-01
      21    -1     0     0   502   501  0.000000000E+00  0.000000000E+00  1.142403254E+02  1.142403254E+02  0.000000000E+00  0.00000E+00  9.000E+00
       1    -1     0     0   501     0  0.000000000E+00  0.000000000E+00 -1.723669531E+03  1.723669531E+03  0.000000000E+00  0.00000E+00  9.000E+00
      25     1     1     2     0     0 -2.030265762E+02  1.098199182E+02 -1.734713317E+02  3.146386943E+02  1.250000000E+02  0.00000E+00  9.000E+00
      25     1     1     2     0     0  1.708232987E+02 -8.620505188E+01 -2.581534873E+02  3.447899844E+02  1.250000000E+02  0.00000E+00  9.000E+00
       1     1     1     2   502     0  3.220327749E+01 -2.361486628E+01 -1.177804386E+03  1.178481177E+03  1.525878906E-05  0.00000E+00  9.000E+00
#rwgt            1           1   3.3008546928390628E-002           6      179368           0
</event>
<event>
      5   9999  3.79277E-02  2.93725E+01 -1.00000E+00  1.53680E-01
      21    -1     0     0   502   501  0.000000000E+00  0.000000000E+00  1.323785468E+03  1.323785468E+03  0.000000000E+00  0.00000E+00  9.000E+00
      21    -1     0     0   511   502  0.000000000E+00  0.000000000E+00 -4.471695604E+02  4.471695604E+02  0.000000000E+00  0.00000E+00  9.000E+00
      25     1     1     2     0     0  1.100986883E+01  2.013071237E+02  1.446715343E+02  2.778500101E+02  1.250000000E+02  0.00000E+00  9.000E+00
      25     1     1     2     0     0  1.835739421E+01 -2.018603451E+02  1.099188157E+03  1.124688489E+03  1.250000000E+02  0.00000E+00  9.000E+00
      21     1     1     2   511   501 -2.936726304E+01  5.532213951E-01 -3.672437838E+02  3.684165291E+02  7.629394531E-06  0.00000E+00  9.000E+00
#rwgt            1           1   4.4399302162117828E-002           6      179504           0
</event>
<event>
      5   9999  3.79277E-02  3.93160E+01 -1.00000E+00  1.45306E-01
      21    -1     0     0   512   501  0.000000000E+00  0.000000000E+00  2.079572118E+02  2.079572118E+02  0.000000000E+00  0.00000E+00  9.000E+00
      21    -1     0     0   501   502  0.000000000E+00  0.000000000E+00 -3.894821093E+02  3.894821093E+02  0.000000000E+00  0.00000E+00  9.000E+00
      25     1     1     2     0     0  8.324945220E+01 -7.420549180E+01 -2.847976391E+01  1.699206381E+02  1.250000000E+02  0.00000E+00  9.000E+00
      25     1     1     2     0     0 -8.481423610E+01  1.134903706E+02 -2.555044037E+02  3.177751079E+02  1.250000000E+02  0.00000E+00  9.000E+00
      21     1     1     2   512   502  1.564783903E+00 -3.928487879E+01  1.024592702E+02  1.097435752E+02  1.348699152E-06  0.00000E+00  9.000E+00
#rwgt            1           1   4.0657715376685978E-002           6      179691           0
</event>
<event>
      5   9999  3.79277E-02  3.92050E+01 -1.00000E+00  1.45383E-01
      21    -1     0     0   502   511  0.000000000E+00  0.000000000E+00  4.823204507E+02  4.823204507E+02  0.000000000E+00  0.00000E+00  9.000E+00
      21    -1     0     0   501   502  0.000000000E+00  0.000000000E+00 -1.214296257E+02  1.214296257E+02  0.000000000E+00  0.00000E+00  9.000E+00
      25     1     1     2     0     0 -1.818644671E+02 -1.142752721E+01  1.245237057E+02  2.536462616E+02  1.250000000E+02  0.00000E+00  9.000E+00
      25     1     1     2     0     0  1.763002550E+02 -2.738060689E+01  1.872707644E+02  2.872748105E+02  1.250000000E+02  0.00000E+00  9.000E+00
      21     1     1     2   501   511  5.564212100E+00  3.880813409E+01  4.909635482E+01  6.282900433E+01  0.000000000E+00  0.00000E+00  9.000E+00
#rwgt            1           1   3.9972708007547451E-002           6      179784           0
</event>
<event>
      5   9999  3.79277E-02  5.95954E+01 -1.00000E+00  1.34861E-01
       5    -1     0     0   502     0  0.000000000E+00  0.000000000E+00  1.342412414E+03  1.342412414E+03  0.000000000E+00  0.00000E+00  9.000E+00
      21    -1     0     0   501   502  0.000000000E+00  0.000000000E+00 -7.818898249E+02  7.818898249E+02  0.000000000E+00  0.00000E+00  9.000E+00
      25     1     1     2     0     0 -2.908688676E+02 -3.077470989E+02 -4.524038570E+02  6.321449398E+02  1.250000000E+02  0.00000E+00  9.000E+00
      25     1     1     2     0     0  3.503627841E+02  3.042710728E+02  3.119243204E+00  4.805930669E+02  1.250000000E+02  0.00000E+00  9.000E+00
       5     1     1     2   501     0 -5.949391652E+01  3.476026146E+00  1.009807203E+03  1.011564232E+03  1.525878906E-05  0.00000E+00  9.000E+00
#rwgt            1           1  0.10259056410671064                6      179973           0
</event>
<event>
      5   9999  3.79277E-02  3.20515E+01 -1.00000E+00  1.51071E-01
      21    -1     0     0   502   511  0.000000000E+00  0.000000000E+00  5.213120523E+02  5.213120523E+02  0.000000000E+00  0.00000E+00  9.000E+00
      21    -1     0     0   501   502  0.000000000E+00  0.000000000E+00 -1.522077175E+02  1.522077175E+02  0.000000000E+00  0.00000E+00  9.000E+00
      25     1     1     2     0     0  1.245963369E+02  2.095071637E+02  1.895498882E+02  3.331240894E+02  1.250000000E+02  0.00000E+00  9.000E+00
      25     1     1     2     0     0 -9.983018847E+01 -1.891618021E+02  1.258883196E+02  2.778868887E+02  1.250000000E+02  0.00000E+00  9.000E+00
      21     1     1     2   501   511 -2.476614845E+01 -2.034536167E+01  5.366612703E+01  6.250879171E+01  6.743495762E-07  0.00000E+00  9.000E+00
#rwgt            1           1   7.0836832848656358E-003           6      180108           0
</event>
<event>
      5   9999  3.79277E-02  2.90094E+01 -1.00000E+00  1.54060E-01
      21    -1     0     0   512   501  0.000000000E+00  0.000000000E+00  5.127025019E+02  5.127025019E+02  0.000000000E+00  0.00000E+00  9.000E+00
      21    -1     0     0   501   502  0.000000000E+00  0.000000000E+00 -1.001163470E+02  1.001163470E+02  0.000000000E+00  0.00000E+00  9.000E+00
      25     1     1     2     0     0 -3.032910362E+01  1.169759740E+02  3.256234232E+01  1.768856669E+02  1.250000000E+02  0.00000E+00  9.000E+00
      25     1     1     2     0     0  3.616263538E+01 -8.855917493E+01  2.046709556E+02  2.581969475E+02  1.250000000E+02  0.00000E+00  9.000E+00
      21     1     1     2   512   502 -5.833531757E+00 -2.841679908E+01  1.753528570E+02  1.777362344E+02  1.907348633E-06  0.00000E+00  9.000E+00
#rwgt            1           1   6.6265469560326017E-003           6      180401           0
</event>
<event>
      5   9999  3.79277E-02  5.66534E+01 -1.00000E+00  1.36049E-01
      21    -1     0     0   502   511  0.000000000E+00  0.000000000E+00  2.885720391E+02  2.885720391E+02  0.000000000E+00  0.00000E+00  9.000E+00
      21    -1     0     0   501   502  0.000000000E+00  0.000000000E+00 -2.664496050E+02  2.664496050E+02  0.000000000E+00  0.00000E+00  9.000E+00
      25     1     1     2     0     0 -1.276773511E+02 -1.260452527E+02 -2.489146946E+01  2.200761163E+02  1.250000000E+02  0.00000E+00  9.000E+00
      25     1     1     2     0     0  1.642116522E+02  8.274566398E+01 -4.503442555E+01  2.268598931E+02  1.250000000E+02  0.00000E+00  9.000E+00
      21     1     1     2   501   511 -3.653430106E+01  4.329958869E+01  9.204832910E+01  1.080856347E+02  1.348699152E-06  0.00000E+00  9.000E+00
#rwgt            1           1   2.8820724782960432E-002           6      180489           0
</event>
<event>
      5   9999  3.79277E-02  3.68164E+01 -1.00000E+00  1.47110E-01
      21    -1     0     0   502   501  0.000000000E+00  0.000000000E+00  7.526180558E+01  7.526180558E+01  0.000000000E+00  0.00000E+00  9.000E+00
      21    -1     0     0   512   502  0.000000000E+00  0.000000000E+00 -7.044376312E+02  7.044376312E+02  0.000000000E+00  0.00000E+00  9.000E+00
      25     1     1     2     0     0  3.439572354E+01  9.745069279E+01 -5.186219827E+02  5.433907105E+02  1.250000000E+02  0.00000E+00  9.000E+00
      25     1     1     2     0     0 -6.147759804E+01 -7.251040795E+01 -4.886510769E+01  1.644690034E+02  1.250000000E+02  0.00000E+00  9.000E+00
      21     1     1     2   512   501  2.708187449E+01 -2.494028484E+01 -6.168873526E+01  7.183972294E+01  9.536743164E-07  0.00000E+00  9.000E+00
#rwgt            1           1   2.9691345758567071E-002           6      180545           0
</event>
<event>
      5   9999  3.79277E-02  7.51507E+01 -1.00000E+00  1.29678E-01
      21    -1     0     0   502   511  0.000000000E+00  0.000000000E+00  5.420376842E+02  5.420376842E+02  0.000000000E+00  0.00000E+00  9.000E+00
      21    -1     0     0   501   502  0.000000000E+00  0.000000000E+00 -1.621201569E+02  1.621201569E+02  0.000000000E+00  0.00000E+00  9.000E+00
      25     1     1     2     0     0 -1.186196319E+01  7.158036224E+01  2.923275482E+02  3.261055809E+02  1.250000000E+02  0.00000E+00  9.000E+00
      25     1     1     2     0     0  2.210536850E+01  2.868906580E+00 -1.091559568E+02  1.674422314E+02  1.250000000E+02  0.00000E+00  9.000E+00
      21     1     1     2   501   511 -1.024340530E+01 -7.444926882E+01  1.967459359E+02  2.106100289E+02  0.000000000E+00  0.00000E+00  9.000E+00
#rwgt            1           1   2.4177311359977433E-002           6      180869           0
</event>
<event>
      5   9999  3.79277E-02  1.30443E+02 -1.00000E+00  1.18850E-01
      21    -1     0     0   502   501  0.000000000E+00  0.000000000E+00  1.821526410E+02  1.821526410E+02  0.000000000E+00  0.00000E+00  9.000E+00
      21    -1     0     0   512   502  0.000000000E+00  0.000000000E+00 -6.610516567E+02  6.610516567E+02  0.000000000E+00  0.00000E+00  9.000E+00
      25     1     1     2     0     0  2.346573899E+02  3.492424569E+01 -2.307984838E+02  3.538032415E+02  1.250000000E+02  0.00000E+00  9.000E+00
      25     1     1     2     0     0 -1.074388288E+02 -6.102002062E+00  4.296346128E+01  1.704441122E+02  1.250000000E+02  0.00000E+00  9.000E+00
      21     1     1     2   512   501 -1.272185611E+02 -2.882224363E+01 -2.910639932E+02  3.189569440E+02  3.814697266E-06  0.00000E+00  9.000E+00
#rwgt            1           1   3.9624955957855965E-002           6      181017           0
</event>
<event>
      5   9999  3.79277E-02  1.75300E+01 -1.00000E+00  1.71235E-01
      21    -1     0     0   502   511  0.000000000E+00  0.000000000E+00  2.179854179E+02  2.179854179E+02  0.000000000E+00  0.00000E+00  9.000E+00
      21    -1     0     0   501   502  0.000000000E+00  0.000000000E+00 -5.003724606E+02  5.003724606E+02  0.000000000E+00  0.00000E+00  9.000E+00
      25     1     1     2     0     0 -2.188688908E+01 -6.161748086E+01  1.312275844E+01  1.416790621E+02  1.250000000E+02  0.00000E+00  9.000E+00
      25     1     1     2     0     0  1.858685245E+01  4.440088834E+01 -4.252051433E+02  4.458041318E+02  1.250000000E+02  0.00000E+00  9.000E+00
      21     1     1     2   501   511  3.300036622E+00  1.721659252E+01  1.296953421E+02  1.308746846E+02  0.000000000E+00  0.00000E+00  9.000E+00
#rwgt            1           1   2.9852039284425397E-002           6      181101           0
</event>
<event>
      5   9999  3.79277E-02  2.19991E+01 -1.00000E+00  1.63026E-01
      21    -1     0     0   502   512  0.000000000E+00  0.000000000E+00  3.433500664E+03  3.433500664E+03  0.000000000E+00  0.00000E+00  9.000E+00
      21    -1     0     0   501   502  0.000000000E+00  0.000000000E+00 -1.784026741E+01  1.784026741E+01  0.000000000E+00  0.00000E+00  9.000E+00
      25     1     1     2     0     0  1.561413401E+02  9.763235903E+01  1.063899964E+03  1.086931612E+03  1.250000000E+02  0.00000E+00  9.000E+00
      25     1     1     2     0     0 -1.386268869E+02 -1.109442002E+02  1.951233558E+03  1.963278744E+03  1.250000000E+02  0.00000E+00  9.000E+00
      21     1     1     2   501   512 -1.751445328E+01  1.331184121E+01  4.005268744E+02  4.011305751E+02  0.000000000E+00  0.00000E+00  9.000E+00
#rwgt            1           1   3.4581533823055774E-002           6      181273           0
</event>
<event>
      5   9999  3.79277E-02  2.35606E+01 -1.00000E+00  1.60704E-01
      21    -1     0     0   502   511  0.000000000E+00  0.000000000E+00  4.493348311E+02  4.493348311E+02  0.000000000E+00  0.00000E+00  9.000E+00
      21    -1     0     0   501   502  0.000000000E+00  0.000000000E+00 -1.193731267E+02  1.193731267E+02  0.000000000E+00  0.00000E+00  9.000E+00
      25     1     1     2     0     0  7.994134218E+01 -8.309890160E+01  1.716554100E+02  2.416332457E+02  1.250000000E+02  0.00000E+00  9.000E+00
      25     1     1     2     0     0 -7.584754627E+01  5.989669352E+01 -8.863256502E+00  1.582530299E+02  1.250000000E+02  0.00000E+00  9.000E+00
      21     1     1     2   501   511 -4.093795903E+00  2.320220807E+01  1.671695508E+02  1.688216821E+02  2.697398305E-06  0.00000E+00  9.000E+00
#rwgt            1           1   2.6373371844454315E-002           6      181426           0
</event>
<event>
      5   9999  3.79277E-02  5.08609E+01 -1.00000E+00  1.38654E-01
      21    -1     0     0   502   512  0.000000000E+00  0.000000000E+00  4.674446424E+02  4.674446424E+02  0.000000000E+00  0.00000E+00  9.000E+00
      21    -1     0     0   501   502  0.000000000E+00  0.000000000E+00 -1.962767578E+02  1.962767578E+02  0.000000000E+00  0.00000E+00  9.000E+00
      25     1     1     2     0     0  2.120179950E+02 -4.885215894E+01  6.064111643E+01  2.581482300E+02  1.250000000E+02  0.00000E+00  9.000E+00
      25     1     1     2     0     0 -2.626526331E+02  5.364464415E+01  1.804854760E+02  3.465027570E+02  1.250000000E+02  0.00000E+00  9.000E+00
      21     1     1     2   501   512  5.063463816E+01 -4.792485202E+00  3.004129215E+01  5.907041332E+01  7.539457465E-07  0.00000E+00  9.000E+00
#rwgt            1           1   5.0350689271037745E-002           6      181625           0
</event>
<event>
      5   9999  3.79277E-02  2.20335E+01 -1.00000E+00  1.62972E-01
      21    -1     0     0   511   501  0.000000000E+00  0.000000000E+00  7.451319818E+02  7.451319818E+02  0.000000000E+00  0.00000E+00  9.000E+00
      21    -1     0     0   501   502  0.000000000E+00  0.000000000E+00 -3.411880448E+01  3.411880448E+01  0.000000000E+00  0.00000E+00  9.000E+00
      25     1     1     2     0     0 -6.366833015E+01  2.711546832E-02  1.971824553E+02  2.419908628E+02  1.250000000E+02  0.00000E+00  9.000E+00
      25     1     1     2     0     0  4.818065325E+01 -1.569893900E+01  4.440640142E+02  4.640966287E+02  1.250000000E+02  0.00000E+00  9.000E+00
      21     1     1     2   511   502  1.548767691E+01  1.567182353E+01  6.976670781E+01  7.316329481E+01  0.000000000E+00  0.00000E+00  9.000E+00
#rwgt            1           1   7.8449800523197444E-002           6      181732           0
</event>
<event>
      5   9999  3.79277E-02  1.29502E+02 -1.00000E+00  1.18980E-01
      21    -1     0     0   512   501  0.000000000E+00  0.000000000E+00  9.071965870E+01  9.071965870E+01  0.000000000E+00  0.00000E+00  9.000E+00
      21    -1     0     0   501   502  0.000000000E+00  0.000000000E+00 -2.102238624E+03  2.102238624E+03  0.000000000E+00  0.00000E+00  9.000E+00
      25     1     1     2     0     0 -3.144267206E+02 -1.400673119E+02 -1.131662606E+03  1.189440317E+03  1.250000000E+02  0.00000E+00  9.000E+00
      25     1     1     2     0     0  1.906914368E+02  1.018540371E+02 -8.265905675E+02  8.634896845E+02  1.250000000E+02  0.00000E+00  9.000E+00
      21     1     1     2   512   502  1.237352838E+02  3.821327484E+01 -5.326579148E+01  1.400282806E+02  4.101908334E-06  0.00000E+00  9.000E+00
#rwgt            1           1   2.8850886737504845E-002           6      181922           0
</event>
<event>
      5   9999 -3.79277E-02  1.56762E+02 -1.00000E+00  1.15640E-01
      21    -1     0     0   502   511  0.000000000E+00  0.000000000E+00  1.097641143E+02  1.097641143E+02  0.000000000E+00  0.00000E+00  9.000E+00
      21    -1     0     0   501   502  0.000000000E+00  0.000000000E+00 -1.505029133E+03  1.505029133E+03  0.000000000E+00  0.00000E+00  9.000E+00
      25     1     1     2     0     0  1.457428401E+02 -1.520967386E+01 -9.062797608E+02  9.265205419E+02  1.250000000E+02  0.00000E+00  9.000E+00
      25     1     1     2     0     0 -2.896003696E+02  7.749417820E+01 -3.634833455E+02  4.874616541E+02  1.250000000E+02  0.00000E+00  9.000E+00
      21     1     1     2   501   511  1.438575296E+02 -6.228450434E+01 -1.255019118E+02  2.008110509E+02  1.348699152E-06  0.00000E+00  9.000E+00
#rwgt            1           1  -2.6147224747322596E-002           6      181985           0
</event>
<event>
      5   9999  3.79277E-02  3.11829E+02 -1.00000E+00  1.05049E-01
       1    -1     0     0   502     0  0.000000000E+00  0.000000000E+00  3.131149221E+03  3.131149221E+03  0.000000000E+00  0.00000E+00  9.000E+00
      21    -1     0     0   501   502  0.000000000E+00  0.000000000E+00 -2.764739495E+02  2.764739495E+02  0.000000000E+00  0.00000E+00  9.000E+00
      25     1     1     2     0     0  6.357388556E+02  1.249605835E+02  7.782704663E+02  1.020347470E+03  1.250000000E+02  0.00000E+00  9.000E+00
      25     1     1     2     0     0 -7.077806492E+02 -4.283532812E+02  1.251783021E+03  1.505664542E+03  1.250000000E+02  0.00000E+00  9.000E+00
       1     1     1     2   501     0  7.204179353E+01  3.033926977E+02  8.246217843E+02  8.816111593E+02  1.078959322E-05  0.00000E+00  9.000E+00
#rwgt            1           1   1.3272903329286852E-002           6      182023           0
</event>
<event>
      5   9999  3.79277E-02  1.45583E+01 -1.00000E+00  1.78615E-01
      21    -1     0     0   502   501  0.000000000E+00  0.000000000E+00  1.285133230E+02  1.285133230E+02  0.000000000E+00  0.00000E+00  9.000E+00
      21    -1     0     0   501   511  0.000000000E+00  0.000000000E+00 -3.457113603E+02  3.457113603E+02  0.000000000E+00  0.00000E+00  9.000E+00
      25     1     1     2     0     0 -8.104630608E+01  1.144362383E+02 -1.960188277E+02  2.715005289E+02  1.250000000E+02  0.00000E+00  9.000E+00
      25     1     1     2     0     0  6.692829077E+01 -1.108831015E+02 -3.780657575E+00  1.800381950E+02  1.250000000E+02  0.00000E+00  9.000E+00
      21     1     1     2   502   511  1.411801530E+01 -3.553136859E+00 -1.739855214E+01  2.268595941E+01  2.384185791E-07  0.00000E+00  9.000E+00
#rwgt            1           1   3.4194311770279298E-003           6      182068           0
</event>
<event>
      5   9999 -3.79277E-02  2.28786E+02 -1.00000E+00  1.09563E-01
      21    -1     0     0   502   501  0.000000000E+00  0.000000000E+00  2.611451425E+02  2.611451425E+02  0.000000000E+00  0.00000E+00  9.000E+00
       3    -1     0     0   501     0  0.000000000E+00  0.000000000E+00 -1.167385510E+03  1.167385510E+03  0.000000000E+00  0.00000E+00  9.000E+00
      25     1     1     2     0     0 -2.547902924E+02 -1.096672100E+02  6.014722928E+01  3.101413859E+02  1.250000000E+02  0.00000E+00  9.000E+00
      25     1     1     2     0     0  3.133358717E+01  1.587583824E+02 -1.104463041E+02  2.323992335E+02  1.250000000E+02  0.00000E+00  9.000E+00
       3     1     1     2   502     0  2.234567052E+02 -4.909117238E+01 -8.559412923E+02  8.859900328E+02  0.000000000E+00  0.00000E+00  9.000E+00
#rwgt            1           1  -4.6663580015693693E-002           6      182275           0
</event>
<event>
      5   9999  3.79277E-02  1.41874E+02 -1.00000E+00  1.17360E-01
       1    -1     0     0   502     0  0.000000000E+00  0.000000000E+00  2.341802501E+03  2.341802501E+03  0.000000000E+00  0.00000E+00  9.000E+00
      21    -1     0     0   501   502  0.000000000E+00  0.000000000E+00 -6.382382149E+02  6.382382149E+02  0.000000000E+00  0.00000E+00  9.000E+00
      25     1     1     2     0     0 -6.414882442E+01 -1.100499779E+02 -5.594243540E+02  5.872024158E+02  1.250000000E+02  0.00000E+00  9.000E+00
      25     1     1     2     0     0  7.829637400E+01 -3.111663471E+01  2.796389577E+01  1.533151871E+02  1.250000000E+02  0.00000E+00  9.000E+00
       1     1     1     2   501     0 -1.414754958E+01  1.411666126E+02  2.235024745E+03  2.239523113E+03  4.315837288E-05  0.00000E+00  9.000E+00
#rwgt            1           1   4.1680940305953956E-002           6      182357           0
</event>
<event>
      5   9999  3.79277E-02  4.47499E+01 -1.00000E+00  1.41881E-01
       2    -1     0     0   502     0  0.000000000E+00  0.000000000E+00  6.010927440E+03  6.010927440E+03  0.000000000E+00  0.00000E+00  9.000E+00
      21    -1     0     0   501   502  0.000000000E+00  0.000000000E+00 -3.990611129E+01  3.990611129E+01  0.000000000E+00  0.00000E+00  9.000E+00
      25     1     1     2     0     0  7.616220245E+01 -1.564607678E+02  9.783388427E+02  1.001525109E+03  1.250000000E+02  0.00000E+00  9.000E+00
      25     1     1     2     0     0 -3.247462940E+01  1.467678777E+02  3.105546424E+02  3.669667524E+02  1.250000000E+02  0.00000E+00  9.000E+00
       2     1     1     2   501     0 -4.368757305E+01  9.692890136E+00  4.682127844E+03  4.682341690E+03  0.000000000E+00  0.00000E+00  9.000E+00
#rwgt            1           1   4.4622233254646322E-002           6      182466           0
</event>
<event>
      5   9999  3.79277E-02  2.13515E+02 -1.00000E+00  1.10624E-01
      21    -1     0     0   502   511  0.000000000E+00  0.000000000E+00  1.082492594E+02  1.082492594E+02  0.000000000E+00  0.00000E+00  9.000E+00
      21    -1     0     0   501   502  0.000000000E+00  0.000000000E+00 -1.365551957E+03  1.365551957E+03  0.000000000E+00  0.00000E+00  9.000E+00
      25     1     1     2     0     0 -1.912542948E+02  6.666888915E+01 -6.695383260E+02  7.105839261E+02  1.250000000E+02  0.00000E+00  9.000E+00
      25     1     1     2     0     0  1.932516262E+02  1.468369618E+02 -3.156184626E+02  4.173095953E+02  1.250000000E+02  0.00000E+00  9.000E+00
      21     1     1     2   501   511 -1.997331407E+00 -2.135058510E+02 -2.721459089E+02  3.459076950E+02  3.814697266E-06  0.00000E+00  9.000E+00
#rwgt            1           1   4.0765060148162037E-002           6      182728           0
</event>
<event>
      5   9999  3.79277E-02  2.98248E+01 -1.00000E+00  1.53217E-01
       2    -1     0     0   502     0  0.000000000E+00  0.000000000E+00  3.929256568E+03  3.929256568E+03  0.000000000E+00  0.00000E+00  9.000E+00
      21    -1     0     0   501   502  0.000000000E+00  0.000000000E+00 -2.312496917E+01  2.312496917E+01  0.000000000E+00  0.00000E+00  9.000E+00
      25     1     1     2     0     0 -1.209550992E+02  3.503726904E+01  4.834731537E+02  5.150039190E+02  1.250000000E+02  0.00000E+00  9.000E+00
      25     1     1     2     0     0  1.024903496E+02 -5.845890108E+01  1.009138294E+03  1.023673196E+03  1.250000000E+02  0.00000E+00  9.000E+00
       2     1     1     2   501     0  1.846474959E+01  2.342163204E+01  2.413520151E+03  2.413704423E+03  0.000000000E+00  0.00000E+00  9.000E+00
#rwgt            1           1   4.1766641077853259E-002           6      182781           0
</event>
<event>
      5   9999  3.79277E-02  5.14742E+01 -1.00000E+00  1.38359E-01
      21    -1     0     0   502   501  0.000000000E+00  0.000000000E+00  9.120776693E+01  9.120776693E+01  0.000000000E+00  0.00000E+00  9.000E+00
      21    -1     0     0   501   511  0.000000000E+00  0.000000000E+00 -9.878292848E+02  9.878292848E+02  0.000000000E+00  0.00000E+00  9.000E+00
      25     1     1     2     0     0 -7.905708118E+01 -1.129735080E+02 -2.239152552E+02  2.911633169E+02  1.250000000E+02  0.00000E+00  9.000E+00
      25     1     1     2     0     0  8.220161380E+01  1.643515454E+02 -1.630944126E+02  2.756688651E+02  1.250000000E+02  0.00000E+00  9.000E+00
      21     1     1     2   502   511 -3.144532616E+00 -5.137803736E+01 -5.096118501E+02  5.122048697E+02  7.629394531E-06  0.00000E+00  9.000E+00
#rwgt            1           1   3.8375477694996600E-002           6      183037           0
</event>
<event>
      5   9999  3.79277E-02  2.58834E+01 -1.00000E+00  1.57629E-01
      21    -1     0     0   502   501  0.000000000E+00  0.000000000E+00  4.493177527E+02  4.493177527E+02  0.000000000E+00  0.00000E+00  9.000E+00
      21    -1     0     0   512   502  0.000000000E+00  0.000000000E+00 -1.640579238E+02  1.640579238E+02  0.000000000E+00  0.00000E+00  9.000E+00
      25     1     1     2     0     0  2.036640286E+02 -7.595571078E+01  1.985782470E+02  3.198540710E+02  1.250000000E+02  0.00000E+00  9.000E+00
      25     1     1     2     0     0 -2.093879231E+02  5.071313917E+01  9.462456713E+01  2.664468681E+02  1.250000000E+02  0.00000E+00  9.000E+00
      21     1     1     2   512   501  5.723894517E+00  2.524257161E+01 -7.942985223E+00  2.707473738E+01  2.064765462E-07  0.00000E+00  9.000E+00
#rwgt            1           1   2.2020406283850505E-002           6      183223           0
</event>
<event>
      5   9999  3.79277E-02  4.94219E+01 -1.00000E+00  1.39364E-01
      21    -1     0     0   502   501  0.000000000E+00  0.000000000E+00  3.016299488E+02  3.016299488E+02  0.000000000E+00  0.00000E+00  9.000E+00
      21    -1     0     0   511   502  0.000000000E+00  0.000000000E+00 -4.123314128E+02  4.123314128E+02  0.000000000E+00  0.00000E+00  9.000E+00
      25     1     1     2     0     0 -1.791107771E+02  8.080447770E+01 -1.307188240E+02  2.670626238E+02  1.250000000E+02  0.00000E+00  9.000E+00
      25     1     1     2     0     0  1.633083882E+02 -1.276318838E+02  1.655239126E+02  2.932280564E+02  1.250000000E+02  0.00000E+00  9.000E+00
      21     1     1     2   511   501  1.580238886E+01  4.682740612E+01 -1.455065526E+02  1.536706813E+02  1.907348633E-06  0.00000E+00  9.000E+00
#rwgt            1           1   3.4017549472028279E-002           6      183370           0
</event>
<event>
      5   9999  3.79277E-02  6.34662E+01 -1.00000E+00  1.33413E-01
      21    -1     0     0   512   501  0.000000000E+00  0.000000000E+00  9.216405659E+01  9.216405659E+01  0.000000000E+00  0.00000E+00  9.000E+00
      21    -1     0     0   501   502  0.000000000E+00  0.000000000E+00 -1.446314590E+03  1.446314590E+03  0.000000000E+00  0.00000E+00  9.000E+00
      25     1     1     2     0     0 -1.375726177E+01 -2.819615049E+02 -4.952956162E+02  5.836388438E+02  1.250000000E+02  0.00000E+00  9.000E+00
      25     1     1     2     0     0  6.260157192E+01  3.224855407E+02 -7.603564476E+02  8.376650931E+02  1.250000000E+02  0.00000E+00  9.000E+00
      21     1     1     2   512   502 -4.884431015E+01 -4.052403575E+01 -9.849846998E+01  1.171747101E+02  1.348699152E-06  0.00000E+00  9.000E+00
#rwgt            1           1   3.1317697656646222E-002           6      183633           0
</event>
<event>
      5   9999  3.79277E-02  1.67224E+02 -1.00000E+00  1.14553E-01
      21    -1     0     0   502   501  0.000000000E+00  0.000000000E+00  3.262046807E+02  3.262046807E+02  0.000000000E+00  0.00000E+00  9.000E+00
      21    -1     0     0   511   502  0.000000000E+00  0.000000000E+00 -3.149513630E+02  3.149513630E+02  0.000000000E+00  0.00000E+00  9.000E+00
      25     1     1     2     0     0  6.121533148E+01 -3.224913851E+01 -1.501091260E+02  2.072319316E+02  1.250000000E+02  0.00000E+00  9.000E+00
      25     1     1     2     0     0  3.851019217E+01  1.664825931E+02  1.621835096E+02  2.666982930E+02  1.250000000E+02  0.00000E+00  9.000E+00
      21     1     1     2   511   501 -9.972552365E+01 -1.342334546E+02 -8.210659075E-01  1.672258190E+02  1.629072472E-06  0.00000E+00  9.000E+00
#rwgt            1           1   4.5546517532345641E-002           6      183737           0
</event>
<event>
      5   9999  3.79277E-02  3.45340E+01 -1.00000E+00  1.48912E-01
       1    -1     0     0   502     0  0.000000000E+00  0.000000000E+00  6.096730296E+02  6.096730296E+02  0.000000000E+00  0.00000E+00  9.000E+00
      21    -1     0     0   501   502  0.000000000E+00  0.000000000E+00 -6.587748864E+02  6.587748864E+02  0.000000000E+00  0.00000E+00  9.000E+00
      25     1     1     2     0     0 -4.041091737E+00 -1.283495575E+02 -3.767149606E+02  4.171679528E+02  1.250000000E+02  0.00000E+00  9.000E+00
      25     1     1     2     0     0 -2.399602793E+01  1.485117737E+02 -2.246911673E+02  2.978970912E+02  1.250000000E+02  0.00000E+00  9.000E+00
       1     1     1     2   501     0  2.803711967E+01 -2.016221614E+01  5.523042712E+02  5.533828720E+02  0.000000000E+00  0.00000E+00  9.000E+00
#rwgt            1           1   3.6896898435231619E-002           6      183990           0
</event>
<event>
      5   9999  3.79277E-02  2.77958E+01 -1.00000E+00  1.55378E-01
      21    -1     0     0   502   511  0.000000000E+00  0.000000000E+00  2.784923322E+02  2.784923322E+02  0.000000000E+00  0.00000E+00  9.000E+00
      21    -1     0     0   501   502  0.000000000E+00  0.000000000E+00 -2.041545611E+02  2.041545611E+02  0.000000000E+00  0.00000E+00  9.000E+00
      25     1     1     2     0     0 -1.099693027E+02 -7.312819472E+00  7.903888595E+01  1.844420515E+02  1.250000000E+02  0.00000E+00  9.000E+00
      25     1     1     2     0     0  1.072693121E+02  3.497714608E+01 -1.020947552E+02  1.969224342E+02  1.250000000E+02  0.00000E+00  9.000E+00
      21     1     1     2   501   511  2.699990589E+00 -2.766432661E+01  9.739364031E+01  1.012824076E+02  1.348699152E-06  0.00000E+00  9.000E+00
#rwgt            1           1   3.6578853248796596E-002           6      184107           0
</event>
<event>
      5   9999  3.79277E-02  3.58394E+01 -1.00000E+00  1.47862E-01
      21    -1     0     0   502   512  0.000000000E+00  0.000000000E+00  3.145749581E+02  3.145749581E+02  0.000000000E+00  0.00000E+00  9.000E+00
      21    -1     0     0   501   502  0.000000000E+00  0.000000000E+00 -2.023745179E+02  2.023745179E+02  0.000000000E+00  0.00000E+00  9.000E+00
      25     1     1     2     0     0 -1.748602998E+02 -4.109657161E+00  1.421324015E+00  2.149884506E+02  1.250000000E+02  0.00000E+00  9.000E+00
      25     1     1     2     0     0  2.102235558E+02  9.932382617E+00  9.199157684E+01  2.614957855E+02  1.250000000E+02  0.00000E+00  9.000E+00
      21     1     1     2   501   512 -3.536325596E+01 -5.822725456E+00  1.878753927E+01  4.046523985E+01  0.000000000E+00  0.00000E+00  9.000E+00
#rwgt            1           1   4.1654261510001005E-002           6      184272           0
</event>
<event>
      5   9999  3.79277E-02  2.62135E+01 -1.00000E+00  1.57224E-01
      21    -1     0     0   511   501  0.000000000E+00  0.000000000E+00  2.983325005E+02  2.983325005E+02  0.000000000E+00  0.00000E+00  9.000E+00
      21    -1     0     0   501   502  0.000000000E+00  0.000000000E+00 -3.867437235E+02  3.867437235E+02  0.000000000E+00  0.00000E+00  9.000E+00
      25     1     1     2     0     0 -3.568346570E+01 -1.050458731E+02  1.837805205E+02  2.484114025E+02  1.250000000E+02  0.00000E+00  9.000E+00
      25     1     1     2     0     0  5.229885168E+01  1.253209044E+02 -3.272357668E+02  3.756976791E+02  1.250000000E+02  0.00000E+00  9.000E+00
      21     1     1     2   511   502 -1.661538598E+01 -2.027503136E+01  5.504402339E+01  6.096714246E+01  0.000000000E+00  0.00000E+00  9.000E+00
#rwgt            1           1   4.1041056737226439E-002           6      184486           0
</event>
<event>
      5   9999  3.79277E-02  5.09633E+01 -1.00000E+00  1.38604E-01
      21    -1     0     0   502   512  0.000000000E+00  0.000000000E+00  7.593586457E+02  7.593586457E+02  0.000000000E+00  0.00000E+00  9.000E+00
      21    -1     0     0   501   502  0.000000000E+00  0.000000000E+00 -1.147956910E+03  1.147956910E+03  0.000000000E+00  0.00000E+00  9.000E+00
      25     1     1     2     0     0  1.489239526E+02  4.869760230E+01 -6.864866570E+02  7.151494462E+02  1.250000000E+02  0.00000E+00  9.000E+00
      25     1     1     2     0     0 -9.975923247E+01 -6.211713439E+01 -4.297570683E+02  4.627381340E+02  1.250000000E+02  0.00000E+00  9.000E+00
      21     1     1     2   501   512 -4.916472013E+01  1.341953208E+01  7.276454614E+02  7.294279752E+02  0.000000000E+00  0.00000E+00  9.000E+00
#rwgt            1           1   4.5123912887891297E-002           6      184694           0
</event>
<event>
      5   9999  3.79277E-02  5.14483E+01 -1.00000E+00  1.38372E-01
      21    -1     0     0   502   501  0.000000000E+00  0.000000000E+00  7.097068139E+02  7.097068139E+02  0.000000000E+00  0.00000E+00  9.000E+00
      21    -1     0     0   501   511  0.000000000E+00  0.000000000E+00 -2.844293659E+02  2.844293659E+02  0.000000000E+00  0.00000E+00  9.000E+00
      25     1     1     2     0     0 -3.411977976E+02  1.614460079E+02  1.931215819E+02  4.420426404E+02  1.250000000E+02  0.00000E+00  9.000E+00
      25     1     1     2     0     0  3.919837059E+02 -1.532165749E+02  2.395191459E+02  5.001209511E+02  1.250000000E+02  0.00000E+00  9.000E+00
      21     1     1     2   502   511 -5.078590824E+01 -8.229432927E+00 -7.363279839E+00  5.197258827E+01  9.902267293E-07  0.00000E+00  9.000E+00
#rwgt            1           1  0.15810240429325853                6      184853           0
</event>
<event>
      5   9999 -3.79277E-02  1.45386E+01 -1.00000E+00  1.78671E-01
      21    -1     0     0   512   501  0.000000000E+00  0.000000000E+00  8.014106129E+01  8.014106129E+01  0.000000000E+00  0.00000E+00  9.000E+00
      21    -1     0     0   501   502  0.000000000E+00  0.000000000E+00 -1.104449195E+03  1.104449195E+03  0.000000000E+00  0.00000E+00  9.000E+00
      25     1     1     2     0     0 -1.285937034E+02 -1.794302241E+02 -7.445013407E+02  7.865359446E+02  1.250000000E+02  0.00000E+00  9.000E+00
      25     1     1     2     0     0  1.172107588E+02  1.703858745E+02 -2.920396659E+02  3.790539205E+02  1.250000000E+02  0.00000E+00  9.000E+00
      21     1     1     2   512   502  1.138294455E+01  9.044349617E+00  1.223287286E+01  1.900039118E+01  0.000000000E+00  0.00000E+00  9.000E+00
#rwgt            1           1  -1.8935499753980380E-002           6      185133           0
</event>
<event>
      5   9999 -3.79277E-02  7.08120E+01 -1.00000E+00  1.30968E-01
      21    -1     0     0   502   511  0.000000000E+00  0.000000000E+00  1.204475597E+03  1.204475597E+03  0.000000000E+00  0.00000E+00  9.000E+00
      21    -1     0     0   501   502  0.000000000E+00  0.000000000E+00 -1.666753405E+02  1.666753405E+02  0.000000000E+00  0.00000E+00  9.000E+00
      25     1     1     2     0     0  1.703281250E+02  4.063672491E+01 -3.089541943E+01  2.173534921E+02  1.250000000E+02  0.00000E+00  9.000E+00
      25     1     1     2     0     0 -1.890511275E+02  2.765518306E+01  2.771261923E+02  3.590669358E+02  1.250000000E+02  0.00000E+00  9.000E+00
      21     1     1     2   501   511  1.872300245E+01 -6.829190797E+01  7.915694834E+02  7.947305094E+02  0.000000000E+00  0.00000E+00  9.000E+00
#rwgt            1           1 -0.12150576860882438                6      185377           0
</event>
<event>
      5   9999 -3.79277E-02  2.20248E+01 -1.00000E+00  1.62986E-01
      21    -1     0     0   512   501  0.000000000E+00  0.000000000E+00  7.279210134E+02  7.279210134E+02  0.000000000E+00  0.00000E+00  9.000E+00
      21    -1     0     0   501   502  0.000000000E+00  0.000000000E+00 -5.527660022E+01  5.527660022E+01  0.000000000E+00  0.00000E+00  9.000E+00
      25     1     1     2     0     0 -8.013233159E+01  3.580661083E+00  8.464424435E+01  1.709492901E+02  1.250000000E+02  0.00000E+00  9.000E+00
      25     1     1     2     0     0  7.658497466E+01  1.815657566E+01  4.887873579E+02  5.106202119E+02  1.250000000E+02  0.00000E+00  9.000E+00
      21     1     1     2   512   502  3.547356925E+00 -2.173723675E+01  9.921281092E+01  1.016281115E+02  1.348699152E-06  0.00000E+00  9.000E+00
#rwgt            1           1  -4.8186906595313835E-002           6      185571           0
</event>
<event>
      5   9999  3.79277E-02  1.15786E+02 -1.00000E+00  1.21031E-01
      21    -1     0     0   502   501  0.000000000E+00  0.000000000E+00  7.256859559E+01  7.256859559E+01  0.000000000E+00  0.00000E+00  9.000E+00
      21    -1     0     0   501   511  0.000000000E+00  0.000000000E+00 -1.154825809E+03  1.154825809E+03  0.000000000E+00  0.00000E+00  9.000E+00
      25     1     1     2     0     0  6.840349336E+01  1.639188345E+02 -2.521529815E+02  3.327980593E+02  1.250000000E+02  0.00000E+00  9.000E+00
      25     1     1     2     0     0 -1.550636247E+02 -8.713119483E+01 -5.602745207E+02  6.009734698E+02  1.250000000E+02  0.00000E+00  9.000E+00
      21     1     1     2   502   511  8.666013138E+01 -7.678763963E+01 -2.698297112E+02  2.936228755E+02  3.814697266E-06  0.00000E+00  9.000E+00
#rwgt            1           1   3.4459693421035817E-002           6      185754           0
</event>
<event>
      5   9999  3.79277E-02  1.79244E+01 -1.00000E+00  1.70393E-01
      21    -1     0     0   512   501  0.000000000E+00  0.000000000E+00  2.275372977E+03  2.275372977E+03  0.000000000E+00  0.00000E+00  9.000E+00
      21    -1     0     0   501   502  0.000000000E+00  0.000000000E+00 -1.455828823E+02  1.455828823E+02  0.000000000E+00  0.00000E+00  9.000E+00
      25     1     1     2     0     0  5.084289228E+01  1.072617864E+02 -3.672741272E-01  1.723810471E+02  1.250000000E+02  0.00000E+00  9.000E+00
      25     1     1     2     0     0 -6.802085107E+01 -1.021428886E+02  7.047852673E+01  1.888179774E+02  1.250000000E+02  0.00000E+00  9.000E+00
      21     1     1     2   512   502  1.717795880E+01 -5.118897815E+00  2.059678843E+03  2.059756835E+03  3.051757812E-05  0.00000E+00  9.000E+00
#rwgt            1           1   5.1964724982827344E-002           6      185847           0
</event>
<event>
      5   9999  3.79277E-02  6.42320E+01 -1.00000E+00  1.33140E-01
      21    -1     0     0   502   501  0.000000000E+00  0.000000000E+00  2.377460878E+02  2.377460878E+02  0.000000000E+00  0.00000E+00  9.000E+00
      21    -1     0     0   511   502  0.000000000E+00  0.000000000E+00 -4.812231181E+02  4.812231181E+02  0.000000000E+00  0.00000E+00  9.000E+00
      25     1     1     2     0     0 -7.747077125E+01 -7.261374864E+01 -3.398368660E+02  3.773441034E+02  1.250000000E+02  0.00000E+00  9.000E+00
      25     1     1     2     0     0  2.447769909E+01  1.089108903E+02  1.735149178E+02  2.412325983E+02  1.250000000E+02  0.00000E+00  9.000E+00
      21     1     1     2   511   501  5.299307216E+01 -3.629714168E+01 -7.715508219E+01  1.003925042E+02  9.536743164E-07  0.00000E+00  9.000E+00
#rwgt            1           1   2.7120851988663330E-002           6      185977           0
</event>
<event>
      5   9999  3.79277E-02  3.68650E+01 -1.00000E+00  1.47073E-01
      21    -1     0     0   502   512  0.000000000E+00  0.000000000E+00  7.418866619E+01  7.418866619E+01  0.000000000E+00  0.00000E+00  9.000E+00
      21    -1     0     0   501   502  0.000000000E+00  0.000000000E+00 -1.284034339E+03  1.284034339E+03  0.000000000E+00  0.00000E+00  9.000E+00
      25     1     1     2     0     0 -1.015702350E+02 -2.408668715E+02 -7.098288733E+02  7.666911972E+02  1.250000000E+02  0.00000E+00  9.000E+00
      25     1     1     2     0     0  8.025658190E+01  2.107876777E+02 -4.893783224E+02  5.531624594E+02  1.250000000E+02  0.00000E+00  9.000E+00
      21     1     1     2   501   512  2.131365309E+01  3.007919376E+01 -1.063847681E+01  3.836934837E+01  3.576278687E-07  0.00000E+00  9.000E+00
#rwgt            1           1   3.5043313209545797E-002           6      186054           0
</event>
<event>
      5   9999  3.79277E-02  9.46150E+01 -1.00000E+00  1.24919E-01
       2    -1     0     0   502     0  0.000000000E+00  0.000000000E+00  5.771688065E+02  5.771688065E+02  0.000000000E+00  0.00000E+00  9.000E+00
      21    -1     0     0   501   502  0.000000000E+00  0.000000000E+00 -2.212140972E+02  2.212140972E+02  0.000000000E+00  0.00000E+00  9.000E+00
      25     1     1     2     0     0 -4.935260020E+01  2.291735715E+02  7.530168206E+01  2.761368290E+02  1.250000000E+02  0.00000E+00  9.000E+00
      25     1     1     2     0     0 -3.779736004E+01 -1.923376408E+02  6.877811619E+00  2.325827010E+02  1.250000000E+02  0.00000E+00  9.000E+00
       2     1     1     2   501     0  8.714996024E+01 -3.683593066E+01  2.737752156E+02  2.896633737E+02  0.000000000E+00  0.00000E+00  9.000E+00
#rwgt            1           1   3.2784978060082640E-002           6      186228           0
</event>
<event>
      5   9999  3.79277E-02  2.87564E+01 -1.00000E+00  1.54328E-01
      21    -1     0     0   502   501  0.000000000E+00  0.000000000E+00  1.339993181E+02  1.339993181E+02  0.000000000E+00  0.00000E+00  9.000E+00
      21    -1     0     0   511   502  0.000000000E+00  0.000000000E+00 -9.154425576E+02  9.154425576E+02  0.000000000E+00  0.00000E+00  9.000E+00
      25     1     1     2     0     0  7.179329010E+01 -1.437159701E+02 -2.142771814E+02  2.955474023E+02  1.250000000E+02  0.00000E+00  9.000E+00
      25     1     1     2     0     0 -6.568640922E+01  1.718164065E+02 -4.002581272E+01  2.259704573E+02  1.250000000E+02  0.00000E+00  9.000E+00
      21     1     1     2   511   501 -6.106880880E+00 -2.810043644E+01 -5.271402454E+02  5.279240162E+02  0.000000000E+00  0.00000E+00  9.000E+00
#rwgt            1           1   2.9752043337122565E-002           6      186348           0
</event>
<event>
      5   9999  3.79277E-02  1.51589E+02 -1.00000E+00  1.16212E-01
      21    -1     0     0   512   501  0.000000000E+00  0.000000000E+00  2.543058250E+02  2.543058250E+02  0.000000000E+00  0.00000E+00  9.000E+00
      21    -1     0     0   501   502  0.000000000E+00  0.000000000E+00 -4.797311642E+02  4.797311642E+02  0.000000000E+00  0.00000E+00  9.000E+00
      25     1     1     2     0     0  3.914683450E+01  2.234850622E+02 -2.881389975E+02  3.874624234E+02  1.250000000E+02  0.00000E+00  9.000E+00
      25     1     1     2     0     0  3.087388399E+01 -8.903636266E+01 -4.230829046E+01  1.621593723E+02  1.250000000E+02  0.00000E+00  9.000E+00
      21     1     1     2   512   502 -7.002071849E+01 -1.344486996E+02  1.050219488E+02  1.844151934E+02  2.697398305E-06  0.00000E+00  9.000E+00
#rwgt            1           1   3.7132231230220712E-002           6      186568           0
</event>
<event>
      5   9999  3.79277E-02  1.22618E+01 -1.00000E+00  1.86048E-01
      21    -1     0     0   511   501  0.000000000E+00  0.000000000E+00  6.417486063E+01  6.417486063E+01  0.000000000E+00  0.00000E+00  9.000E+00
      21    -1     0     0   501   502  0.000000000E+00  0.000000000E+00 -6.643552910E+02  6.643552910E+02  0.000000000E+00  0.00000E+00  9.000E+00
      25     1     1     2     0     0  1.398751827E+01  4.863501743E+01 -5.400368142E+02  5.566199568E+02  1.250000000E+02  0.00000E+00  9.000E+00
      25     1     1     2     0     0 -2.251898566E+00 -5.218836236E+01 -7.320990942E+01  1.539915162E+02  1.250000000E+02  0.00000E+00  9.000E+00
      21     1     1     2   511   502 -1.173561970E+01  3.553344934E+00  1.306629320E+01  1.791867874E+01  0.000000000E+00  0.00000E+00  9.000E+00
#rwgt            1           1   4.4436674385158081E-002           6      186726           0
</event>
<event>
      5   9999  3.79277E-02  3.32536E+01 -1.00000E+00  1.49997E-01
      21    -1     0     0   512   501  0.000000000E+00  0.000000000E+00  5.428926542E+02  5.428926542E+02  0.000000000E+00  0.00000E+00  9.000E+00
      21    -1     0     0   501   502  0.000000000E+00  0.000000000E+00 -1.235912094E+02  1.235912094E+02  0.000000000E+00  0.00000E+00  9.000E+00
      25     1     1     2     0     0 -1.146513861E+00  1.831232480E+02  1.142864329E+02  2.494430340E+02  1.250000000E+02  0.00000E+00  9.000E+00
      25     1     1     2     0     0  2.290249703E-01 -2.163641990E+02  2.553436843E+02  3.572658901E+02  1.250000000E+02  0.00000E+00  9.000E+00
      21     1     1     2   512   502  9.174888909E-01  3.324095098E+01  4.967132761E+01  5.977493952E+01  6.743495762E-07  0.00000E+00  9.000E+00
#rwgt            1           1   1.4893881474134864E-002           6      187035           0
</event>
<event>
      5   9999  3.79277E-02  7.66527E+01 -1.00000E+00  1.29254E-01
      21    -1     0     0   502   501  0.000000000E+00  0.000000000E+00  1.918754049E+03  1.918754049E+03  0.000000000E+00  0.00000E+00  9.000E+00
      21    -1     0     0   511   502  0.000000000E+00  0.000000000E+00 -3.111899135E+01  3.111899135E+01  0.000000000E+00  0.00000E+00  9.000E+00
      25     1     1     2     0     0 -4.516015851E+01  9.901935685E+01  8.418743722E+02  8.580336424E+02  1.250000000E+02  0.00000E+00  9.000E+00
      25     1     1     2     0     0  5.391058636E+01 -2.286773179E+01  9.833533004E+02  9.929944601E+02  1.250000000E+02  0.00000E+00  9.000E+00
      21     1     1     2   511   501 -8.750427853E+00 -7.615162507E+01  6.240738463E+01  9.884493737E+01  2.336015456E-06  0.00000E+00  9.000E+00
#rwgt            1           1  0.25576877751190624                6      187195           0
</event>
<event>
      5   9999  3.79277E-02  1.07659E+02 -1.00000E+00  1.22403E-01
       2    -1     0     0   502     0  0.000000000E+00  0.000000000E+00  5.380313755E+02  5.380313755E+02  0.000000000E+00  0.00000E+00  9.000E+00
      21    -1     0     0   501   502  0.000000000E+00  0.000000000E+00 -5.750135962E+02  5.750135962E+02  0.000000000E+00  0.00000E+00  9.000E+00
      25     1     1     2     0     0 -1.162072954E+02  2.809538497E+01  4.801027312E+01  1.795089760E+02  1.250000000E+02  0.00000E+00  9.000E+00
      25     1     1     2     0     0  2.238594852E+02 -2.932362524E+01 -4.686793815E+02  5.350311269E+02  1.250000000E+02  0.00000E+00  9.000E+00
       2     1     1     2   501     0 -1.076521899E+02  1.228240275E+00  3.836868877E+02  3.985048687E+02  5.394796609E-06  0.00000E+00  9.000E+00
#rwgt            1           1   2.4974706752026791E-002           6      187453           0
</event>
<event>
      5   9999  3.79277E-02  7.66130E+01 -1.00000E+00  1.29265E-01
      21    -1     0     0   511   501  0.000000000E+00  0.000000000E+00  3.862104965E+02  3.862104965E+02  0.000000000E+00  0.00000E+00  9.000E+00
      21    -1     0     0   501   502  0.000000000E+00  0.000000000E+00 -1.866768913E+02  1.866768913E+02  0.000000000E+00  0.00000E+00  9.000E+00
      25     1     1     2     0     0 -1.878693408E+01 -1.260395449E+02 -5.598285962E+01  1.870775143E+02  1.250000000E+02  0.00000E+00  9.000E+00
      25     1     1     2     0     0 -5.185044854E+01  1.557029603E+02  1.484422314E+02  2.541495169E+02  1.250000000E+02  0.00000E+00  9.000E+00
      21     1     1     2   511   502  7.063738262E+01 -2.966341546E+01  1.070742334E+02  1.316603566E+02  2.336015456E-06  0.00000E+00  9.000E+00
#rwgt            1           1   3.7059725249200669E-002           6      187552           0
</event>
<event>
      5   9999  3.79277E-02  3.15561E+01 -1.00000E+00  1.51530E-01
      21    -1     0     0   502   501  0.000000000E+00  0.000000000E+00  2.253395297E+01  2.253395297E+01  0.000000000E+00  0.00000E+00  9.000E+00
      21    -1     0     0   512   502  0.000000000E+00  0.000000000E+00 -2.161722863E+03  2.161722863E+03  0.000000000E+00  0.00000E+00  9.000E+00
      25     1     1     2     0     0 -1.261667419E+01 -1.544482309E+02 -7.090267956E+02  7.364492062E+02  1.250000000E+02  0.00000E+00  9.000E+00
      25     1     1     2     0     0  2.345356451E+01  1.248113251E+02 -9.472038502E+02  9.638195217E+02  1.250000000E+02  0.00000E+00  9.000E+00
      21     1     1     2   512   501 -1.083689032E+01  2.963690574E+01 -4.829582644E+02  4.839880882E+02  0.000000000E+00  0.00000E+00  9.000E+00
#rwgt            1           1   3.6422539389403749E-002           6      187622           0
</event>
<event>
      5   9999  3.79277E-02  3.27680E+01 -1.00000E+00  1.50425E-01
      21    -1     0     0   502   501  0.000000000E+00  0.000000000E+00  9.297048419E+02  9.297048419E+02  0.000000000E+00  0.00000E+00  9.000E+00
      21    -1     0     0   501   511  0.000000000E+00  0.000000000E+00 -8.735220935E+01  8.735220935E+01  0.000000000E+00  0.00000E+00  9.000E+00
      25     1     1     2     0     0  1.663013935E+01  2.760586864E+01  3.585468403E+00  1.291375279E+02  1.250000000E+02  0.00000E+00  9.000E+00
      25     1     1     2     0     0 -3.334002170E+01 -5.579312072E+01  8.431676589E+02  8.548573743E+02  1.250000000E+02  0.00000E+00  9.000E+00
      21     1     1     2   502   511  1.670988235E+01  2.818725208E+01 -4.400494756E+00  3.306214908E+01  1.076189881E-06  0.00000E+00  9.000E+00
#rwgt            1           1   5.0640682454717027E-002           6      187887           0
</event>
<event>
      5   9999  3.79277E-02  9.87404E+01 -1.00000E+00  1.24076E-01
      21    -1     0     0   502   512  0.000000000E+00  0.000000000E+00  6.680275344E+02  6.680275344E+02  0.000000000E+00  0.00000E+00  9.000E+00
      21    -1     0     0   501   502  0.000000000E+00  0.000000000E+00 -9.096186361E+02  9.096186361E+02  0.000000000E+00  0.00000E+00  9.000E+00
      25     1     1     2     0     0  1.601501270E+02  4.909523436E+01  1.531793652E+01  2.095663246E+02  1.250000000E+02  0.00000E+00  9.000E+00
      25     1     1     2     0     0 -2.530084972E+02 -8.266584676E+01 -7.811266110E+02  8.346440704E+02  1.250000000E+02  0.00000E+00  9.000E+00
      21     1     1     2   501   512  9.285837019E+01  3.357061240E+01  5.242175728E+02  5.334357755E+02  0.000000000E+00  0.00000E+00  9.000E+00
#rwgt            1           1   4.3703770064193334E-002           6      188067           0
</event>
<event>
      5   9999  3.79277E-02  9.23270E+00 -1.00000E+00  1.99852E-01
      21    -1     0     0   502   501  0.000000000E+00  0.000000000E+00  2.275664685E+02  2.275664685E+02  0.000000000E+00  0.00000E+00  9.000E+00
       1    -1     0     0   501     0  0.000000000E+00  0.000000000E+00 -7.462801527E+02  7.462801527E+02  0.000000000E+00  0.00000E+00  9.000E+00
      25     1     1     2     0     0  1.521191242E+02 -7.656946601E+01  6.956409825E+01  2.224123981E+02  1.250000000E+02  0.00000E+00  9.000E+00
      25     1     1     2     0     0 -1.428883793E+02  7.637965788E+01 -4.685372114E+01  2.099314466E+02  1.250000000E+02  0.00000E+00  9.000E+00
       1     1     1     2   502     0 -9.230744887E+00  1.898081259E-01 -5.414240613E+02  5.415027764E+02  0.000000000E+00  0.00000E+00  9.000E+00
#rwgt            1           1   4.5681220338063572E-002           6      188176           0
</event>
<event>
      5   9999  3.79277E-02  9.33271E+01 -1.00000E+00  1.25192E-01
      21    -1     0     0   502   501  0.000000000E+00  0.000000000E+00  1.270484711E+02  1.270484711E+02  0.000000000E+00  0.00000E+00  9.000E+00
       2    -1     0     0   501     0  0.000000000E+00  0.000000000E+00 -1.062382506E+03  1.062382506E+03  0.000000000E+00  0.00000E+00  9.000E+00
      25     1     1     2     0     0 -8.704118850E+01  1.194088538E+02  2.050579751E+01  1.946281855E+02  1.250000000E+02  0.00000E+00  9.000E+00
      25     1     1     2     0     0 -6.039665444E+00 -1.261834958E+02 -7.082737008E+02  7.302296813E+02  1.250000000E+02  0.00000E+00  9.000E+00
       2     1     1     2   502     0  9.308085394E+01  6.774641968E+00 -2.475661313E+02  2.645731099E+02  6.031565972E-06  0.00000E+00  9.000E+00
#rwgt            2          13   2.2683386676882584E-004           6      188390           0
</event>
<event>
      5   9999  3.79277E-02  2.18146E+01 -1.00000E+00  1.63316E-01
      21    -1     0     0   511   501  0.000000000E+00  0.000000000E+00  2.012808185E+02  2.012808185E+02  0.000000000E+00  0.00000E+00  9.000E+00
      21    -1     0     0   501   502  0.000000000E+00  0.000000000E+00 -3.659468129E+02  3.659468129E+02  0.000000000E+00  0.00000E+00  9.000E+00
      25     1     1     2     0     0 -1.363815708E+02 -1.102190243E+02 -6.104525776E+01  2.238295996E+02  1.250000000E+02  0.00000E+00  9.000E+00
      25     1     1     2     0     0  1.161857388E+02  1.019724549E+02 -1.774096655E+02  2.664520536E+02  1.250000000E+02  0.00000E+00  9.000E+00
      21     1     1     2   511   502  2.019583205E+01  8.246569459E+00  7.378892887E+01  7.694597822E+01  1.907348633E-06  0.00000E+00  9.000E+00
#rwgt            1           1   2.1144150618967020E-002           6      188409           0
</event>
<event>
      5   9999  3.79277E-02  1.74979E+01 -1.00000E+00  1.71305E-01
      21    -1     0     0   502   501  0.000000000E+00  0.000000000E+00  3.575694272E+02  3.575694272E+02  0.000000000E+00  0.00000E+00  9.000E+00
      21    -1     0     0   512   502  0.000000000E+00  0.000000000E+00 -1.739596622E+02  1.739596622E+02  0.000000000E+00  0.00000E+00  9.000E+00
      25     1     1     2     0     0 -1.525328667E+02  3.391453725E+01  2.243346747E+02  3.006119052E+02  1.250000000E+02  0.00000E+00  9.000E+00
      25     1     1     2     0     0  1.366150156E+02 -4.118084633E+01 -3.436108245E+00  1.897269918E+02  1.250000000E+02  0.00000E+00  9.000E+00
      21     1     1     2   512   501  1.591785105E+01  7.266309087E+00 -3.728880152E+01  4.119019239E+01  4.768371582E-07  0.00000E+00  9.000E+00
#rwgt            1           1   4.0030216525992542E-002           6      188709           0
</event>
<event>
      5   9999  3.79277E-02  1.66577E+02 -1.00000E+00  1.14618E-01
      21    -1     0     0   502   501  0.000000000E+00  0.000000000E+00  3.490020337E+02  3.490020337E+02  0.000000000E+00  0.00000E+00  9.000E+00
      21    -1     0     0   511   502  0.000000000E+00  0.000000000E+00 -5.151350915E+02  5.151350915E+02  0.000000000E+00  0.00000E+00  9.000E+00
      25     1     1     2     0     0  5.657076383E+01  1.568722757E+02 -4.847947621E+01  2.139729465E+02  1.250000000E+02  0.00000E+00  9.000E+00
      25     1     1     2     0     0 -5.721880078E+01 -3.234482617E+02  1.098300421E+02  3.682124486E+02  1.250000000E+02  0.00000E+00  9.000E+00
      21     1     1     2   511   501  6.480369457E-01  1.665759860E+02 -2.274836237E+02  2.819517301E+02  3.814697266E-06  0.00000E+00  9.000E+00
#rwgt            1           1   3.3530651389009833E-002           6      188850           0
</event>
<event>
      5   9999  3.79277E-02  4.30853E+01 -1.00000E+00  1.42867E-01
      21    -1     0     0   502   512  0.000000000E+00  0.000000000E+00  2.405341977E+02  2.405341977E+02  0.000000000E+00  0.00000E+00  9.000E+00
      21    -1     0     0   501   502  0.000000000E+00  0.000000000E+00 -2.960825770E+02  2.960825770E+02  0.000000000E+00  0.00000E+00  9.000E+00
      25     1     1     2     0     0  1.313040398E+02  1.315616780E+02 -1.462200690E+02  2.674967936E+02  1.250000000E+02  0.00000E+00  9.000E+00
      25     1     1     2     0     0 -1.397931539E+02 -8.932100889E+01  5.991532009E+01  2.161832882E+02  1.250000000E+02  0.00000E+00  9.000E+00
      21     1     1     2   501   512  8.489114103E+00 -4.224066913E+01  3.075636955E+01  5.293669290E+01  3.371747881E-07  0.00000E+00  9.000E+00
#rwgt            1           1   3.5743983346393032E-002           6      188906           0
</event>
<event>
      5   9999  3.79277E-02  1.18836E+01 -1.00000E+00  1.87474E-01
      21    -1     0     0   502   501  0.000000000E+00  0.000000000E+00  2.461886840E+02  2.461886840E+02  0.000000000E+00  0.00000E+00  9.000E+00
      21    -1     0     0   501   511  0.000000000E+00  0.000000000E+00 -3.750897027E+02  3.750897027E+02  0.000000000E+00  0.00000E+00  9.000E+00
      25     1     1     2     0     0 -1.453706418E+01  5.896066866E+01  2.076216311E+02  2.498388048E+02  1.250000000E+02  0.00000E+00  9.000E+00
      25     1     1     2     0     0  2.277234726E+01 -6.752798525E+01 -3.219151772E+02  3.526088341E+02  1.250000000E+02  0.00000E+00  9.000E+00
      21     1     1     2   502   511 -8.235283081E+00  8.567316589E+00 -1.460747267E+01  1.883074770E+01  1.685873940E-07  0.00000E+00  9.000E+00
#rwgt            1           1   3.4129506066258898E-002           6      189154           0
</event>
<event>
      5   9999  3.79277E-02  9.82273E+00 -1.00000E+00  1.96659E-01
      21    -1     0     0   502   501  0.000000000E+00  0.000000000E+00  1.194367944E+02  1.194367944E+02  0.000000000E+00  0.00000E+00  9.000E+00
      21    -1     0     0   512   502  0.000000000E+00  0.000000000E+00 -4.818346528E+02  4.818346528E+02  0.000000000E+00  0.00000E+00  9.000E+00
      25     1     1     2     0     0  6.557106503E+01  1.874417963E+02 -1.777928610E+02  2.943964894E+02  1.250000000E+02  0.00000E+00  9.000E+00
      25     1     1     2     0     0 -6.578856045E+01 -1.776214768E+02 -1.528007045E+02  2.735883386E+02  1.250000000E+02  0.00000E+00  9.000E+00
      21     1     1     2   512   501  2.174954236E-01 -9.820319441E+00 -3.180429275E+01  3.328661917E+01  4.768371582E-07  0.00000E+00  9.000E+00
#rwgt            1           1   3.4637888003305660E-002           6      189394           0
</event>
<event>
      5   9999  3.79277E-02  1.90334E+01 -1.00000E+00  1.68164E-01
      21    -1     0     0   511   501  0.000000000E+00  0.000000000E+00  9.775196747E+01  9.775196747E+01  0.000000000E+00  0.00000E+00  9.000E+00
      21    -1     0     0   501   502  0.000000000E+00  0.000000000E+00 -3.131887184E+02  3.131887184E+02  0.000000000E+00  0.00000E+00  9.000E+00
      25     1     1     2     0     0 -8.377987013E+01  1.393415600E+01 -1.631491657E+02  2.223867748E+02  1.250000000E+02  0.00000E+00  9.000E+00
      25     1     1     2     0     0  1.025186118E+02 -1.059789288E+01 -4.882817433E+01  1.692086632E+02  1.250000000E+02  0.00000E+00  9.000E+00
      21     1     1     2   511   502 -1.873874167E+01 -3.336263118E+00 -3.459410884E+00  1.934524785E+01  4.655271575E-07  0.00000E+00  9.000E+00
#rwgt            1           1   3.4437323795501379E-002           6      190040           0
</event>
<event>
      5   9999  3.79277E-02  7.24454E+01 -1.00000E+00  1.30470E-01
      21    -1     0     0   502   501  0.000000000E+00  0.000000000E+00  4.134773162E+02  4.134773162E+02  0.000000000E+00  0.00000E+00  9.000E+00
      21    -1     0     0   512   502  0.000000000E+00  0.000000000E+00 -2.807253173E+02  2.807253173E+02  0.000000000E+00  0.00000E+00  9.000E+00
      25     1     1     2     0     0 -2.061648081E+01  1.361633369E+02 -1.493939550E+02  2.385561724E+02  1.250000000E+02  0.00000E+00  9.000E+00
      25     1     1     2     0     0 -2.391391856E+01 -7.901980245E+01  3.343339961E+02  3.663607862E+02  1.250000000E+02  0.00000E+00  9.000E+00
      21     1     1     2   512   501  4.453039937E+01 -5.714353446E+01 -5.218804224E+01  8.928567495E+01  1.907348633E-06  0.00000E+00  9.000E+00
#rwgt            1           1   3.1216500969477760E-002           6      190223           0
</event>
<event>
      5   9999  3.79277E-02  6.78236E+01 -1.00000E+00  1.31919E-01
      21    -1     0     0   511   501  0.000000000E+00  0.000000000E+00  3.338158970E+02  3.338158970E+02  0.000000000E+00  0.00000E+00  9.000E+00
      21    -1     0     0   501   502  0.000000000E+00  0.000000000E+00 -3.653559932E+02  3.653559932E+02  0.000000000E+00  0.00000E+00  9.000E+00
      25     1     1     2     0     0 -1.913328068E+02  1.710979834E+01 -5.389663363E+01  2.354375401E+02  1.250000000E+02  0.00000E+00  9.000E+00
      25     1     1     2     0     0  1.616598279E+02 -7.809794111E+01 -1.587820706E+02  2.703145100E+02  1.250000000E+02  0.00000E+00  9.000E+00
      21     1     1     2   511   502  2.967297889E+01  6.098814277E+01  1.811386080E+02  1.934198401E+02  2.697398305E-06  0.00000E+00  9.000E+00
#rwgt            1           1   5.3395303407981438E-002           6      190412           0
</event>
<event>
      5   9999  3.79277E-02  1.94095E+01 -1.00000E+00  1.67450E-01
      21    -1     0     0   502   501  0.000000000E+00  0.000000000E+00  3.896823064E+02  3.896823064E+02  0.000000000E+00  0.00000E+00  9.000E+00
      21    -1     0     0   512   502  0.000000000E+00  0.000000000E+00 -1.490702910E+02  1.490702910E+02  0.000000000E+00  0.00000E+00  9.000E+00
      25     1     1     2     0     0  1.013523289E+02 -1.472190442E+02  1.274327849E+02  2.526061286E+02  1.250000000E+02  0.00000E+00  9.000E+00
      25     1     1     2     0     0 -8.526598125E+01  1.580798901E+02  1.348620759E+02  2.570453632E+02  1.250000000E+02  0.00000E+00  9.000E+00
      21     1     1     2   512   501 -1.608634765E+01 -1.086084596E+01 -2.168284555E+01  2.910110560E+01  3.371747881E-07  0.00000E+00  9.000E+00
#rwgt            1           1   4.3820038787941558E-002           6      190494           0
</event>
<event>
      5   9999  3.79277E-02  3.91930E+01 -1.00000E+00  1.45391E-01
      21    -1     0     0   502   501  0.000000000E+00  0.000000000E+00  2.664523589E+02  2.664523589E+02  0.000000000E+00  0.00000E+00  9.000E+00
      21    -1     0     0   511   502  0.000000000E+00  0.000000000E+00 -2.731141245E+02  2.731141245E+02  0.000000000E+00  0.00000E+00  9.000E+00
      25     1     1     2     0     0 -6.117052831E+01 -7.282537226E+01  1.865456492E+02  2.438639941E+02  1.250000000E+02  0.00000E+00  9.000E+00
      25     1     1     2     0     0  7.453686674E+01  1.096687501E+02 -1.743761899E+02  2.522202110E+02  1.250000000E+02  0.00000E+00  9.000E+00
      21     1     1     2   511   501 -1.336633844E+01 -3.684337788E+01 -1.883122490E+01  4.348227832E+01  2.384185791E-07  0.00000E+00  9.000E+00
#rwgt            1           1   3.7723466349713596E-002           6      190718           0
</event>
<event>
      5   9999  3.79277E-02  2.34858E+01 -1.00000E+00  1.60810E-01
      21    -1     0     0   502   501  0.000000000E+00  0.000000000E+00  8.154201070E+02  8.154201070E+02  0.000000000E+00  0.00000E+00  9.000E+00
      21    -1     0     0   501   512  0.000000000E+00  0.000000000E+00 -1.040451687E+02  1.040451687E+02  0.000000000E+00  0.00000E+00  9.000E+00
      25     1     1     2     0     0 -3.542471518E+01  2.209549797E+02  4.913751368E+02  5.542116370E+02  1.250000000E+02  0.00000E+00  9.000E+00
      25     1     1     2     0     0  1.701391095E+01 -2.355367026E+02  2.094767972E+02  3.395180997E+02  1.250000000E+02  0.00000E+00  9.000E+00
      21     1     1     2   502   512  1.841080423E+01  1.458172283E+01  1.052300421E+01  2.573553906E+01  5.331201500E-07  0.00000E+00  9.000E+00
#rwgt            1           1   4.1247974963827400E-002           6      190843           0
</event>
<event>
      5   9999  3.79277E-02  3.59902E+01 -1.00000E+00  1.47744E-01
      21    -1     0     0   502   511  0.000000000E+00  0.000000000E+00  3.471982360E+02  3.471982360E+02  0.000000000E+00  0.00000E+00  9.000E+00
      21    -1     0     0   501   502  0.000000000E+00  0.000000000E+00 -1.738001716E+02  1.738001716E+02  0.000000000E+00  0.00000E+00  9.000E+00
      25     1     1     2     0     0  1.656007434E+01  8.019786831E+01 -1.094723005E+02  1.852434040E+02  1.250000000E+02  0.00000E+00  9.000E+00
      25     1     1     2     0     0 -4.232481274E+01 -5.506872510E+01  2.437282537E+02  2.825816978E+02  1.250000000E+02  0.00000E+00  9.000E+00
      21     1     1     2   501   511  2.576473841E+01 -2.512914320E+01  3.914211114E+01  5.317330578E+01  0.000000000E+00  0.00000E+00  9.000E+00
#rwgt            1           1   4.0934419049606041E-002           6      191097           0
</event>
<event>
      5   9999  3.79277E-02  8.93775E+01 -1.00000E+00  1.26062E-01
      21    -1     0     0   512   501  0.000000000E+00  0.000000000E+00  4.035493132E+02  4.035493132E+02  0.000000000E+00  0.00000E+00  9.000E+00
      21    -1     0     0   501   502  0.000000000E+00  0.000000000E+00 -4.500360250E+02  4.500360250E+02  0.000000000E+00  0.00000E+00  9.000E+00
      25     1     1     2     0     0  1.779713855E+02 -5.229356333E+01 -3.079643290E+01  2.257916099E+02  1.250000000E+02  0.00000E+00  9.000E+00
      25     1     1     2     0     0 -9.038152726E+01  7.007989836E+01 -2.918872368E+02  3.374954394E+02  1.250000000E+02  0.00000E+00  9.000E+00
      21     1     1     2   512   502 -8.758985823E+01 -1.778633503E+01  2.761969579E+02  2.902982889E+02  5.394796609E-06  0.00000E+00  9.000E+00
#rwgt            1           1   4.1114838688232222E-002           6      191260           0
</event>
<event>
      5   9999  3.79277E-02  7.80967E+01 -1.00000E+00  1.28858E-01
      21    -1     0     0   511   501  0.000000000E+00  0.000000000E+00  6.728813953E+01  6.728813953E+01  0.000000000E+00  0.00000E+00  9.000E+00
      21    -1     0     0   501   502  0.000000000E+00  0.000000000E+00 -1.603230585E+03  1.603230585E+03  0.000000000E+00  0.00000E+00  9.000E+00
      25     1     1     2     0     0 -2.060261387E+02 -8.449817987E+01 -7.414367676E+02  7.841812243E+02  1.250000000E+02  0.00000E+00  9.000E+00
      25     1     1     2     0     0  2.711481036E+02  4.139103354E+01 -7.096481294E+02  7.710123081E+02  1.250000000E+02  0.00000E+00  9.000E+00
      21     1     1     2   511   502 -6.512196484E+01  4.310714633E+01 -8.485754806E+01  1.153251917E+02  2.523185073E-06  0.00000E+00  9.000E+00
#rwgt            1           1   4.0634397454187905E-002           6      191395           0
</event>
<event>
      5   9999  3.79277E-02  4.57221E+00 -1.00000E+00  2.50499E-01
      21    -1     0     0   502   512  0.000000000E+00  0.000000000E+00  3.770000696E+02  3.770000696E+02  0.000000000E+00  0.00000E+00  9.000E+00
      21    -1     0     0   501   502  0.000000000E+00  0.000000000E+00 -2.261315711E+03  2.261315711E+03  0.000000000E+00  0.00000E+00  9.000E+00
      25     1     1     2     0     0  1.629475042E+02 -2.160624375E+02 -5.599319225E+02  6.343371531E+02  1.250000000E+02  0.00000E+00  9.000E+00
      25     1     1     2     0     0 -1.588059874E+02  2.179996834E+02 -1.650890012E+03  1.677440323E+03  1.250000000E+02  0.00000E+00  9.000E+00
      21     1     1     2   501   512 -4.141516735E+00 -1.937245852E+00  3.265062932E+02  3.265383049E+02  6.607249480E-06  0.00000E+00  9.000E+00
#rwgt            1           1  0.12320624362345939                6      191511           0
</event>
<event>
      5   9999  3.79277E-02  5.14802E+01 -1.00000E+00  1.38356E-01
      21    -1     0     0   502   501  0.000000000E+00  0.000000000E+00  1.105696650E+03  1.105696650E+03  0.000000000E+00  0.00000E+00  9.000E+00
      21    -1     0     0   501   511  0.000000000E+00  0.000000000E+00 -9.667738858E+01  9.667738858E+01  0.000000000E+00  0.00000E+00  9.000E+00
      25     1     1     2     0     0 -1.031706859E+02  1.141129098E+02  5.872291107E+02  6.197813930E+02  1.250000000E+02  0.00000E+00  9.000E+00
      25     1     1     2     0     0  6.335447874E+01 -1.467454483E+02  4.700827270E+02  5.120066277E+02  1.250000000E+02  0.00000E+00  9.000E+00
      21     1     1     2   502   511  3.981620718E+01  3.263253843E+01 -4.829257663E+01  7.058601757E+01  3.371747881E-06  0.00000E+00  9.000E+00
#rwgt            1           1   4.0762662518725422E-002           6      192109           0
</event>
<event>
      5   9999  3.79277E-02  4.28101E+01 -1.00000E+00  1.43035E-01
       2    -1     0     0   502     0  0.000000000E+00  0.000000000E+00  2.255411126E+03  2.255411126E+03  0.000000000E+00  0.00000E+00  9.000E+00
      21    -1     0     0   501   502  0.000000000E+00  0.000000000E+00 -3.954708104E+01  3.954708104E+01  0.000000000E+00  0.00000E+00  9.000E+00
      25     1     1     2     0     0 -5.816495484E+01  1.721564706E+02  8.346327830E+02  8.632832066E+02  1.250000000E+02  0.00000E+00  9.000E+00
      25     1     1     2     0     0  1.616352780E+01 -1.804383085E+02  4.651683599E+02  5.146123258E+02  1.250000000E+02  0.00000E+00  9.000E+00
       2     1     1     2   501     0  4.200142704E+01  8.281837909E+00  9.160629017E+02  9.170626743E+02  1.078959322E-05  0.00000E+00  9.000E+00
#rwgt            1           1   3.5990043699296176E-002           6      192328           0
</event>
<event>
      5   9999  3.79277E-02  2.37998E+01 -1.00000E+00  1.60368E-01
      21    -1     0     0   502   501  0.000000000E+00  0.000000000E+00  4.551122439E+02  4.551122439E+02  0.000000000E+00  0.00000E+00  9.000E+00
      21    -1     0     0   501   511  0.000000000E+00  0.000000000E+00 -1.812407674E+02  1.812407674E+02  0.000000000E+00  0.00000E+00  9.000E+00
      25     1     1     2     0     0  1.039018601E+01 -2.328160142E+02  1.181132343E+02  2.896325060E+02  1.250000000E+02  0.00000E+00  9.000E+00
      25     1     1     2     0     0 -7.699750509E+00  2.564632715E+02  1.490993841E+02  3.220067113E+02  1.250000000E+02  0.00000E+00  9.000E+00
      21     1     1     2   502   511 -2.690435501E+00 -2.364725735E+01  6.658858119E+00  2.471379402E+01  2.384185791E-07  0.00000E+00  9.000E+00
#rwgt            1           1   4.5167758194181305E-002           6      192441           0
</event>
<event>
      5   9999  3.79277E-02  1.32498E+02 -1.00000E+00  1.18570E-01
      21    -1     0     0   502   501  0.000000000E+00  0.000000000E+00  5.648218783E+02  5.648218783E+02  0.000000000E+00  0.00000E+00  9.000E+00
      21    -1     0     0   501   512  0.000000000E+00  0.000000000E+00 -1.326816791E+02  1.326816791E+02  0.000000000E+00  0.00000E+00  9.000E+00
      25     1     1     2     0     0 -5.250449253E+01 -6.095700654E+01  2.060394428E+02  2.540663897E+02  1.250000000E+02  0.00000E+00  9.000E+00
      25     1     1     2     0     0  3.957747636E+01  1.928233876E+02  2.025397908E+02  3.088601663E+02  1.250000000E+02  0.00000E+00  9.000E+00
      21     1     1     2   502   512  1.292701617E+01 -1.318663811E+02  2.356096564E+01  1.345770014E+02  3.303624740E-06  0.00000E+00  9.000E+00
#rwgt            1           1   4.9344574871209905E-002           6      192598           0
</event>
<event>
      5   9999  3.79277E-02  7.80799E+00 -1.00000E+00  2.09060E-01
      21    -1     0     0   502   501  0.000000000E+00  0.000000000E+00  8.800058740E+01  8.800058740E+01  0.000000000E+00  0.00000E+00  9.000E+00
       2    -1     0     0   501     0  0.000000000E+00  0.000000000E+00 -2.825721832E+03  2.825721832E+03  0.000000000E+00  0.00000E+00  9.000E+00
      25     1     1     2     0     0 -1.603093703E+02  4.753240768E+00 -1.662985227E+02  2.626821010E+02  1.250000000E+02  0.00000E+00  9.000E+00
      25     1     1     2     0     0  1.602654274E+02 -1.256110696E+01 -2.206585959E+02  3.002632255E+02  1.250000000E+02  0.00000E+00  9.000E+00
       2     1     1     2   502     0  4.394294808E-02  7.807866187E+00 -2.350764126E+03  2.350777093E+03  3.051757812E-05  0.00000E+00  9.000E+00
#rwgt            1           1   3.4472084549993065E-002           6      192652           0
</event>
<event>
      5   9999  3.79277E-02  7.07636E+01 -1.00000E+00  1.30982E-01
      21    -1     0     0   502   501  0.000000000E+00  0.000000000E+00  4.413804775E+01  4.413804775E+01  0.000000000E+00  0.00000E+00  9.000E+00
      21    -1     0     0   511   502  0.000000000E+00  0.000000000E+00 -2.922245994E+03  2.922245994E+03  0.000000000E+00  0.00000E+00  9.000E+00
      25     1     1     2     0     0  1.036188040E+02 -6.333777907E+01 -2.114800649E+02  2.740389546E+02  1.250000000E+02  0.00000E+00  9.000E+00
      25     1     1     2     0     0 -1.292518216E+02 -2.620102818E+00 -6.483371360E+02  6.728141944E+02  1.250000000E+02  0.00000E+00  9.000E+00
      21     1     1     2   511   501  2.563301763E+01  6.595788189E+01 -2.018290745E+03  2.019530892E+03  0.000000000E+00  0.00000E+00  9.000E+00
#rwgt            2          11   2.6871272727574776E-004           6      192989           0
</event>
<event>
      5   9999  3.79277E-02  1.04312E+01 -1.00000E+00  1.93661E-01
      21    -1     0     0   502   501  0.000000000E+00  0.000000000E+00  4.342061478E+02  4.342061478E+02  0.000000000E+00  0.00000E+00  9.000E+00
      21    -1     0     0   512   502  0.000000000E+00  0.000000000E+00 -2.192006906E+02  2.192006906E+02  0.000000000E+00  0.00000E+00  9.000E+00
      25     1     1     2     0     0  9.937861333E+00 -2.026705724E+02  1.618974005E+02  2.881143702E+02  1.250000000E+02  0.00000E+00  9.000E+00
      25     1     1     2     0     0 -8.380754033E+00  1.923562574E+02  1.458463661E+02  2.719693536E+02  1.250000000E+02  0.00000E+00  9.000E+00
      21     1     1     2   512   501 -1.557107300E+00  1.031431492E+01 -9.273830945E+01  9.332311458E+01  1.907348633E-06  0.00000E+00  9.000E+00
#rwgt            1           1   4.0671730765687600E-002           6      193069           0
</event>
<event>
      5   9999  3.79277E-02  6.85109E+01 -1.00000E+00  1.31695E-01
      21    -1     0     0   502   501  0.000000000E+00  0.000000000E+00  8.372783620E+02  8.372783620E+02  0.000000000E+00  0.00000E+00  9.000E+00
      21    -1     0     0   501   511  0.000000000E+00  0.000000000E+00 -1.425946515E+03  1.425946515E+03  0.000000000E+00  0.00000E+00  9.000E+00
      25     1     1     2     0     0  2.519850784E+02 -7.172632117E+01  6.070233624E+02  6.728621756E+02  1.250000000E+02  0.00000E+00  9.000E+00
      25     1     1     2     0     0 -2.029326333E+02  1.195551263E+02  1.059465256E+02  2.869228959E+02  1.250000000E+02  0.00000E+00  9.000E+00
      21     1     1     2   502   511 -4.905244513E+01 -4.782880515E+01 -1.301638041E+03  1.303439805E+03  1.525878906E-05  0.00000E+00  9.000E+00
#rwgt            1           1   2.9572392280125481E-002           6      193361           0
</event>
<event>
      5   9999  3.79277E-02  1.48177E+02 -1.00000E+00  1.16604E-01
      21    -1     0     0   502   501  0.000000000E+00  0.000000000E+00  4.951926605E+02  4.951926605E+02  0.000000000E+00  0.00000E+00  9.000E+00
      21    -1     0     0   512   502  0.000000000E+00  0.000000000E+00 -2.314805174E+02  2.314805174E+02  0.000000000E+00  0.00000E+00  9.000E+00
      25     1     1     2     0     0  1.073876932E+02 -1.071106383E+02 -5.838608288E+01  2.050335099E+02  1.250000000E+02  0.00000E+00  9.000E+00
      25     1     1     2     0     0  3.008145727E+01  5.180636591E+01  3.449063546E+02  3.717178864E+02  1.250000000E+02  0.00000E+00  9.000E+00
      21     1     1     2   512   501 -1.374691505E+02  5.530427239E+01 -2.280812856E+01  1.499217816E+02  2.739220927E-06  0.00000E+00  9.000E+00
#rwgt            1           1   3.9664352886837326E-002           6      193457           0
</event>
<event>
      5   9999  3.79277E-02  9.03790E+01 -1.00000E+00  1.25837E-01
      21    -1     0     0   502   501  0.000000000E+00  0.000000000E+00  1.253797303E+02  1.253797303E+02  0.000000000E+00  0.00000E+00  9.000E+00
      21    -1     0     0   511   502  0.000000000E+00  0.000000000E+00 -5.245134050E+02  5.245134050E+02  0.000000000E+00  0.00000E+00  9.000E+00
      25     1     1     2     0     0 -1.461984061E+01 -2.146530817E+00  4.730229830E+01  1.344650689E+02  1.250000000E+02  0.00000E+00  9.000E+00
      25     1     1     2     0     0  7.503843766E+01  6.936231381E+01 -3.355791203E+02  3.723979641E+02  1.250000000E+02  0.00000E+00  9.000E+00
      21     1     1     2   511   501 -6.041859705E+01 -6.721578299E+01 -1.108568527E+02  1.430301023E+02  2.697398305E-06  0.00000E+00  9.000E+00
#rwgt            1           1   4.3703032203916817E-002           6      193536           0
</event>
<event>
      5   9999  3.79277E-02  1.35213E+02 -1.00000E+00  1.18208E-01
      21    -1     0     0   512   501  0.000000000E+00  0.000000000E+00  8.922263003E+02  8.922263003E+02  0.000000000E+00  0.00000E+00  9.000E+00
      21    -1     0     0   501   502  0.000000000E+00  0.000000000E+00 -2.593878299E+02  2.593878299E+02  0.000000000E+00  0.00000E+00  9.000E+00
      25     1     1     2     0     0 -1.241244815E+02 -7.252380973E+01 -1.241779659E+02  2.274021924E+02  1.250000000E+02  0.00000E+00  9.000E+00
      25     1     1     2     0     0  2.583672002E+02  5.635715210E+01  2.083141359E+02  3.590954162E+02  1.250000000E+02  0.00000E+00  9.000E+00
      21     1     1     2   512   502 -1.342427187E+02  1.616665763E+01  5.487023004E+02  5.651165215E+02  0.000000000E+00  0.00000E+00  9.000E+00
#rwgt            1           1   3.9775250570329761E-002           6      193619           0
</event>
<event>
      5   9999  3.79277E-02  9.06434E+01 -1.00000E+00  1.25778E-01
      21    -1     0     0   502   501  0.000000000E+00  0.000000000E+00  1.656246224E+03  1.656246224E+03  0.000000000E+00  0.00000E+00  9.000E+00
      21    -1     0     0   511   502  0.000000000E+00  0.000000000E+00 -6.969783303E+02  6.969783303E+02  0.000000000E+00  0.00000E+00  9.000E+00
      25     1     1     2     0     0 -1.596824393E+02  1.930151808E+02  1.348656311E+03  1.377407778E+03  1.250000000E+02  0.00000E+00  9.000E+00
      25     1     1     2     0     0  1.939157431E+02 -1.090848355E+02  2.337780696E+02  3.460924769E+02  1.250000000E+02  0.00000E+00  9.000E+00
      21     1     1     2   511   501 -3.423330378E+01 -8.393034532E+01 -6.231664873E+02  6.297242991E+02  1.078959322E-05  0.00000E+00  9.000E+00
#rwgt            1           1   2.6100816618573833E-002           6      193677           0
</event>
<event>
      5   9999  3.79277E-02  2.93402E+02 -1.00000E+00  1.05907E-01
      21    -1     0     0   502   501  0.000000000E+00  0.000000000E+00  4.366254416E+02  4.366254416E+02  0.000000000E+00  0.00000E+00  9.000E+00
      21    -1     0     0   512   502  0.000000000E+00  0.000000000E+00 -1.282911352E+03  1.282911352E+03  0.000000000E+00  0.00000E+00  9.000E+00
      25     1     1     2     0     0 -1.511957764E+02 -3.980031952E+02  1.509235438E+02  4.686892599E+02  1.250000000E+02  0.00000E+00  9.000E+00
      25     1     1     2     0     0 -1.367455838E+02  3.416593475E+02 -2.891950921E+02  4.844473818E+02  1.250000000E+02  0.00000E+00  9.000E+00
      21     1     1     2   512   501  2.879413602E+02  5.634384772E+01 -7.080143623E+02  7.664001522E+02  0.000000000E+00  0.00000E+00  9.000E+00
#rwgt            1           1  0.16343045949246979                6      193734           0
</event>
<event>
      5   9999  3.79277E-02  9.75913E+01 -1.00000E+00  1.24306E-01
      21    -1     0     0   502   511  0.000000000E+00  0.000000000E+00  1.705411860E+02  1.705411860E+02  0.000000000E+00  0.00000E+00  9.000E+00
      21    -1     0     0   501   502  0.000000000E+00  0.000000000E+00 -4.486626114E+02  4.486626114E+02  0.000000000E+00  0.00000E+00  9.000E+00
      25     1     1     2     0     0  1.009100325E+02 -8.563774765E+01 -2.002835981E+02  2.706569381E+02  1.250000000E+02  0.00000E+00  9.000E+00
      25     1     1     2     0     0 -8.744425284E+01  1.822956197E+02 -8.036802285E+01  2.509227160E+02  1.250000000E+02  0.00000E+00  9.000E+00
      21     1     1     2   501   511 -1.346577969E+01 -9.665787208E+01  2.530195560E+00  9.762414326E+01  1.565969545E-06  0.00000E+00  9.000E+00
#rwgt            1           1   4.1558708216516214E-002           6      193876           0
</event>
<event>
      5   9999  3.79277E-02  1.06807E+02 -1.00000E+00  1.22555E-01
       2    -1     0     0   502     0  0.000000000E+00  0.000000000E+00  2.610558867E+03  2.610558867E+03  0.000000000E+00  0.00000E+00  9.000E+00
      21    -1     0     0   501   502  0.000000000E+00  0.000000000E+00 -5.880324014E+01  5.880324014E+01  0.000000000E+00  0.00000E+00  9.000E+00
      25     1     1     2     0     0  1.066594326E+01 -6.849207443E+01  1.033417012E+02  1.763786660E+02  1.250000000E+02  0.00000E+00  9.000E+00
      25     1     1     2     0     0  8.970394501E+01  3.197343892E+01  2.733625942E+02  3.153112850E+02  1.250000000E+02  0.00000E+00  9.000E+00
       2     1     1     2   501     0 -1.003698883E+02  3.651863551E+01  2.175051331E+03  2.177672156E+03  6.103515625E-05  0.00000E+00  9.000E+00
#rwgt            1           1  0.11255062620742952                6      193943           0
</event>
<event>
      5   9999  3.79277E-02  1.90917E+01 -1.00000E+00  1.68052E-01
      21    -1     0     0   511   501  0.000000000E+00  0.000000000E+00  1.252694658E+03  1.252694658E+03  0.000000000E+00  0.00000E+00  9.000E+00
      21    -1     0     0   501   502  0.000000000E+00  0.000000000E+00 -4.413927772E+01  4.413927772E+01  0.000000000E+00  0.00000E+00  9.000E+00
      25     1     1     2     0     0  1.181195893E+02 -1.786314071E+00  6.022977587E+02  6.263729069E+02  1.250000000E+02  0.00000E+00  9.000E+00
      25     1     1     2     0     0 -1.299760027E+02 -1.317762618E+01  2.246440186E+02  2.883701548E+02  1.250000000E+02  0.00000E+00  9.000E+00
      21     1     1     2   511   502  1.185641342E+01  1.496394025E+01  3.816136029E+02  3.820908739E+02  0.000000000E+00  0.00000E+00  9.000E+00
#rwgt            1           1   3.7916998993494370E-002           6      194057           0
</event>
<event>
      5   9999  3.79277E-02  1.08645E+02 -1.00000E+00  1.22230E-01
      21    -1     0     0   502   501  0.000000000E+00  0.000000000E+00  1.965511170E+03  1.965511170E+03  0.000000000E+00  0.00000E+00  9.000E+00
      21    -1     0     0   501   512  0.000000000E+00  0.000000000E+00 -1.048976620E+02  1.048976620E+02  0.000000000E+00  0.00000E+00  9.000E+00
      25     1     1     2     0     0 -2.288106766E+02 -8.790198695E+00  1.918407705E+02  3.238201268E+02  1.250000000E+02  0.00000E+00  9.000E+00
      25     1     1     2     0     0  2.084634131E+02  1.155127854E+02  1.589439636E+03  1.612061895E+03  1.250000000E+02  0.00000E+00  9.000E+00
      21     1     1     2   502   512  2.034726349E+01 -1.067225867E+02  7.933310222E+01  1.345268105E+02  1.651812370E-06  0.00000E+00  9.000E+00
#rwgt            1           1   3.7794350771692076E-002           6      194285           0
</event>
<event>
      5   9999  3.79277E-02  3.67015E+01 -1.00000E+00  1.47197E-01
      21    -1     0     0   502   501  0.000000000E+00  0.000000000E+00  4.705888931E+01  4.705888931E+01  0.000000000E+00  0.00000E+00  9.000E+00
       2    -1     0     0   501     0  0.000000000E+00  0.000000000E+00 -2.053325542E+03  2.053325542E+03  0.000000000E+00  0.00000E+00  9.000E+00
      25     1     1     2     0     0 -2.947644417E+01  1.241795168E+02 -8.480429325E+02  8.666551959E+02  1.250000000E+02  0.00000E+00  9.000E+00
      25     1     1     2     0     0  6.614669532E-01 -1.469104547E+02 -2.113384000E+02  2.861329037E+02  1.250000000E+02  0.00000E+00  9.000E+00
       2     1     1     2   502     0  2.881497722E+01  2.273093786E+01 -9.468853201E+02  9.475963317E+02  1.525878906E-05  0.00000E+00  9.000E+00
#rwgt            1           1   4.2971621343536659E-002           6      194440           0
</event>
<event>
      5   9999  3.79277E-02  8.17325E+01 -1.00000E+00  1.27901E-01
      21    -1     0     0   502   501  0.000000000E+00  0.000000000E+00  5.202662864E+02  5.202662864E+02  0.000000000E+00  0.00000E+00  9.000E+00
      21    -1     0     0   501   511  0.000000000E+00  0.000000000E+00 -8.690421641E+01  8.690421641E+01  0.000000000E+00  0.00000E+00  9.000E+00
      25     1     1     2     0     0 -8.605479270E+01 -5.290448419E+01  2.296092970E+02  2.802672672E+02  1.250000000E+02  0.00000E+00  9.000E+00
      25     1     1     2     0     0  3.394345868E+01  1.158696578E+02  1.339718261E+02  2.194342411E+02  1.250000000E+02  0.00000E+00  9.000E+00
      21     1     1     2   502   511  5.211133402E+01 -6.296517365E+01  6.978094693E+01  1.074689945E+02  1.348699152E-06  0.00000E+00  9.000E+00
#rwgt            1           1   5.5752604508036596E-002           6      194571           0
</event>
<event>
      5   9999  3.79277E-02  1.38414E+01 -1.00000E+00  1.80737E-01
      21    -1     0     0   502   501  0.000000000E+00  0.000000000E+00  1.205867406E+02  1.205867406E+02  0.000000000E+00  0.00000E+00  9.000E+00
       2    -1     0     0   501     0  0.000000000E+00  0.000000000E+00 -3.904589539E+02  3.904589539E+02  0.000000000E+00  0.00000E+00  9.000E+00
      25     1     1     2     0     0 -2.454911807E+01  1.335888780E+02 -7.159241649E+01  1.979876805E+02  1.250000000E+02  0.00000E+00  9.000E+00
      25     1     1     2     0     0  1.153248091E+01 -1.288824826E+02 -8.508121211E+01  1.990163438E+02  1.250000000E+02  0.00000E+00  9.000E+00
       2     1     1     2   502     0  1.301663716E+01 -4.706395398E+00 -1.131985847E+02  1.140416704E+02  1.348699152E-06  0.00000E+00  9.000E+00
#rwgt            1           1   3.4643858844575444E-002           6      194667           0
</event>
<event>
      5   9999  3.79277E-02  2.38955E+01 -1.00000E+00  1.60235E-01
      21    -1     0     0   502   511  0.000000000E+00  0.000000000E+00  1.500793831E+02  1.500793831E+02  0.000000000E+00  0.00000E+00  9.000E+00
      21    -1     0     0   501   502  0.000000000E+00  0.000000000E+00 -4.615577362E+02  4.615577362E+02  0.000000000E+00  0.00000E+00  9.000E+00
      25     1     1     2     0     0  1.510826248E+02  6.383112198E+01 -3.343406619E+01  2.089095700E+02  1.250000000E+02  0.00000E+00  9.000E+00
      25     1     1     2     0     0 -1.708436400E+02 -7.726598562E+01 -2.965832022E+02  3.724837952E+02  1.250000000E+02  0.00000E+00  9.000E+00
      21     1     1     2   501   511  1.976101520E+01  1.343486364E+01  1.853891524E+01  3.024375409E+01  5.840038640E-07  0.00000E+00  9.000E+00
#rwgt            1           1   3.9407805096053010E-002           6      195043           0
</event>
<event>
      5   9999  3.79277E-02  9.96925E+01 -1.00000E+00  1.23888E-01
      21    -1     0     0   502   512  0.000000000E+00  0.000000000E+00  2.590864182E+02  2.590864182E+02  0.000000000E+00  0.00000E+00  9.000E+00
      21    -1     0     0   501   502  0.000000000E+00  0.000000000E+00 -7.390092783E+02  7.390092783E+02  0.000000000E+00  0.00000E+00  9.000E+00
      25     1     1     2     0     0  6.367117933E+01 -7.552330173E+01 -6.428577127E+02  6.623056900E+02  1.250000000E+02  0.00000E+00  9.000E+00
      25     1     1     2     0     0 -1.468207751E+02  2.052565691E+01  1.084452578E+02  2.221778939E+02  1.250000000E+02  0.00000E+00  9.000E+00
      21     1     1     2   501   512  8.314959575E+01  5.499764482E+01  5.448959482E+01  1.136121127E+02  2.023048729E-06  0.00000E+00  9.000E+00
#rwgt            1           1   4.3191289165999291E-002           6      195193           0
</event>
<event>
      5   9999  3.79277E-02  7.02636E+00 -1.00000E+00  2.15323E-01
      21    -1     0     0   502   501  0.000000000E+00  0.000000000E+00  1.187717335E+02  1.187717335E+02  0.000000000E+00  0.00000E+00  9.000E+00
      21    -1     0     0   511   502  0.000000000E+00  0.000000000E+00 -5.103150388E+02  5.103150388E+02  0.000000000E+00  0.00000E+00  9.000E+00
      25     1     1     2     0     0 -6.750580143E-01  1.877011809E+02 -2.632895890E+02  3.466678478E+02  1.250000000E+02  0.00000E+00  9.000E+00
      25     1     1     2     0     0 -3.889269430E+00 -1.930431477E+02 -9.571932097E+01  2.491344450E+02  1.250000000E+02  0.00000E+00  9.000E+00
      21     1     1     2   511   501  4.564327444E+00  5.341966786E+00 -3.253439529E+01  3.328447943E+01  6.743495762E-07  0.00000E+00  9.000E+00
#rwgt            1           1   3.3062268043890959E-002           6      195397           0
</event>
<event>
      5   9999  3.79277E-02  1.56601E+01 -1.00000E+00  1.75640E-01
       2    -1     0     0   502     0  0.000000000E+00  0.000000000E+00  1.425490573E+03  1.425490573E+03  0.000000000E+00  0.00000E+00  9.000E+00
      21    -1     0     0   501   502  0.000000000E+00  0.000000000E+00 -5.136169595E+01  5.136169595E+01  0.000000000E+00  0.00000E+00  9.000E+00
      25     1     1     2     0     0 -8.017168471E+01 -1.946616577E+01  1.434888676E+02  2.074138032E+02  1.250000000E+02  0.00000E+00  9.000E+00
      25     1     1     2     0     0  8.213116480E+01  3.929149386E+00  2.701073056E+02  3.087781128E+02  1.250000000E+02  0.00000E+00  9.000E+00
       2     1     1     2   501     0 -1.959480086E+00  1.553701639E+01  9.605327040E+02  9.606603530E+02  0.000000000E+00  0.00000E+00  9.000E+00
#rwgt            1           1   3.6889219776285787E-002           6      195754           0
</event>
<event>
      5   9999  3.79277E-02  4.15181E+01 -1.00000E+00  1.43844E-01
      21    -1     0     0   502   501  0.000000000E+00  0.000000000E+00  2.282999418E+02  2.282999418E+02  0.000000000E+00  0.00000E+00  9.000E+00
      21    -1     0     0   501   511  0.000000000E+00  0.000000000E+00 -1.057578168E+03  1.057578168E+03  0.000000000E+00  0.00000E+00  9.000E+00
      25     1     1     2     0     0 -1.700637076E+02  1.890344717E+00 -3.975326620E+02  4.500916078E+02  1.250000000E+02  0.00000E+00  9.000E+00
      25     1     1     2     0     0  1.376565865E+02 -2.784276427E+01  1.573861084E+02  2.451936835E+02  1.250000000E+02  0.00000E+00  9.000E+00
      21     1     1     2   502   511  3.240712115E+01  2.595241955E+01 -5.891316731E+02  5.905928189E+02  7.629394531E-06  0.00000E+00  9.000E+00
#rwgt            1           1   4.3336046073166302E-002           6      196019           0
</event>
<event>
      5   9999  3.79277E-02  1.76674E+02 -1.00000E+00  1.13644E-01
      21    -1     0     0   502   501  0.000000000E+00  0.000000000E+00  1.528686798E+02  1.528686798E+02  0.000000000E+00  0.00000E+00  9.000E+00
      21    -1     0     0   501   512  0.000000000E+00  0.000000000E+00 -1.911053977E+03  1.911053977E+03  0.000000000E+00  0.00000E+00  9.000E+00
      25     1     1     2     0     0 -1.812476906E+02 -1.397993113E+02 -3.130880976E+02  4.074846373E+02  1.250000000E+02  0.00000E+00  9.000E+00
      25     1     1     2     0     0  5.258005423E+01  2.608712087E+02 -1.166721325E+02  3.163160384E+02  1.250000000E+02  0.00000E+00  9.000E+00
      21     1     1     2   502   512  1.286676364E+02 -1.210718973E+02 -1.328425067E+03  1.340121981E+03  1.525878906E-05  0.00000E+00  9.000E+00
#rwgt            1           1   3.3989782922340020E-002           6      196282           0
</event>
<event>
      5   9999  3.79277E-02  4.35379E+01 -1.00000E+00  1.42594E-01
       2    -1     0     0   502     0  0.000000000E+00  0.000000000E+00  1.497020990E+03  1.497020990E+03  0.000000000E+00  0.00000E+00  9.000E+00
      21    -1     0     0   501   502  0.000000000E+00  0.000000000E+00 -6.752992264E+02  6.752992264E+02  0.000000000E+00  0.00000E+00  9.000E+00
      25     1     1     2     0     0 -9.147557427E+01 -1.638180833E+02 -1.324302797E+02  2.614706945E+02  1.250000000E+02  0.00000E+00  9.000E+00
      25     1     1     2     0     0  5.225839427E+01  1.449087022E+02 -4.574307867E+02  4.985954236E+02  1.250000000E+02  0.00000E+00  9.000E+00
       2     1     1     2   501     0  3.921717999E+01  1.890938115E+01  1.411582830E+03  1.412254098E+03  1.525878906E-05  0.00000E+00  9.000E+00
#rwgt            1           1   3.9612743635318096E-002           6      196348           0
</event>
<event>
      5   9999  3.79277E-02  4.92879E+01 -1.00000E+00  1.39432E-01
      21    -1     0     0   502   511  0.000000000E+00  0.000000000E+00  2.723097863E+02  2.723097863E+02  0.000000000E+00  0.00000E+00  9.000E+00
      21    -1     0     0   501   502  0.000000000E+00  0.000000000E+00 -2.436133076E+02  2.436133076E+02  0.000000000E+00  0.00000E+00  9.000E+00
      25     1     1     2     0     0 -5.507376916E+00 -1.027791516E+02 -1.399339442E+02  2.140102660E+02  1.250000000E+02  0.00000E+00  9.000E+00
      25     1     1     2     0     0  1.915894339E+01  1.501388037E+02  1.567694669E+02  2.512178163E+02  1.250000000E+02  0.00000E+00  9.000E+00
      21     1     1     2   501   511 -1.365156647E+01 -4.735965211E+01  1.186095604E+01  5.069501153E+01  2.384185791E-07  0.00000E+00  9.000E+00
#rwgt            1           1   3.9817807674731233E-002           6      196417           0
</event>
<event>
      5   9999  3.79277E-02  4.16928E+01 -1.00000E+00  1.43733E-01
      21    -1     0     0   512   501  0.000000000E+00  0.000000000E+00  1.330748517E+02  1.330748517E+02  0.000000000E+00  0.00000E+00  9.000E+00
      21    -1     0     0   501   502  0.000000000E+00  0.000000000E+00 -5.982489404E+02  5.982489404E+02  0.000000000E+00  0.00000E+00  9.000E+00
      25     1     1     2     0     0 -1.968196716E+02  9.303749923E+01 -1.705093393E+02  3.034672868E+02  1.250000000E+02  0.00000E+00  9.000E+00
      25     1     1     2     0     0  2.270992912E+02 -6.437678498E+01 -2.679487603E+02  3.783384684E+02  1.250000000E+02  0.00000E+00  9.000E+00
      21     1     1     2   512   502 -3.027961960E+01 -2.866071424E+01 -2.671598905E+01  4.951803686E+01  3.371747881E-07  0.00000E+00  9.000E+00
#rwgt            1           1   4.8831987067442739E-002           6      196549           0
</event>
<event>
      5   9999  3.79277E-02  6.12416E+01 -1.00000E+00  1.34230E-01
      21    -1     0     0   502   511  0.000000000E+00  0.000000000E+00  2.306707319E+02  2.306707319E+02  0.000000000E+00  0.00000E+00  9.000E+00
      21    -1     0     0   501   502  0.000000000E+00  0.000000000E+00 -5.535831539E+02  5.535831539E+02  0.000000000E+00  0.00000E+00  9.000E+00
      25     1     1     2     0     0 -2.518034065E+02 -1.598923747E+02 -1.521957438E+02  3.574340099E+02  1.250000000E+02  0.00000E+00  9.000E+00
      25     1     1     2     0     0  2.119355917E+02  2.063799465E+02 -1.744427933E+02  3.654649990E+02  1.250000000E+02  0.00000E+00  9.000E+00
      21     1     1     2   501   511  3.986781482E+01 -4.648757172E+01  3.726115144E+00  6.135487688E+01  1.348699152E-06  0.00000E+00  9.000E+00
#rwgt            1           1   4.6349154160785590E-002           6      196679           0
</event>
<event>
      5   9999  3.79277E-02  4.65516E+01 -1.00000E+00  1.40870E-01
      21    -1     0     0   502   501  0.000000000E+00  0.000000000E+00  6.928848174E+02  6.928848174E+02  0.000000000E+00  0.00000E+00  9.000E+00
      21    -1     0     0   512   502  0.000000000E+00  0.000000000E+00 -1.779859561E+02  1.779859561E+02  0.000000000E+00  0.00000E+00  9.000E+00
      25     1     1     2     0     0 -1.950348565E+02  1.040915623E+02  5.034710255E+02  5.638986807E+02  1.250000000E+02  0.00000E+00  9.000E+00
      25     1     1     2     0     0  2.189520744E+02 -6.415389674E+01  7.653875819E+00  2.602677759E+02  1.250000000E+02  0.00000E+00  9.000E+00
      21     1     1     2   512   501 -2.391721790E+01 -3.993766555E+01  3.773959965E+00  4.670431688E+01  2.021291847E-07  0.00000E+00  9.000E+00
#rwgt            1           1   3.6269967349266588E-002           6      196943           0
</event>
<event>
      5   9999  3.79277E-02  4.82994E+01 -1.00000E+00  1.39938E-01
       1    -1     0     0   502     0  0.000000000E+00  0.000000000E+00  1.807142433E+03  1.807142433E+03  0.000000000E+00  0.00000E+00  9.000E+00
      21    -1     0     0   501   502  0.000000000E+00  0.000000000E+00 -9.925565763E+01  9.925565763E+01  0.000000000E+00  0.00000E+00  9.000E+00
      25     1     1     2     0     0 -2.437026183E+01 -5.251739277E+01 -3.769493932E+01  1.428211982E+02  1.250000000E+02  0.00000E+00  9.000E+00
      25     1     1     2     0     0  6.647484817E+01  2.885231214E+01  6.065525404E+02  6.235241339E+02  1.250000000E+02  0.00000E+00  9.000E+00
       1     1     1     2   501     0 -4.210458634E+01  2.366508063E+01  1.139029174E+03  1.140052758E+03  2.642899792E-05  0.00000E+00  9.000E+00
#rwgt            1           1   3.7714005969007570E-002           6      197088           0
</event>
<event>
      5   9999  3.79277E-02  1.24158E+01 -1.00000E+00  1.85486E-01
      21    -1     0     0   511   501  0.000000000E+00  0.000000000E+00  6.633820737E+02  6.633820737E+02  0.000000000E+00  0.00000E+00  9.000E+00
      21    -1     0     0   501   502  0.000000000E+00  0.000000000E+00 -5.818466261E+01  5.818466261E+01  0.000000000E+00  0.00000E+00  9.000E+00
      25     1     1     2     0     0 -1.318487561E+02 -1.729114069E+01  1.930677638E+02  2.656750637E+02  1.250000000E+02  0.00000E+00  9.000E+00
      25     1     1     2     0     0  1.206857542E+02  1.185613345E+01  3.329812172E+02  3.757753453E+02  1.250000000E+02  0.00000E+00  9.000E+00
      21     1     1     2   511   502  1.116300192E+01  5.435007242E+00  7.914843005E+01  8.011632727E+01  9.536743164E-07  0.00000E+00  9.000E+00
#rwgt            1           1   3.8606648637652959E-002           6      197390           0
</event>
<event>
      5   9999  3.79277E-02  7.36103E+01 -1.00000E+00  1.30124E-01
      21    -1     0     0   502   501  0.000000000E+00  0.000000000E+00  5.232441352E+02  5.232441352E+02  0.000000000E+00  0.00000E+00  9.000E+00
      21    -1     0     0   512   502  0.000000000E+00  0.000000000E+00 -2.444352508E+02  2.444352508E+02  0.000000000E+00  0.00000E+00  9.000E+00
      25     1     1     2     0     0  6.037189768E+01  7.214460013E+01  4.381310894E+02  4.652240974E+02  1.250000000E+02  0.00000E+00  9.000E+00
      25     1     1     2     0     0  1.207643980E+01 -5.911698134E+01 -1.393893973E+01  1.394989316E+02  1.250000000E+02  0.00000E+00  9.000E+00
      21     1     1     2   512   501 -7.244833748E+01 -1.302761879E+01 -1.453832652E+02  1.629563569E+02  2.697398305E-06  0.00000E+00  9.000E+00
#rwgt            1           1   5.3269934437389158E-002           6      197743           0
</event>
<event>
      5   9999  3.79277E-02  1.25590E+01 -1.00000E+00  1.84973E-01
      21    -1     0     0   502   501  0.000000000E+00  0.000000000E+00  1.366030694E+02  1.366030694E+02  0.000000000E+00  0.00000E+00  9.000E+00
      21    -1     0     0   511   502  0.000000000E+00  0.000000000E+00 -3.068959080E+02  3.068959080E+02  0.000000000E+00  0.00000E+00  9.000E+00
      25     1     1     2     0     0  5.581828276E+01  1.218612628E+02 -1.039928945E+01  1.835728555E+02  1.250000000E+02  0.00000E+00  9.000E+00
      25     1     1     2     0     0 -4.348034116E+01 -1.195153139E+02 -1.123809947E+02  2.107817314E+02  1.250000000E+02  0.00000E+00  9.000E+00
      21     1     1     2   511   501 -1.233794160E+01 -2.345948948E+00 -4.751255454E+01  4.914439050E+01  0.000000000E+00  0.00000E+00  9.000E+00
#rwgt            1           1   3.6486762546345669E-002           6      197823           0
</event>
<event>
      5   9999  3.79277E-02  5.44776E+01 -1.00000E+00  1.36983E-01
      21    -1     0     0   512   501  0.000000000E+00  0.000000000E+00  4.797531013E+02  4.797531013E+02  0.000000000E+00  0.00000E+00  9.000E+00
      21    -1     0     0   501   502  0.000000000E+00  0.000000000E+00 -2.795680078E+02  2.795680078E+02  0.000000000E+00  0.00000E+00  9.000E+00
      25     1     1     2     0     0  1.510419481E+02  1.199650867E+02 -1.068143993E+02  2.534553373E+02  1.250000000E+02  0.00000E+00  9.000E+00
      25     1     1     2     0     0 -1.950463281E+02 -8.784930703E+01  6.270791821E+01  2.555735782E+02  1.250000000E+02  0.00000E+00  9.000E+00
      21     1     1     2   512   502  4.400438000E+01 -3.211577969E+01  2.442915746E+02  2.502921937E+02  3.814697266E-06  0.00000E+00  9.000E+00
#rwgt            1           1   2.7822008559741498E-002           6      198090           0
</event>
<event>
      5   9999  3.79277E-02  7.75123E+00 -1.00000E+00  2.09481E-01
      21    -1     0     0   511   501  0.000000000E+00  0.000000000E+00  1.335433031E+01  1.335433031E+01  0.000000000E+00  0.00000E+00  9.000E+00
      21    -1     0     0   501   502  0.000000000E+00  0.000000000E+00 -3.233570167E+03  3.233570167E+03  0.000000000E+00  0.00000E+00  9.000E+00
      25     1     1     2     0     0  1.427347797E+02 -6.281715878E+01 -1.680486148E+03  1.692329137E+03  1.250000000E+02  0.00000E+00  9.000E+00
      25     1     1     2     0     0 -1.501201390E+02  6.517045652E+01 -1.504113662E+03  1.518145630E+03  1.250000000E+02  0.00000E+00  9.000E+00
      21     1     1     2   511   502  7.385359270E+00 -2.353297741E+00 -3.561602577E+01  3.644973022E+01  0.000000000E+00  0.00000E+00  9.000E+00
#rwgt            1           1   2.5541837468084319E-002           6      198172           0
</event>
<event>
      5   9999  3.79277E-02  6.49473E+01 -1.00000E+00  1.32890E-01
      21    -1     0     0   512   501  0.000000000E+00  0.000000000E+00  4.421217670E+02  4.421217670E+02  0.000000000E+00  0.00000E+00  9.000E+00
      21    -1     0     0   501   502  0.000000000E+00  0.000000000E+00 -4.052699276E+02  4.052699276E+02  0.000000000E+00  0.00000E+00  9.000E+00
      25     1     1     2     0     0  1.780223464E+02  1.282266807E+01 -7.385841025E+01  2.300792068E+02  1.250000000E+02  0.00000E+00  9.000E+00
      25     1     1     2     0     0 -1.838566680E+02  5.186209410E+01 -1.977851829E+02  3.020545146E+02  1.250000000E+02  0.00000E+00  9.000E+00
      21     1     1     2   512   502  5.834321606E+00 -6.468476217E+01  3.084954326E+02  3.152579732E+02  5.394796609E-06  0.00000E+00  9.000E+00
#rwgt            1           1   3.1280444173384055E-002           6      198518           0
</event>
<event>
      5   9999  3.79277E-02  1.37225E+02 -1.00000E+00  1.17947E-01
      21    -1     0     0   502   501  0.000000000E+00  0.000000000E+00  1.076030486E+03  1.076030486E+03  0.000000000E+00  0.00000E+00  9.000E+00
      21    -1     0     0   511   502  0.000000000E+00  0.000000000E+00 -2.048753241E+02  2.048753241E+02  0.000000000E+00  0.00000E+00  9.000E+00
      25     1     1     2     0     0 -2.666763143E+01 -8.674506319E+01  3.454165445E+02  3.783826869E+02  1.250000000E+02  0.00000E+00  9.000E+00
      25     1     1     2     0     0  1.616430431E+02  1.114881744E+02  6.664778190E+02  7.059573426E+02  1.250000000E+02  0.00000E+00  9.000E+00
      21     1     1     2   511   501 -1.349754116E+02 -2.474311123E+01 -1.407392015E+02  1.965657807E+02  1.907348633E-06  0.00000E+00  9.000E+00
#rwgt            2          11   5.2443095448044671E-003           6      198582           0
</event>
<event>
      5   9999  3.79277E-02  2.51576E+01 -1.00000E+00  1.58547E-01
      21    -1     0     0   512   501  0.000000000E+00  0.000000000E+00  8.097564972E+02  8.097564972E+02  0.000000000E+00  0.00000E+00  9.000E+00
      21    -1     0     0   501   502  0.000000000E+00  0.000000000E+00 -9.437324393E+01  9.437324393E+01  0.000000000E+00  0.00000E+00  9.000E+00
      25     1     1     2     0     0  1.442746206E+02  1.631759151E+02  2.926351867E+02  3.856188506E+02  1.250000000E+02  0.00000E+00  9.000E+00
      25     1     1     2     0     0 -1.675095319E+02 -1.728217966E+02  3.586015541E+02  4.496074858E+02  1.250000000E+02  0.00000E+00  9.000E+00
      21     1     1     2   512   502  2.323491132E+01  9.645881510E+00  6.414651244E+01  6.890340480E+01  1.348699152E-06  0.00000E+00  9.000E+00
#rwgt            2          11   2.1584590275353106E-003           6      198647           0
</event>
<event>
      5   9999  3.79277E-02  6.19966E+01 -1.00000E+00  1.33948E-01
      21    -1     0     0   511   501  0.000000000E+00  0.000000000E+00  1.483872221E+02  1.483872221E+02  0.000000000E+00  0.00000E+00  9.000E+00
      21    -1     0     0   501   502  0.000000000E+00  0.000000000E+00 -4.940916959E+02  4.940916959E+02  0.000000000E+00  0.00000E+00  9.000E+00
      25     1     1     2     0     0  1.093902011E+01  2.181873464E+02 -2.481626506E+02  3.534615700E+02  1.250000000E+02  0.00000E+00  9.000E+00
      25     1     1     2     0     0 -2.611690236E+01 -1.580773244E+02 -1.009917368E+02  2.269247981E+02  1.250000000E+02  0.00000E+00  9.000E+00
      21     1     1     2   511   502  1.517788224E+01 -6.011002202E+01  3.449913607E+00  6.209254996E+01  7.189713765E-07  0.00000E+00  9.000E+00
#rwgt            1           1   3.9530395158012085E-002           6      198712           0
</event>
<event>
      5   9999  3.79277E-02  7.34996E+00 -1.00000E+00  2.12602E-01
      21    -1     0     0   502   512  0.000000000E+00  0.000000000E+00  5.805474866E+01  5.805474866E+01  0.000000000E+00  0.00000E+00  9.000E+00
      21    -1     0     0   501   502  0.000000000E+00  0.000000000E+00 -8.358313573E+02  8.358313573E+02  0.000000000E+00  0.00000E+00  9.000E+00
      25     1     1     2     0     0  8.588466821E+01  9.226576087E+01 -1.579583042E+02  2.376235947E+02  1.250000000E+02  0.00000E+00  9.000E+00
      25     1     1     2     0     0 -9.144406384E+01 -8.745794729E+01 -6.232628622E+02  6.481454349E+02  1.250000000E+02  0.00000E+00  9.000E+00
      21     1     1     2   501   512  5.559395627E+00 -4.807813581E+00  3.444557790E+00  8.117076415E+00  1.519626234E-07  0.00000E+00  9.000E+00
#rwgt            2          11   2.4661110956131515E-003           6      198858           0
</event>
<event>
      5   9999  3.79277E-02  1.56223E+02 -1.00000E+00  1.15698E-01
      21    -1     0     0   502   501  0.000000000E+00  0.000000000E+00  2.476199614E+03  2.476199614E+03  0.000000000E+00  0.00000E+00  9.000E+00
      21    -1     0     0   511   502  0.000000000E+00  0.000000000E+00 -4.175118082E+01  4.175118082E+01  0.000000000E+00  0.00000E+00  9.000E+00
      25     1     1     2     0     0  4.134267592E+01  2.221287921E+02  1.766452987E+03  1.785225916E+03  1.250000000E+02  0.00000E+00  9.000E+00
      25     1     1     2     0     0 -5.313478859E+00 -7.011721096E+01  3.559512305E+02  3.837589541E+02  1.250000000E+02  0.00000E+00  9.000E+00
      21     1     1     2   511   501 -3.602919706E+01 -1.520115811E+02  3.120442153E+02  3.489659241E+02  3.814697266E-06  0.00000E+00  9.000E+00
#rwgt            1           1  0.11192430174719863                6      198878           0
</event>
<event>
      5   9999  3.79277E-02  4.21969E+01 -1.00000E+00  1.43415E-01
      21    -1     0     0   502   501  0.000000000E+00  0.000000000E+00  8.851824532E+02  8.851824532E+02  0.000000000E+00  0.00000E+00  9.000E+00
      21    -1     0     0   512   502  0.000000000E+00  0.000000000E+00 -3.233153009E+02  3.233153009E+02  0.000000000E+00  0.00000E+00  9.000E+00
      25     1     1     2     0     0  3.792713109E+02 -3.753886400E+01  4.736696291E+02  6.206801198E+02  1.250000000E+02  0.00000E+00  9.000E+00
      25     1     1     2     0     0 -4.190033952E+02  5.174946059E+01  1.885336388E+02  4.789695030E+02  1.250000000E+02  0.00000E+00  9.000E+00
      21     1     1     2   512   501  3.973208437E+01 -1.421059660E+01 -1.003361157E+02  1.088481313E+02  1.348699152E-06  0.00000E+00  9.000E+00
#rwgt            1           1  0.17223667840516885                6      198934           0
</event>
<event>
      5   9999  3.79277E-02  1.57329E+01 -1.00000E+00  1.75454E-01
      21    -1     0     0   511   501  0.000000000E+00  0.000000000E+00  3.764638347E+02  3.764638347E+02  0.000000000E+00  0.00000E+00  9.000E+00
      21    -1     0     0   501   502  0.000000000E+00  0.000000000E+00 -2.994971078E+02  2.994971078E+02  0.000000000E+00  0.00000E+00  9.000E+00
      25     1     1     2     0     0  5.316483995E+01 -1.205345349E+02  1.099516767E+02  2.122956560E+02  1.250000000E+02  0.00000E+00  9.000E+00
      25     1     1     2     0     0 -6.558428022E+01  1.108762290E+02 -2.155052932E+02  2.804681219E+02  1.250000000E+02  0.00000E+00  9.000E+00
      21     1     1     2   511   502  1.241944027E+01  9.658305917E+00  1.825203434E+02  1.831971646E+02  2.697398305E-06  0.00000E+00  9.000E+00
#rwgt            1           1   4.3975240836244330E-002           6      199183           0
</event>
<event>
      5   9999  3.79277E-02  3.21354E+01 -1.00000E+00  1.50994E-01
      21    -1     0     0   502   501  0.000000000E+00  0.000000000E+00  6.023561210E+01  6.023561210E+01  0.000000000E+00  0.00000E+00  9.000E+00
      21    -1     0     0   512   502  0.000000000E+00  0.000000000E+00 -6.832140785E+02  6.832140785E+02  0.000000000E+00  0.00000E+00  9.000E+00
      25     1     1     2     0     0  6.925057871E+01  1.130420675E+02 -1.752270791E+02  2.527917739E+02  1.250000000E+02  0.00000E+00  9.000E+00
      25     1     1     2     0     0 -5.028642273E+01 -8.709898346E+01 -3.082444002E+02  3.474975791E+02  1.250000000E+02  0.00000E+00  9.000E+00
      21     1     1     2   512   501 -1.896415598E+01 -2.594308405E+01 -1.395069871E+02  1.431603376E+02  2.697398305E-06  0.00000E+00  9.000E+00
#rwgt            1           1   4.7036244422553948E-002           6      199385           0
</event>
<event>
      5   9999  3.79277E-02  1.21956E+02 -1.00000E+00  1.20071E-01
       2    -1     0     0   502     0  0.000000000E+00  0.000000000E+00  1.307735397E+03  1.307735397E+03  0.000000000E+00  0.00000E+00  9.000E+00
      21    -1     0     0   501   502  0.000000000E+00  0.000000000E+00 -9.393208959E+02  9.393208959E+02  0.000000000E+00  0.00000E+00  9.000E+00
      25     1     1     2     0     0 -1.206259943E+02 -1.111155926E+02 -3.239439283E+02  3.840077787E+02  1.250000000E+02  0.00000E+00  9.000E+00
      25     1     1     2     0     0  1.820182955E+02  5.738894424E+00 -5.614429945E+02  6.033297861E+02  1.250000000E+02  0.00000E+00  9.000E+00
       2     1     1     2   501     0 -6.139230118E+01  1.053766981E+02  1.253801423E+03  1.259718728E+03  1.525878906E-05  0.00000E+00  9.000E+00
#rwgt            1           1   4.2500758793136112E-002           6      199645           0
</event>
<event>
      5   9999  3.79277E-02  1.31614E+02 -1.00000E+00  1.18690E-01
      21    -1     0     0   502   501  0.000000000E+00  0.000000000E+00  2.267629989E+02  2.267629989E+02  0.000000000E+00  0.00000E+00  9.000E+00
      21    -1     0     0   501   511  0.000000000E+00  0.000000000E+00 -5.827771244E+02  5.827771244E+02  0.000000000E+00  0.00000E+00  9.000E+00
      25     1     1     2     0     0  8.799388840E+01  1.006300618E+02  6.835807548E+01  1.953641733E+02  1.250000000E+02  0.00000E+00  9.000E+00
      25     1     1     2     0     0 -1.154139153E+02 -2.293558158E+02 -1.827649207E+02  3.390464250E+02  1.250000000E+02  0.00000E+00  9.000E+00
      21     1     1     2   502   511  2.742002685E+01  1.287257540E+02 -2.416072803E+02  2.751295249E+02  3.814697266E-06  0.00000E+00  9.000E+00
#rwgt            2          11   1.7141356474836421E-003           6      199838           0
</event>
<event>
      5   9999  3.79277E-02  4.69911E+01 -1.00000E+00  1.40631E-01
      21    -1     0     0   502   501  0.000000000E+00  0.000000000E+00  4.505847260E+01  4.505847260E+01  0.000000000E+00  0.00000E+00  9.000E+00
      21    -1     0     0   501   512  0.000000000E+00  0.000000000E+00 -1.062092558E+03  1.062092558E+03  0.000000000E+00  0.00000E+00  9.000E+00
      25     1     1     2     0     0 -1.001445138E+01 -7.977652016E+01 -1.411741825E+02  2.049871513E+02  1.250000000E+02  0.00000E+00  9.000E+00
      25     1     1     2     0     0  5.172480942E+01  1.014192424E+02 -6.690910796E+02  6.901225916E+02  1.250000000E+02  0.00000E+00  9.000E+00
      21     1     1     2   502   512 -4.171035804E+01 -2.164272220E+01 -2.067688236E+02  2.120412880E+02  0.000000000E+00  0.00000E+00  9.000E+00
#rwgt            1           1   5.8544137892341454E-002           6      199903           0
</event>
<event>
      5   9999  3.79277E-02  1.10378E+02 -1.00000E+00  1.21929E-01
      21    -1     0     0   502   511  0.000000000E+00  0.000000000E+00  5.744543164E+02  5.744543164E+02  0.000000000E+00  0.00000E+00  9.000E+00
      21    -1     0     0   501   502  0.000000000E+00  0.000000000E+00 -8.733497164E+02  8.733497164E+02  0.000000000E+00  0.00000E+00  9.000E+00
      25     1     1     2     0     0  1.491196995E+02 -3.556275890E+02 -3.557042439E+02  5.393126885E+02  1.250000000E+02  0.00000E+00  9.000E+00
      25     1     1     2     0     0 -2.464229622E+02  3.035172656E+02 -3.170714569E+02  5.186581877E+02  1.250000000E+02  0.00000E+00  9.000E+00
      21     1     1     2   501   511  9.730326264E+01  5.211032337E+01  3.738803008E+02  3.898331567E+02  0.000000000E+00  0.00000E+00  9.000E+00
#rwgt            1           1   4.4203467467456112E-002           6      199973           0
</event>
<event>
      5   9999  3.79277E-02  8.75614E+01 -1.00000E+00  1.26479E-01
      21    -1     0     0   502   512  0.000000000E+00  0.000000000E+00  3.694172982E+03  3.694172982E+03  0.000000000E+00  0.00000E+00  9.000E+00
      21    -1     0     0   501   502  0.000000000E+00  0.000000000E+00 -1.496390330E+01  1.496390330E+01  0.000000000E+00  0.00000E+00  9.000E+00
      25     1     1     2     0     0  1.410044965E+02 -6.943960634E+01  1.804887988E+03  1.816025819E+03  1.250000000E+02  0.00000E+00  9.000E+00
      25     1     1     2     0     0 -6.082268039E+01  1.046230904E+02  1.072110843E+03  1.086136294E+03  1.250000000E+02  0.00000E+00  9.000E+00
      21     1     1     2   501   512 -8.018181611E+01 -3.518348404E+01  8.022102479E+02  8.069747722E+02  1.078959322E-05  0.00000E+00  9.000E+00
#rwgt            1           1   3.2230933328740392E-002           6      200233           0
</event>
<event>
      5   9999  3.79277E-02  8.63361E+01 -1.00000E+00  1.26767E-01
      21    -1     0     0   502   501  0.000000000E+00  0.000000000E+00  1.133770832E+02  1.133770832E+02  0.000000000E+00  0.00000E+00  9.000E+00
      21    -1     0     0   511   502  0.000000000E+00  0.000000000E+00 -5.031219360E+02  5.031219360E+02  0.000000000E+00  0.00000E+00  9.000E+00
      25     1     1     2     0     0  4.871098205E+01 -1.575013412E+02 -1.117578159E+02  2.351472765E+02  1.250000000E+02  0.00000E+00  9.000E+00
      25     1     1     2     0     0 -4.943378321E+00  8.308149322E+01 -9.150963533E+01  1.758578541E+02  1.250000000E+02  0.00000E+00  9.000E+00
      21     1     1     2   511   501 -4.376760373E+01  7.441984796E+01 -1.864774016E+02  2.054938885E+02  0.000000000E+00  0.00000E+00  9.000E+00
#rwgt            1           1   4.0112410109952583E-002           6      200389           0
</event>
<event>
      5   9999  3.79277E-02  2.91380E+01 -1.00000E+00  1.53925E-01
      21    -1     0     0   512   501  0.000000000E+00  0.000000000E+00  5.054511601E+02  5.054511601E+02  0.000000000E+00  0.00000E+00  9.000E+00
      21    -1     0     0   501   502  0.000000000E+00  0.000000000E+00 -2.798236970E+02  2.798236970E+02  0.000000000E+00  0.00000E+00  9.000E+00
      25     1     1     2     0     0 -8.069976919E+01  2.397190326E+02  2.740284552E+02  3.933119139E+02  1.250000000E+02  0.00000E+00  9.000E+00
      25     1     1     2     0     0  1.081839875E+02 -2.300423205E+02 -1.252801222E+02  3.097472412E+02  1.250000000E+02  0.00000E+00  9.000E+00
      21     1     1     2   512   502 -2.748421830E+01 -9.676712107E+00  7.687913010E+01  8.221570202E+01  1.651812370E-06  0.00000E+00  9.000E+00
#rwgt            1           1   3.6567275500201293E-002           6      200480           0
</event>
<event>
      5   9999  3.79277E-02  2.44219E+01 -1.00000E+00  1.59516E-01
      21    -1     0     0   511   501  0.000000000E+00  0.000000000E+00  4.564780729E+01  4.564780729E+01  0.000000000E+00  0.00000E+00  9.000E+00
      21    -1     0     0   501   502  0.000000000E+00  0.000000000E+00 -2.219650462E+03  2.219650462E+03  0.000000000E+00  0.00000E+00  9.000E+00
      25     1     1     2     0     0  2.552828769E+02 -6.824530704E+01 -1.072415299E+03  1.111542326E+03  1.250000000E+02  0.00000E+00  9.000E+00
      25     1     1     2     0     0 -2.795439168E+02  6.544679043E+01 -1.062358902E+03  1.107546623E+03  1.250000000E+02  0.00000E+00  9.000E+00
      21     1     1     2   511   502  2.426103992E+01  2.798516605E+00 -3.922845285E+01  4.620932012E+01  8.259061849E-07  0.00000E+00  9.000E+00
#rwgt            1           1   9.0651708359426916E-002           6      200750           0
</event>
<event>
      5   9999  3.79277E-02  1.25254E+02 -1.00000E+00  1.19584E-01
      21    -1     0     0   502   501  0.000000000E+00  0.000000000E+00  5.277461814E+02  5.277461814E+02  0.000000000E+00  0.00000E+00  9.000E+00
      21    -1     0     0   501   512  0.000000000E+00  0.000000000E+00 -1.253705817E+02  1.253705817E+02  0.000000000E+00  0.00000E+00  9.000E+00
      25     1     1     2     0     0  1.645268825E+00 -1.279285491E+01  3.515201861E+01  1.304876563E+02  1.250000000E+02  0.00000E+00  9.000E+00
      25     1     1     2     0     0 -7.245760275E+01 -9.052254934E+01  3.586125968E+02  3.970798795E+02  1.250000000E+02  0.00000E+00  9.000E+00
      21     1     1     2   502   512  7.081233393E+01  1.033154042E+02  8.610984217E+00  1.255492272E+02  2.963495945E-06  0.00000E+00  9.000E+00
#rwgt            1           1   4.5678946738109578E-002           6      200943           0
</event>
<event>
      5   9999  3.79277E-02  1.18765E+02 -1.00000E+00  1.20559E-01
      21    -1     0     0   502   511  0.000000000E+00  0.000000000E+00  1.816838971E+02  1.816838971E+02  0.000000000E+00  0.00000E+00  9.000E+00
      21    -1     0     0   501   502  0.000000000E+00  0.000000000E+00 -6.419523751E+02  6.419523751E+02  0.000000000E+00  0.00000E+00  9.000E+00
      25     1     1     2     0     0  1.084674573E+02 -7.056294547E+01 -2.104576863E+02  2.768785948E+02  1.250000000E+02  0.00000E+00  9.000E+00
      25     1     1     2     0     0 -3.064809749E+01  1.602813129E+02 -3.402191196E+02  3.974964836E+02  1.250000000E+02  0.00000E+00  9.000E+00
      21     1     1     2   501   511 -7.781935984E+01 -8.971836746E+01  9.040832778E+01  1.492611937E+02  3.568322551E-06  0.00000E+00  9.000E+00
#rwgt            2          11   2.9368774314665006E-003           6      201024           0
</event>
<event>
      5   9999  3.79277E-02  2.28082E+01 -1.00000E+00  1.61795E-01
      21    -1     0     0   502   501  0.000000000E+00  0.000000000E+00  2.616784420E+01  2.616784420E+01  0.000000000E+00  0.00000E+00  9.000E+00
      21    -1     0     0   512   502  0.000000000E+00  0.000000000E+00 -1.657577437E+03  1.657577437E+03  0.000000000E+00  0.00000E+00  9.000E+00
      25     1     1     2     0     0  5.195022315E+01 -5.627525221E+01 -1.215324425E+03  1.224134057E+03  1.250000000E+02  0.00000E+00  9.000E+00
      25     1     1     2     0     0 -6.743480737E+01  3.952888119E+01 -2.372338071E+02  2.793114121E+02  1.250000000E+02  0.00000E+00  9.000E+00
      21     1     1     2   512   501  1.548458421E+01  1.674637101E+01 -1.788513598E+02  1.802998120E+02  0.000000000E+00  0.00000E+00  9.000E+00
#rwgt            1           1   4.8266766651553050E-002           6      201089           0
</event>
<event>
      5   9999  3.79277E-02  1.69454E+02 -1.00000E+00  1.14333E-01
      21    -1     0     0   502   501  0.000000000E+00  0.000000000E+00  6.607816382E+01  6.607816382E+01  0.000000000E+00  0.00000E+00  9.000E+00
      21    -1     0     0   511   502  0.000000000E+00  0.000000000E+00 -1.431146863E+03  1.431146863E+03  0.000000000E+00  0.00000E+00  9.000E+00
      25     1     1     2     0     0  8.644169851E+01  9.593181128E+00 -3.386251936E+02  3.712899380E+02  1.250000000E+02  0.00000E+00  9.000E+00
      25     1     1     2     0     0 -2.540720230E+02  1.519877362E+01 -5.257727097E+02  5.973654977E+02  1.250000000E+02  0.00000E+00  9.000E+00
      21     1     1     2   511   501  1.676303245E+02 -2.479195475E+01 -5.006707958E+02  5.285695910E+02  0.000000000E+00  0.00000E+00  9.000E+00
#rwgt            2          11   1.3555980937068970E-003           6      201251           0
</event>
<event>
      5   9999  3.79277E-02  7.14954E+01 -1.00000E+00  1.30757E-01
      21    -1     0     0   502   512  0.000000000E+00  0.000000000E+00  1.046329152E+03  1.046329152E+03  0.000000000E+00  0.00000E+00  9.000E+00
      21    -1     0     0   501   502  0.000000000E+00  0.000000000E+00 -1.803478263E+02  1.803478263E+02  0.000000000E+00  0.00000E+00  9.000E+00
      25     1     1     2     0     0  7.278990929E+01  8.348303493E+01 -7.199724806E+01  1.818691611E+02  1.250000000E+02  0.00000E+00  9.000E+00
      25     1     1     2     0     0 -2.691122025E+01 -1.383168174E+02  1.191945611E+02  2.229082752E+02  1.250000000E+02  0.00000E+00  9.000E+00
      21     1     1     2   501   512 -4.587868904E+01  5.483378247E+01  8.187840130E+02  8.218995424E+02  1.078959322E-05  0.00000E+00  9.000E+00
#rwgt            1           1   2.4580289373248364E-002           6      201271           0
</event>
<event>
      5   9999  3.79277E-02  1.89694E+01 -1.00000E+00  1.68287E-01
      21    -1     0     0   511   501  0.000000000E+00  0.000000000E+00  1.847851066E+02  1.847851066E+02  0.000000000E+00  0.00000E+00  9.000E+00
      21    -1     0     0   501   502  0.000000000E+00  0.000000000E+00 -6.593172940E+02  6.593172940E+02  0.000000000E+00  0.00000E+00  9.000E+00
      25     1     1     2     0     0  1.704944339E+02  1.054315731E+02 -5.257306613E+02  5.763695835E+02  1.250000000E+02  0.00000E+00  9.000E+00
      25     1     1     2     0     0 -1.863502479E+02 -9.501859654E+01  4.519153852E+01  2.478350737E+02  1.250000000E+02  0.00000E+00  9.000E+00
      21     1     1     2   511   502  1.585581398E+01 -1.041297657E+01  6.006935355E+00  1.989774335E+01  5.527507362E-07  0.00000E+00  9.000E+00
#rwgt            1           1   3.7312499613827016E-002           6      201394           0
</event>
<event>
      5   9999  3.79277E-02  1.03904E+02 -1.00000E+00  1.23084E-01
      21    -1     0     0   502   501  0.000000000E+00  0.000000000E+00  9.118766728E+01  9.118766728E+01  0.000000000E+00  0.00000E+00  9.000E+00
      21    -1     0     0   501   512  0.000000000E+00  0.000000000E+00 -1.102332157E+03  1.102332157E+03  0.000000000E+00  0.00000E+00  9.000E+00
      25     1     1     2     0     0  2.696847279E+02  3.803704915E+01 -3.704679327E+02  4.764957069E+02  1.250000000E+02  0.00000E+00  9.000E+00
      25     1     1     2     0     0 -1.678464422E+02 -1.741905205E+01 -3.480355996E+02  4.064844771E+02  1.250000000E+02  0.00000E+00  9.000E+00
      21     1     1     2   502   512 -1.018382857E+02 -2.061799710E+01 -2.926409579E+02  3.105396408E+02  3.814697266E-06  0.00000E+00  9.000E+00
#rwgt            1           1   3.9571962870733932E-002           6      201591           0
</event>
<event>
      5   9999  3.79277E-02  2.29430E+01 -1.00000E+00  1.61595E-01
      21    -1     0     0   502   501  0.000000000E+00  0.000000000E+00  1.715657144E+02  1.715657144E+02  0.000000000E+00  0.00000E+00  9.000E+00
      21    -1     0     0   501   511  0.000000000E+00  0.000000000E+00 -3.574211749E+02  3.574211749E+02  0.000000000E+00  0.00000E+00  9.000E+00
      25     1     1     2     0     0 -7.105561451E+01  2.295141021E+01 -2.057586330E+02  2.520660283E+02  1.250000000E+02  0.00000E+00  9.000E+00
      25     1     1     2     0     0  7.784855571E+01 -1.037045557E+00  1.100878577E+02  1.838635622E+02  1.250000000E+02  0.00000E+00  9.000E+00
      21     1     1     2   502   511 -6.792941196E+00 -2.191436465E+01 -9.018468510E+01  9.305729878E+01  1.348699152E-06  0.00000E+00  9.000E+00
#rwgt            1           1   3.9709272076767173E-002           6      201732           0
</event>
<event>
      5   9999  3.79277E-02  3.01056E+01 -1.00000E+00  1.52934E-01
      21    -1     0     0   502   512  0.000000000E+00  0.000000000E+00  1.869270015E+03  1.869270015E+03  0.000000000E+00  0.00000E+00  9.000E+00
      21    -1     0     0   501   502  0.000000000E+00  0.000000000E+00 -6.717135027E+01  6.717135027E+01  0.000000000E+00  0.00000E+00  9.000E+00
      25     1     1     2     0     0  9.559403162E+01  7.097620529E+01  1.543959008E+03  1.553579820E+03  1.250000000E+02  0.00000E+00  9.000E+00
      25     1     1     2     0     0 -9.998088041E+01 -4.119196623E+01  5.017559096E+01  1.727296861E+02  1.250000000E+02  0.00000E+00  9.000E+00
      21     1     1     2   501   512  4.386848793E+00 -2.978423906E+01  2.079640659E+02  2.101318587E+02  2.697398305E-06  0.00000E+00  9.000E+00
#rwgt            1           1   3.3180529092764914E-002           6      201892           0
</event>
<event>
      5   9999  3.79277E-02  1.93973E+01 -1.00000E+00  1.67473E-01
      21    -1     0     0   502   501  0.000000000E+00  0.000000000E+00  2.684152601E+02  2.684152601E+02  0.000000000E+00  0.00000E+00  9.000E+00
      21    -1     0     0   501   511  0.000000000E+00  0.000000000E+00 -2.546238227E+02  2.546238227E+02  0.000000000E+00  0.00000E+00  9.000E+00
      25     1     1     2     0     0 -5.429918475E+01  1.219891545E+02 -1.653587260E+02  2.465730390E+02  1.250000000E+02  0.00000E+00  9.000E+00
      25     1     1     2     0     0  3.545575111E+01 -1.265914522E+02  1.818759744E+02  2.568781347E+02  1.250000000E+02  0.00000E+00  9.000E+00
      21     1     1     2   502   511  1.884343365E+01  4.602297638E+00 -2.725811005E+00  1.958790904E+01  3.500980176E-07  0.00000E+00  9.000E+00
#rwgt            1           1   3.9242926912866911E-002           6      202105           0
</event>
<event>
      5   9999  3.79277E-02  5.81351E+01 -1.00000E+00  1.35440E-01
      21    -1     0     0   502   501  0.000000000E+00  0.000000000E+00  3.115490448E+02  3.115490448E+02  0.000000000E+00  0.00000E+00  9.000E+00
      21    -1     0     0   512   502  0.000000000E+00  0.000000000E+00 -4.456865106E+02  4.456865106E+02  0.000000000E+00  0.00000E+00  9.000E+00
      25     1     1     2     0     0 -1.612036235E+01  1.465864743E+02  3.820406192E+01  1.970583946E+02  1.250000000E+02  0.00000E+00  9.000E+00
      25     1     1     2     0     0  2.625270696E+01 -2.038318042E+02  1.152782942E+02  2.667408745E+02  1.250000000E+02  0.00000E+00  9.000E+00
      21     1     1     2   512   501 -1.013234461E+01  5.724532995E+01 -2.876198219E+02  2.934362864E+02  3.814697266E-06  0.00000E+00  9.000E+00
#rwgt            1           1   4.1845473909581529E-002           6      202285           0
</event>
<event>
      5   9999  3.79277E-02  2.60169E+01 -1.00000E+00  1.57465E-01
      21    -1     0     0   502   511  0.000000000E+00  0.000000000E+00  7.675240834E+02  7.675240834E+02  0.000000000E+00  0.00000E+00  9.000E+00
      21    -1     0     0   501   502  0.000000000E+00  0.000000000E+00 -8.350158250E+01  8.350158250E+01  0.000000000E+00  0.00000E+00  9.000E+00
      25     1     1     2     0     0  3.113981369E+01  1.250975460E+02  1.087859895E+02  2.099487450E+02  1.250000000E+02  0.00000E+00  9.000E+00
      25     1     1     2     0     0 -2.217009227E+01 -1.495193176E+02  2.646976807E+02  3.294501503E+02  1.250000000E+02  0.00000E+00  9.000E+00
      21     1     1     2   501   511 -8.969721422E+00  2.442177157E+01  3.105388306E+02  3.116267706E+02  3.814697266E-06  0.00000E+00  9.000E+00
#rwgt            2          11   4.8132054988672245E-004           6      202389           0
</event>
<event>
      5   9999  3.79277E-02  4.44949E+01 -1.00000E+00  1.42029E-01
      21    -1     0     0   512   501  0.000000000E+00  0.000000000E+00  1.335409190E+02  1.335409190E+02  0.000000000E+00  0.00000E+00  9.000E+00
      21    -1     0     0   501   502  0.000000000E+00  0.000000000E+00 -6.238367672E+02  6.238367672E+02  0.000000000E+00  0.00000E+00  9.000E+00
      25     1     1     2     0     0  1.738021521E+01 -1.222235820E+02 -4.736684760E+02  5.052004562E+02  1.250000000E+02  0.00000E+00  9.000E+00
      25     1     1     2     0     0 -4.952633882E+01  1.529875623E+02  2.637171098E+00  2.036909599E+02  1.250000000E+02  0.00000E+00  9.000E+00
      21     1     1     2   512   502  3.214612361E+01 -3.076398038E+01 -1.926454340E+01  4.848627006E+01  3.371747881E-07  0.00000E+00  9.000E+00
#rwgt            1           1   4.2511282935192261E-002           6      202469           0
</event>
<event>
      5   9999  3.79277E-02  7.53987E+01 -1.00000E+00  1.29607E-01
      21    -1     0     0   502   501  0.000000000E+00  0.000000000E+00  2.273369251E+02  2.273369251E+02  0.000000000E+00  0.00000E+00  9.000E+00
      21    -1     0     0   501   511  0.000000000E+00  0.000000000E+00 -4.571961176E+02  4.571961176E+02  0.000000000E+00  0.00000E+00  9.000E+00
      25     1     1     2     0     0  8.308546473E+01  1.890934766E+02 -2.539199562E+02  3.503710626E+02  1.250000000E+02  0.00000E+00  9.000E+00
      25     1     1     2     0     0 -1.767065197E+01 -1.515985729E+02  1.050520636E+02  2.235068574E+02  1.250000000E+02  0.00000E+00  9.000E+00
      21     1     1     2   502   511 -6.541481275E+01 -3.749490375E+01 -8.099129986E+01  1.106551227E+02  1.651812370E-06  0.00000E+00  9.000E+00
#rwgt            1           1   5.1751047239682900E-002           6      202809           0
</event>
<event>
      5   9999  3.79277E-02  6.31263E+01 -1.00000E+00  1.33535E-01
      21    -1     0     0   502   501  0.000000000E+00  0.000000000E+00  1.047669021E+03  1.047669021E+03  0.000000000E+00  0.00000E+00  9.000E+00
      21    -1     0     0   512   502  0.000000000E+00  0.000000000E+00 -1.131952075E+02  1.131952075E+02  0.000000000E+00  0.00000E+00  9.000E+00
      25     1     1     2     0     0 -1.127594333E+02 -2.066850469E+01  3.530070091E+02  3.916386413E+02  1.250000000E+02  0.00000E+00  9.000E+00
      25     1     1     2     0     0  1.549460749E+02 -2.629119412E+01  6.474696414E+02  6.778948661E+02  1.250000000E+02  0.00000E+00  9.000E+00
      21     1     1     2   512   501 -4.218664161E+01  4.695969881E+01 -6.600283726E+01  9.133072083E+01  2.697398305E-06  0.00000E+00  9.000E+00
#rwgt            1           1   3.2675647050053935E-002           6      202920           0
</event>
<event>
      5   9999  3.79277E-02  9.32831E+01 -1.00000E+00  1.25202E-01
      21    -1     0     0   502   511  0.000000000E+00  0.000000000E+00  1.457415209E+03  1.457415209E+03  0.000000000E+00  0.00000E+00  9.000E+00
      21    -1     0     0   501   502  0.000000000E+00  0.000000000E+00 -7.104081859E+01  7.104081859E+01  0.000000000E+00  0.00000E+00  9.000E+00
      25     1     1     2     0     0 -7.114715292E+00  2.336714406E+01  2.093106890E+02  2.450155242E+02  1.250000000E+02  0.00000E+00  9.000E+00
      25     1     1     2     0     0  5.511616063E+01  5.661780248E+01  5.541805012E+01  1.579225348E+02  1.250000000E+02  0.00000E+00  9.000E+00
      21     1     1     2   501   511 -4.800144533E+01 -7.998494654E+01  1.121645651E+03  1.125517969E+03  2.157918644E-05  0.00000E+00  9.000E+00
#rwgt            2          11   4.1305856058833053E-004           6      202997           0
</event>
<event>
      5   9999  3.79277E-02  6.53004E+00 -1.00000E+00  2.19910E-01
      21    -1     0     0   502   501  0.000000000E+00  0.000000000E+00  2.644032239E+02  2.644032239E+02  0.000000000E+00  0.00000E+00  9.000E+00
      21    -1     0     0   512   502  0.000000000E+00  0.000000000E+00 -4.312831589E+02  4.312831589E+02  0.000000000E+00  0.00000E+00  9.000E+00
      25     1     1     2     0     0 -1.150116429E+02  1.063032140E+02 -1.516587526E+02  2.513034591E+02  1.250000000E+02  0.00000E+00  9.000E+00
      25     1     1     2     0     0  1.177824966E+02 -1.003902001E+02  1.684019752E+02  2.606436918E+02  1.250000000E+02  0.00000E+00  9.000E+00
      21     1     1     2   512   501 -2.770853690E+00 -5.913013842E+00 -1.836231576E+02  1.837392320E+02  0.000000000E+00  0.00000E+00  9.000E+00
#rwgt            1           1   4.2586356707264503E-002           6      203017           0
</event>
<event>
      5   9999  3.79277E-02  1.63737E+02 -1.00000E+00  1.14905E-01
      21    -1     0     0   511   501  0.000000000E+00  0.000000000E+00  5.028474069E+02  5.028474069E+02  0.000000000E+00  0.00000E+00  9.000E+00
      21    -1     0     0   501   502  0.000000000E+00  0.000000000E+00 -2.438084379E+03  2.438084379E+03  0.000000000E+00  0.00000E+00  9.000E+00
      25     1     1     2     0     0  1.876886455E+02 -2.226156280E+02 -1.094105010E+03  1.139067829E+03  1.250000000E+02  0.00000E+00  9.000E+00
      25     1     1     2     0     0 -3.480842877E+02  1.897053824E+02 -1.273453420E+03  1.339574341E+03  1.250000000E+02  0.00000E+00  9.000E+00
      21     1     1     2   511   502  1.603956421E+02  3.291024560E+01  4.323214576E+02  4.622896159E+02  5.394796609E-06  0.00000E+00  9.000E+00
#rwgt            2          11   3.3364621861237093E-002           6      203323           0
</event>
<event>
      5   9999  3.79277E-02  2.75868E+01 -1.00000E+00  1.55613E-01
      21    -1     0     0   502   501  0.000000000E+00  0.000000000E+00  1.632664608E+02  1.632664608E+02  0.000000000E+00  0.00000E+00  9.000E+00
      21    -1     0     0   512   502  0.000000000E+00  0.000000000E+00 -1.696749592E+03  1.696749592E+03  0.000000000E+00  0.00000E+00  9.000E+00
      25     1     1     2     0     0 -5.788359598E+01  1.515906438E+02 -2.885063825E+01  2.068516214E+02  1.250000000E+02  0.00000E+00  9.000E+00
      25     1     1     2     0     0  8.228677843E+01 -1.644559224E+02 -9.260637034E+01  2.408688526E+02  1.250000000E+02  0.00000E+00  9.000E+00
      21     1     1     2   512   501 -2.440318246E+01  1.286527861E+01 -1.412026123E+03  1.412295579E+03  0.000000000E+00  0.00000E+00  9.000E+00
#rwgt            1           1   3.9709370984841771E-002           6      203343           0
</event>
<event>
      5   9999  3.79277E-02  2.79262E+01 -1.00000E+00  1.55232E-01
      21    -1     0     0   502   501  0.000000000E+00  0.000000000E+00  8.546057978E+02  8.546057978E+02  0.000000000E+00  0.00000E+00  9.000E+00
      21    -1     0     0   511   502  0.000000000E+00  0.000000000E+00 -6.008705032E+01  6.008705032E+01  0.000000000E+00  0.00000E+00  9.000E+00
      25     1     1     2     0     0 -4.933147899E+01 -6.506733573E+01  9.062117637E+01  1.746555198E+02  1.250000000E+02  0.00000E+00  9.000E+00
      25     1     1     2     0     0  5.975979323E+01  3.916130454E+01  6.963921424E+02  7.111201422E+02  1.250000000E+02  0.00000E+00  9.000E+00
      21     1     1     2   511   501 -1.042831424E+01  2.590603119E+01  7.505428675E+00  2.891718605E+01  4.768371582E-07  0.00000E+00  9.000E+00
#rwgt            1           1   4.0148480269165350E-002           6      203555           0
</event>
<event>
      5   9999  3.79277E-02  2.95595E+01 -1.00000E+00  1.53487E-01
      21    -1     0     0   502   501  0.000000000E+00  0.000000000E+00  1.811309048E+02  1.811309048E+02  0.000000000E+00  0.00000E+00  9.000E+00
      -1    -1     0     0     0   502  0.000000000E+00  0.000000000E+00 -4.207660962E+02  4.207660962E+02  0.000000000E+00  0.00000E+00  9.000E+00
      25     1     1     2     0     0  8.320393955E+01  1.456678216E+02 -1.919226734E+02  2.839037203E+02  1.250000000E+02  0.00000E+00  9.000E+00
      25     1     1     2     0     0 -1.122720047E+02 -1.510354586E+02  3.640023296E+01  2.288376930E+02  1.250000000E+02  0.00000E+00  9.000E+00
      -1     1     1     2     0   501  2.906806511E+01  5.367637020E+00 -8.411275098E+01  8.915558768E+01  9.536743164E-07  0.00000E+00  9.000E+00
#rwgt            1           1   2.9620511409281826E-002           6      203702           0
</event>
<event>
      5   9999  3.79277E-02  1.49898E+01 -1.00000E+00  1.77411E-01
      21    -1     0     0   502   501  0.000000000E+00  0.000000000E+00  1.561448283E+02  1.561448283E+02  0.000000000E+00  0.00000E+00  9.000E+00
       1    -1     0     0   501     0  0.000000000E+00  0.000000000E+00 -1.419471870E+03  1.419471870E+03  0.000000000E+00  0.00000E+00  9.000E+00
      25     1     1     2     0     0  2.391584417E+02 -2.741842812E+02 -6.817213020E+02  7.827788410E+02  1.250000000E+02  0.00000E+00  9.000E+00
      25     1     1     2     0     0 -2.339910458E+02  2.882552213E+02 -2.584245018E+02  4.693091788E+02  1.250000000E+02  0.00000E+00  9.000E+00
       1     1     1     2   502     0 -5.167395950E+00 -1.407094014E+01 -3.231812376E+02  3.235286783E+02  0.000000000E+00  0.00000E+00  9.000E+00
#rwgt            1           1   3.6303895906057405E-002           6      203950           0
</event>
<event>
      5   9999  3.79277E-02  1.59977E+01 -1.00000E+00  1.74789E-01
      21    -1     0     0   502   501  0.000000000E+00  0.000000000E+00  1.243819934E+03  1.243819934E+03  0.000000000E+00  0.00000E+00  9.000E+00
      21    -1     0     0   511   502  0.000000000E+00  0.000000000E+00 -1.175431220E+02  1.175431220E+02  0.000000000E+00  0.00000E+00  9.000E+00
      25     1     1     2     0     0 -1.046925904E+02  5.196034391E+01  1.103379862E+03  1.116571778E+03  1.250000000E+02  0.00000E+00  9.000E+00
      25     1     1     2     0     0  1.153725717E+02 -6.387098809E+01  7.025022982E+01  1.948086964E+02  1.250000000E+02  0.00000E+00  9.000E+00
      21     1     1     2   511   501 -1.067998130E+01  1.191064418E+01 -4.735327928E+01  4.998258200E+01  2.236564522E-06  0.00000E+00  9.000E+00
#rwgt            1           1   3.7350274729183210E-002           6      204323           0
</event>
<event>
      5   9999  3.79277E-02  4.55071E+01 -1.00000E+00  1.41449E-01
      21    -1     0     0   502   501  0.000000000E+00  0.000000000E+00  6.761517712E+01  6.761517712E+01  0.000000000E+00  0.00000E+00  9.000E+00
       2    -1     0     0   501     0  0.000000000E+00  0.000000000E+00 -9.604101248E+02  9.604101248E+02  0.000000000E+00  0.00000E+00  9.000E+00
      25     1     1     2     0     0 -1.032900225E+02 -1.806273019E+01 -1.026049091E+02  1.927377969E+02  1.250000000E+02  0.00000E+00  9.000E+00
      25     1     1     2     0     0  1.005812796E+02  6.348913759E+01 -3.257787222E+02  3.686519229E+02  1.250000000E+02  0.00000E+00  9.000E+00
       2     1     1     2   502     0  2.708742894E+00 -4.542640740E+01 -4.644113164E+02  4.666355822E+02  7.629394531E-06  0.00000E+00  9.000E+00
#rwgt            1           1   4.1769652177854492E-002           6      204566           0
</event>
<event>
      5   9999  3.79277E-02  7.02111E+01 -1.00000E+00  1.31154E-01
      21    -1     0     0   502   501  0.000000000E+00  0.000000000E+00  3.598030081E+02  3.598030081E+02  0.000000000E+00  0.00000E+00  9.000E+00
      21    -1     0     0   511   502  0.000000000E+00  0.000000000E+00 -5.566835878E+02  5.566835878E+02  0.000000000E+00  0.00000E+00  9.000E+00
      25     1     1     2     0     0  1.029707210E+02  3.300754237E+02 -2.579393656E+01  3.685689649E+02  1.250000000E+02  0.00000E+00  9.000E+00
      25     1     1     2     0     0 -7.324995275E+01 -2.664651064E+02  5.757307705E+01  3.087213431E+02  1.250000000E+02  0.00000E+00  9.000E+00
      21     1     1     2   511   501 -2.972076830E+01 -6.361031735E+01 -2.286597201E+02  2.391962879E+02  2.697398305E-06  0.00000E+00  9.000E+00
#rwgt            1           1   2.0843616753088656E-002           6      204708           0
</event>
<event>
      5   9999  3.79277E-02  2.82774E+01 -1.00000E+00  1.54845E-01
      21    -1     0     0   502   501  0.000000000E+00  0.000000000E+00  1.106629587E+02  1.106629587E+02  0.000000000E+00  0.00000E+00  9.000E+00
      21    -1     0     0   512   502  0.000000000E+00  0.000000000E+00 -7.993248686E+02  7.993248686E+02  0.000000000E+00  0.00000E+00  9.000E+00
      25     1     1     2     0     0  9.060067678E+01  1.765982824E+02 -2.670438500E+02  3.554333325E+02  1.250000000E+02  0.00000E+00  9.000E+00
      25     1     1     2     0     0 -1.188760280E+02 -1.769403750E+02 -1.667226440E+02  2.980953645E+02  1.250000000E+02  0.00000E+00  9.000E+00
      21     1     1     2   512   501  2.827535124E+01  3.420925153E-01 -2.548954158E+02  2.564591303E+02  2.697398305E-06  0.00000E+00  9.000E+00
#rwgt            1           1   3.0987944285025076E-002           6      204833           0
</event>
<event>
      5   9999  3.79277E-02  5.27048E+01 -1.00000E+00  1.37783E-01
      21    -1     0     0   502   501  0.000000000E+00  0.000000000E+00  1.826108535E+02  1.826108535E+02  0.000000000E+00  0.00000E+00  9.000E+00
       1    -1     0     0   501     0  0.000000000E+00  0.000000000E+00 -4.093857303E+02  4.093857303E+02  0.000000000E+00  0.00000E+00  9.000E+00
      25     1     1     2     0     0 -1.606182130E+02  2.291392150E+00  4.081378117E+01  2.075914872E+02  1.250000000E+02  0.00000E+00  9.000E+00
      25     1     1     2     0     0  1.316701065E+02 -4.633460629E+01 -1.078486808E+02  2.161949366E+02  1.250000000E+02  0.00000E+00  9.000E+00
       1     1     1     2   502     0  2.894810653E+01  4.404321414E+01 -1.597399772E+02  1.682101599E+02  0.000000000E+00  0.00000E+00  9.000E+00
#rwgt            1           1   3.7501609110217195E-002           6      204998           0
</event>
<event>
      5   9999  3.79277E-02  8.55388E+01 -1.00000E+00  1.26958E-01
      21    -1     0     0   511   501  0.000000000E+00  0.000000000E+00  1.017163653E+02  1.017163653E+02  0.000000000E+00  0.00000E+00  9.000E+00
      21    -1     0     0   501   502  0.000000000E+00  0.000000000E+00 -9.511214234E+02  9.511214234E+02  0.000000000E+00  0.00000E+00  9.000E+00
      25     1     1     2     0     0  1.559649304E+02  7.185588564E+01 -6.063160065E+02  6.424425481E+02  1.250000000E+02  0.00000E+00  9.000E+00
      25     1     1     2     0     0 -1.558665406E+02  1.368287666E+01 -2.547736526E+02  3.240620522E+02  1.250000000E+02  0.00000E+00  9.000E+00
      21     1     1     2   511   502 -9.838982025E-02 -8.553876231E+01  1.168460106E+01  8.633318852E+01  2.178629265E-06  0.00000E+00  9.000E+00
#rwgt            1           1   4.8964931565743976E-002           6      205099           0
</event>
<event>
      5   9999  3.79277E-02  8.38394E+01 -1.00000E+00  1.27372E-01
      21    -1     0     0   502   512  0.000000000E+00  0.000000000E+00  4.466167584E+02  4.466167584E+02  0.000000000E+00  0.00000E+00  9.000E+00
      21    -1     0     0   501   502  0.000000000E+00  0.000000000E+00 -2.769525494E+02  2.769525494E+02  0.000000000E+00  0.00000E+00  9.000E+00
      25     1     1     2     0     0 -1.561183236E+02  1.240773267E+02 -1.572522631E+02  2.830572172E+02  1.250000000E+02  0.00000E+00  9.000E+00
      25     1     1     2     0     0  9.235866797E+01 -6.963691257E+01  9.746661089E+01  1.962247777E+02  1.250000000E+02  0.00000E+00  9.000E+00
      21     1     1     2   501   512  6.375965566E+01 -5.444041408E+01  2.294498613E+02  2.442873129E+02  0.000000000E+00  0.00000E+00  9.000E+00
#rwgt            1           1   3.8147706764298690E-002           6      205224           0
</event>
<event>
      5   9999 -3.79277E-02  6.98756E+00 -1.00000E+00  2.15663E-01
       1    -1     0     0   502     0  0.000000000E+00  0.000000000E+00  2.481271738E+03  2.481271738E+03  0.000000000E+00  0.00000E+00  9.000E+00
      21    -1     0     0   501   502  0.000000000E+00  0.000000000E+00 -2.268492466E+02  2.268492466E+02  0.000000000E+00  0.00000E+00  9.000E+00
      25     1     1     2     0     0 -1.459207020E+02 -1.617273213E+02 -1.877472008E+01  2.518453252E+02  1.250000000E+02  0.00000E+00  9.000E+00
      25     1     1     2     0     0  1.460177726E+02  1.547404361E+02  7.477341354E+01  2.578407568E+02  1.250000000E+02  0.00000E+00  9.000E+00
       1     1     1     2   501     0 -9.707060071E-02  6.986885204E+00  2.198423798E+03  2.198434903E+03  4.315837288E-05  0.00000E+00  9.000E+00
#rwgt            1           1  -6.5619905730886108E-002           6      205304           0
</event>
<event>
      5   9999  3.79277E-02  4.67924E+01 -1.00000E+00  1.40739E-01
      21    -1     0     0   502   511  0.000000000E+00  0.000000000E+00  4.697102468E+02  4.697102468E+02  0.000000000E+00  0.00000E+00  9.000E+00
      21    -1     0     0   501   502  0.000000000E+00  0.000000000E+00 -1.052129187E+02  1.052129187E+02  0.000000000E+00  0.00000E+00  9.000E+00
      25     1     1     2     0     0 -2.002691140E-01 -1.100810548E+02  7.241331833E+00  1.667192719E+02  1.250000000E+02  0.00000E+00  9.000E+00
      25     1     1     2     0     0 -1.337344727E+01  6.530069734E+01  2.070169213E+02  2.508466381E+02  1.250000000E+02  0.00000E+00  9.000E+00
      21     1     1     2   501   511  1.357371639E+01  4.478035742E+01  1.502390751E+02  1.573572555E+02  0.000000000E+00  0.00000E+00  9.000E+00
#rwgt            1           1   4.0506828714677284E-002           6      205783           0
</event>
<event>
      5   9999  3.79277E-02  5.66760E+01 -1.00000E+00  1.36040E-01
      21    -1     0     0   502   501  0.000000000E+00  0.000000000E+00  4.638732283E+01  4.638732283E+01  0.000000000E+00  0.00000E+00  9.000E+00
      -1    -1     0     0     0   502  0.000000000E+00  0.000000000E+00 -1.230717555E+03  1.230717555E+03  0.000000000E+00  0.00000E+00  9.000E+00
      25     1     1     2     0     0  8.815803492E+01 -4.846907452E+01 -8.333572535E+02  8.486638924E+02  1.250000000E+02  0.00000E+00  9.000E+00
      25     1     1     2     0     0 -1.096366628E+02 -3.979363048E+00 -3.270761715E+02  3.669330390E+02  1.250000000E+02  0.00000E+00  9.000E+00
      -1     1     1     2     0   501  2.147862788E+01  5.244843756E+01 -2.389680690E+01  6.150794614E+01  1.118282261E-06  0.00000E+00  9.000E+00
#rwgt            1           1   2.5449670436571242E-002           6      205856           0
</event>
<event>
      5   9999  3.79277E-02  4.21344E+01 -1.00000E+00  1.43454E-01
      21    -1     0     0   511   501  0.000000000E+00  0.000000000E+00  2.020552352E+03  2.020552352E+03  0.000000000E+00  0.00000E+00  9.000E+00
      21    -1     0     0   501   502  0.000000000E+00  0.000000000E+00 -3.264300272E+02  3.264300272E+02  0.000000000E+00  0.00000E+00  9.000E+00
      25     1     1     2     0     0  1.636650811E+02 -6.645918654E+01  7.433168770E+01  2.288083959E+02  1.250000000E+02  0.00000E+00  9.000E+00
      25     1     1     2     0     0 -1.631561223E+02  1.085905228E+02 -1.946817367E+02  3.032124675E+02  1.250000000E+02  0.00000E+00  9.000E+00
      21     1     1     2   511   502 -5.089588220E-01 -4.213133627E+01  1.814472374E+03  1.814961516E+03  2.157918644E-05  0.00000E+00  9.000E+00
#rwgt            1           1   3.8260440422198054E-002           6      205911           0
</event>
<event>
      5   9999  3.79277E-02  1.18669E+01 -1.00000E+00  1.87539E-01
      21    -1     0     0   502   501  0.000000000E+00  0.000000000E+00  1.701968929E+02  1.701968929E+02  0.000000000E+00  0.00000E+00  9.000E+00
      21    -1     0     0   512   502  0.000000000E+00  0.000000000E+00 -3.428058576E+02  3.428058576E+02  0.000000000E+00  0.00000E+00  9.000E+00
      25     1     1     2     0     0  1.582709092E+02  4.249297562E+01 -1.608743874E+02  2.614591788E+02  1.250000000E+02  0.00000E+00  9.000E+00
      25     1     1     2     0     0 -1.467927844E+02 -3.948028872E+01  3.797744314E+01  2.004347797E+02  1.250000000E+02  0.00000E+00  9.000E+00
      21     1     1     2   512   501 -1.147812486E+01 -3.012686904E+00 -4.971202047E+01  5.110879193E+01  6.743495762E-07  0.00000E+00  9.000E+00
#rwgt            1           1   3.2342616156477468E-002           6      205981           0
</event>
<event>
      5   9999  3.79277E-02  7.09445E+01 -1.00000E+00  1.30927E-01
      21    -1     0     0   502   501  0.000000000E+00  0.000000000E+00  5.538253422E+02  5.538253422E+02  0.000000000E+00  0.00000E+00  9.000E+00
      21    -1     0     0   511   502  0.000000000E+00  0.000000000E+00 -1.083657702E+02  1.083657702E+02  0.000000000E+00  0.00000E+00  9.000E+00
      25     1     1     2     0     0  7.659976173E+01 -3.375739518E+01  4.357401478E+02  4.609789167E+02  1.250000000E+02  0.00000E+00  9.000E+00
      25     1     1     2     0     0 -6.695538703E+00  2.165303149E+01  2.281124970E+01  1.290698924E+02  1.250000000E+02  0.00000E+00  9.000E+00
      21     1     1     2   511   501 -6.990422303E+01  1.210436369E+01 -1.309182552E+01  7.214230321E+01  4.129530925E-07  0.00000E+00  9.000E+00
#rwgt            1           1   3.9022451316322357E-002           6      206249           0
</event>
<event>
      5   9999  3.79277E-02  1.23722E+02 -1.00000E+00  1.19808E-01
       2    -1     0     0   502     0  0.000000000E+00  0.000000000E+00  5.570290352E+02  5.570290352E+02  0.000000000E+00  0.00000E+00  9.000E+00
      21    -1     0     0   501   502  0.000000000E+00  0.000000000E+00 -3.527164952E+02  3.527164952E+02  0.000000000E+00  0.00000E+00  9.000E+00
      25     1     1     2     0     0  1.405451957E+02 -3.523479496E+01 -2.405368923E+01  1.928678895E+02  1.250000000E+02  0.00000E+00  9.000E+00
      25     1     1     2     0     0 -2.416798578E+01 -6.759384736E+00 -2.186225947E+02  2.530822391E+02  1.250000000E+02  0.00000E+00  9.000E+00
       2     1     1     2   501     0 -1.163772100E+02  4.199417970E+01  4.469888239E+02  4.637954019E+02  7.629394531E-06  0.00000E+00  9.000E+00
#rwgt            1           1   4.3247639655972184E-002           6      206334           0
</event>
<event>
      5   9999  3.79277E-02  3.88204E+01 -1.00000E+00  1.45651E-01
      21    -1     0     0   502   501  0.000000000E+00  0.000000000E+00  4.541994223E+02  4.541994223E+02  0.000000000E+00  0.00000E+00  9.000E+00
      21    -1     0     0   511   502  0.000000000E+00  0.000000000E+00 -8.384518391E+01  8.384518391E+01  0.000000000E+00  0.00000E+00  9.000E+00
      25     1     1     2     0     0 -9.528108762E+01  4.284786757E+01  6.227219381E+01  1.744054229E+02  1.250000000E+02  0.00000E+00  9.000E+00
      25     1     1     2     0     0  5.773837097E+01 -5.272556403E+01  2.774340291E+02  3.141788425E+02  1.250000000E+02  0.00000E+00  9.000E+00
      21     1     1     2   511   501  3.754271664E+01  9.877696455E+00  3.064801551E+01  4.946034083E+01  8.920806376E-07  0.00000E+00  9.000E+00
#rwgt            1           1   2.4465079131331436E-002           6      206496           0
</event>
<event>
      5   9999  3.79277E-02  2.66353E+02 -1.00000E+00  1.07298E-01
      21    -1     0     0   502   501  0.000000000E+00  0.000000000E+00  1.319935124E+02  1.319935124E+02  0.000000000E+00  0.00000E+00  9.000E+00
      21    -1     0     0   501   512  0.000000000E+00  0.000000000E+00 -2.293140323E+03  2.293140323E+03  0.000000000E+00  0.00000E+00  9.000E+00
      25     1     1     2     0     0  2.434700705E+02  7.222086292E+01 -3.823142507E+02  4.756918273E+02  1.250000000E+02  0.00000E+00  9.000E+00
      25     1     1     2     0     0  1.866746259E+01 -1.194221089E+02 -2.520236726E+01  1.756993841E+02  1.250000000E+02  0.00000E+00  9.000E+00
      21     1     1     2   502   512 -2.621375330E+02  4.720124597E+01 -1.753630193E+03  1.773742624E+03  3.051757812E-05  0.00000E+00  9.000E+00
#rwgt            1           1   4.1913963537548594E-002           6      206793           0
</event>
<event>
      5   9999  3.79277E-02  6.29230E+01 -1.00000E+00  1.33609E-01
      21    -1     0     0   502   501  0.000000000E+00  0.000000000E+00  6.888477677E+02  6.888477677E+02  0.000000000E+00  0.00000E+00  9.000E+00
      21    -1     0     0   501   511  0.000000000E+00  0.000000000E+00 -8.784394814E+01  8.784394814E+01  0.000000000E+00  0.00000E+00  9.000E+00
      25     1     1     2     0     0 -1.057787029E+02 -7.714915570E+01  2.595245099E+02  3.164160195E+02  1.250000000E+02  0.00000E+00  9.000E+00
      25     1     1     2     0     0  1.501544328E+02  1.217597421E+02  3.191370339E+02  3.935037927E+02  1.250000000E+02  0.00000E+00  9.000E+00
      21     1     1     2   502   511 -4.437572991E+01 -4.461058636E+01  2.234227579E+01  6.677190358E+01  3.371747881E-07  0.00000E+00  9.000E+00
#rwgt            1           1   1.7834646576725021E-002           6      206980           0
</event>
<event>
      5   9999  3.79277E-02  5.56269E+01 -1.00000E+00  1.36484E-01
      21    -1     0     0   502   512  0.000000000E+00  0.000000000E+00  7.290417606E+02  7.290417606E+02  0.000000000E+00  0.00000E+00  9.000E+00
      21    -1     0     0   501   502  0.000000000E+00  0.000000000E+00 -1.257335612E+02  1.257335612E+02  0.000000000E+00  0.00000E+00  9.000E+00
      25     1     1     2     0     0  1.812640969E+02 -1.164081307E+02  2.922072865E+02  3.839500280E+02  1.250000000E+02  0.00000E+00  9.000E+00
      25     1     1     2     0     0 -1.291239892E+02  9.702365926E+01  5.889317585E+01  2.125558778E+02  1.250000000E+02  0.00000E+00  9.000E+00
      21     1     1     2   501   512 -5.214010774E+01  1.938447142E+01  2.522077371E+02  2.582694159E+02  2.697398305E-06  0.00000E+00  9.000E+00
#rwgt            1           1   3.7240364949873928E-002           6      207060           0
</event>
<event>
      5   9999  3.79277E-02  4.79061E+01 -1.00000E+00  1.40144E-01
      21    -1     0     0   502   511  0.000000000E+00  0.000000000E+00  1.914408895E+02  1.914408895E+02  0.000000000E+00  0.00000E+00  9.000E+00
      21    -1     0     0   501   502  0.000000000E+00  0.000000000E+00 -5.098483030E+02  5.098483030E+02  0.000000000E+00  0.00000E+00  9.000E+00
      25     1     1     2     0     0 -2.246997234E+00 -1.229781024E+02 -6.071209772E+01  1.855791515E+02  1.250000000E+02  0.00000E+00  9.000E+00
      25     1     1     2     0     0 -1.009298528E+01  7.668858841E+01 -3.675550569E+02  3.958594799E+02  1.250000000E+02  0.00000E+00  9.000E+00
      21     1     1     2   501   511  1.233998252E+01  4.628951400E+01  1.098597411E+02  1.198505611E+02  1.907348633E-06  0.00000E+00  9.000E+00
#rwgt            1           1   3.4300913055964055E-002           6      207168           0
</event>
<event>
      5   9999  3.79277E-02  1.43484E+01 -1.00000E+00  1.79220E-01
      21    -1     0     0   502   512  0.000000000E+00  0.000000000E+00  3.761306125E+02  3.761306125E+02  0.000000000E+00  0.00000E+00  9.000E+00
      21    -1     0     0   501   502  0.000000000E+00  0.000000000E+00 -6.176790980E+02  6.176790980E+02  0.000000000E+00  0.00000E+00  9.000E+00
      25     1     1     2     0     0  7.088299680E+01  5.846407166E+01 -5.161582057E+02  5.389682181E+02  1.250000000E+02  0.00000E+00  9.000E+00
      25     1     1     2     0     0 -8.139367667E+01 -4.869660175E+01 -2.150572898E+01  1.583786160E+02  1.250000000E+02  0.00000E+00  9.000E+00
      21     1     1     2   501   512  1.051067988E+01 -9.767469912E+00  2.961154491E+02  2.964628763E+02  3.814697266E-06  0.00000E+00  9.000E+00
#rwgt            1           1   5.4345472721882261E-002           6      207307           0
</event>
<event>
      5   9999  3.79277E-02  8.54473E+01 -1.00000E+00  1.26980E-01
      21    -1     0     0   502   501  0.000000000E+00  0.000000000E+00  1.767107929E+02  1.767107929E+02  0.000000000E+00  0.00000E+00  9.000E+00
      -3    -1     0     0     0   502  0.000000000E+00  0.000000000E+00 -6.011178388E+02  6.011178388E+02  0.000000000E+00  0.00000E+00  9.000E+00
      25     1     1     2     0     0  1.779681656E+02  4.138238331E+01 -3.374650451E+01  2.239397155E+02  1.250000000E+02  0.00000E+00  9.000E+00
      25     1     1     2     0     0 -9.987763440E+01 -7.606813715E+01 -2.565038665E+01  1.790107418E+02  1.250000000E+02  0.00000E+00  9.000E+00
      -3     1     1     2     0   501 -7.809053119E+01  3.468575385E+01 -3.650101548E+02  3.748781744E+02  0.000000000E+00  0.00000E+00  9.000E+00
#rwgt            1           1   4.4525084867334738E-002           6      207520           0
</event>
<event>
      5   9999  3.79277E-02  1.80035E+01 -1.00000E+00  1.70228E-01
      21    -1     0     0   502   511  0.000000000E+00  0.000000000E+00  3.632298005E+02  3.632298005E+02  0.000000000E+00  0.00000E+00  9.000E+00
      21    -1     0     0   501   502  0.000000000E+00  0.000000000E+00 -3.468991749E+02  3.468991749E+02  0.000000000E+00  0.00000E+00  9.000E+00
      25     1     1     2     0     0 -7.762515183E+01  1.682466047E+02  1.237674060E+02  2.554915947E+02  1.250000000E+02  0.00000E+00  9.000E+00
      25     1     1     2     0     0  6.642503814E+01 -1.541511539E+02 -2.413884809E+02  3.194812399E+02  1.250000000E+02  0.00000E+00  9.000E+00
      21     1     1     2   501   511  1.120011369E+01 -1.409545082E+01  1.339517006E+02  1.351561407E+02  0.000000000E+00  0.00000E+00  9.000E+00
#rwgt            1           1   3.1199086683054419E-002           6      207608           0
</event>
<event>
      5   9999  3.79277E-02  2.39948E+02 -1.00000E+00  1.08843E-01
      21    -1     0     0   502   501  0.000000000E+00  0.000000000E+00  4.215271356E+02  4.215271356E+02  0.000000000E+00  0.00000E+00  9.000E+00
      21    -1     0     0   501   512  0.000000000E+00  0.000000000E+00 -3.080142045E+02  3.080142045E+02  0.000000000E+00  0.00000E+00  9.000E+00
      25     1     1     2     0     0 -6.213982037E+01  7.855612044E+01 -3.622474717E+01  1.642244003E+02  1.250000000E+02  0.00000E+00  9.000E+00
      25     1     1     2     0     0 -1.637791875E+02 -1.593980654E+02  1.894586268E+02  3.221039223E+02  1.250000000E+02  0.00000E+00  9.000E+00
      21     1     1     2   502   512  2.259190078E+02  8.084194495E+01 -3.972094850E+01  2.432130176E+02  1.261592536E-06  0.00000E+00  9.000E+00
#rwgt            1           1   3.7140159247478377E-002           6      207781           0
</event>
<event>
      5   9999  3.79277E-02  1.69846E+01 -1.00000E+00  1.72446E-01
      21    -1     0     0   502   501  0.000000000E+00  0.000000000E+00  3.512745828E+02  3.512745828E+02  0.000000000E+00  0.00000E+00  9.000E+00
      21    -1     0     0   511   502  0.000000000E+00  0.000000000E+00 -2.845166381E+02  2.845166381E+02  0.000000000E+00  0.00000E+00  9.000E+00
      25     1     1     2     0     0  1.895309981E+02  8.955478739E+01  1.151348738E+02  2.698575519E+02  1.250000000E+02  0.00000E+00  9.000E+00
      25     1     1     2     0     0 -1.849830563E+02 -7.319039485E+01  7.093195621E+01  2.454218968E+02  1.250000000E+02  0.00000E+00  9.000E+00
      21     1     1     2   511   501 -4.547941782E+00 -1.636439255E+01 -1.193088853E+02  1.205117722E+02  1.907348633E-06  0.00000E+00  9.000E+00
#rwgt            1           1   3.3657452042427080E-002           6      207849           0
</event>
<event>
      5   9999  3.79277E-02  5.44456E+01 -1.00000E+00  1.36997E-01
      21    -1     0     0   502   501  0.000000000E+00  0.000000000E+00  3.079288081E+02  3.079288081E+02  0.000000000E+00  0.00000E+00  9.000E+00
      21    -1     0     0   512   502  0.000000000E+00  0.000000000E+00 -2.055075191E+02  2.055075191E+02  0.000000000E+00  0.00000E+00  9.000E+00
      25     1     1     2     0     0  3.495710625E+01  9.063380384E+00  2.425808285E+02  2.752718701E+02  1.250000000E+02  0.00000E+00  9.000E+00
      25     1     1     2     0     0 -1.707958701E+01  4.236339051E+01 -7.328032674E+01  1.519255589E+02  1.250000000E+02  0.00000E+00  9.000E+00
      21     1     1     2   512   501 -1.787751925E+01 -5.142677089E+01 -6.687921272E+01  8.623889814E+01  1.348699152E-06  0.00000E+00  9.000E+00
#rwgt            1           1   3.1057213498449646E-002           6      208105           0
</event>
<event>
      5   9999  3.79277E-02  1.37373E+02 -1.00000E+00  1.17928E-01
      21    -1     0     0   502   501  0.000000000E+00  0.000000000E+00  8.713056086E+02  8.713056086E+02  0.000000000E+00  0.00000E+00  9.000E+00
       2    -1     0     0   501     0  0.000000000E+00  0.000000000E+00 -2.123693617E+02  2.123693617E+02  0.000000000E+00  0.00000E+00  9.000E+00
      25     1     1     2     0     0 -1.961957749E+01 -1.995255749E+02  3.320843671E+02  4.075541801E+02  1.250000000E+02  0.00000E+00  9.000E+00
      25     1     1     2     0     0 -7.366489170E+01  9.868238467E+01  4.553671495E+02  4.880050924E+02  1.250000000E+02  0.00000E+00  9.000E+00
       2     1     1     2   502     0  9.328446920E+01  1.008431902E+02 -1.285152697E+02  1.881156978E+02  3.303624740E-06  0.00000E+00  9.000E+00
#rwgt            1           1   3.9669315482964949E-002           6      208215           0
</event>
<event>
      5   9999  3.79277E-02  1.25272E+02 -1.00000E+00  1.19581E-01
      21    -1     0     0   502   501  0.000000000E+00  0.000000000E+00  6.435756831E+02  6.435756831E+02  0.000000000E+00  0.00000E+00  9.000E+00
      -4    -1     0     0     0   502  0.000000000E+00  0.000000000E+00 -2.423868746E+02  2.423868746E+02  0.000000000E+00  0.00000E+00  9.000E+00
      25     1     1     2     0     0 -1.308774790E+02  6.960916237E+01  5.202511800E+02  5.552122480E+02  1.250000000E+02  0.00000E+00  9.000E+00
      25     1     1     2     0     0  3.607486953E+01  1.227796036E+01  3.196311360E+01  1.345317255E+02  1.250000000E+02  0.00000E+00  9.000E+00
      -4     1     1     2     0   501  9.480260952E+01 -8.188712273E+01 -1.510254852E+02  1.962185843E+02  1.907348633E-06  0.00000E+00  9.000E+00
#rwgt            1           1   3.4364678474906242E-002           6      208357           0
</event>
<event>
      5   9999  3.79277E-02  1.00758E+02 -1.00000E+00  1.23681E-01
      21    -1     0     0   511   501  0.000000000E+00  0.000000000E+00  8.100137712E+02  8.100137712E+02  0.000000000E+00  0.00000E+00  9.000E+00
      21    -1     0     0   501   502  0.000000000E+00  0.000000000E+00 -1.421040205E+02  1.421040205E+02  0.000000000E+00  0.00000E+00  9.000E+00
      25     1     1     2     0     0 -3.947482059E+01 -2.035069684E+02  1.752294874E+02  2.988372817E+02  1.250000000E+02  0.00000E+00  9.000E+00
      25     1     1     2     0     0  1.228055562E+02  2.601469307E+02  2.911276031E+02  4.279461549E+02  1.250000000E+02  0.00000E+00  9.000E+00
      21     1     1     2   511   502 -8.333073562E+01 -5.663996221E+01  2.015526602E+02  2.253343552E+02  0.000000000E+00  0.00000E+00  9.000E+00
#rwgt            1           1   3.5046681414141592E-002           6      208488           0
</event>
<event>
      5   9999  3.79277E-02  2.01717E+02 -1.00000E+00  1.11513E-01
      21    -1     0     0   502   501  0.000000000E+00  0.000000000E+00  4.199480390E+02  4.199480390E+02  0.000000000E+00  0.00000E+00  9.000E+00
      21    -1     0     0   512   502  0.000000000E+00  0.000000000E+00 -6.482635373E+02  6.482635373E+02  0.000000000E+00  0.00000E+00  9.000E+00
      25     1     1     2     0     0  3.679617543E+02 -1.394291004E+02 -1.876435518E+02  4.535101203E+02  1.250000000E+02  0.00000E+00  9.000E+00
      25     1     1     2     0     0 -2.203212660E+02  2.768774479E+02  7.424945112E+01  3.825448502E+02  1.250000000E+02  0.00000E+00  9.000E+00
      21     1     1     2   512   501 -1.476404883E+02 -1.374483475E+02 -1.149213976E+02  2.321566059E+02  4.264961200E-06  0.00000E+00  9.000E+00
#rwgt            1           1   4.3515621488937423E-002           6      208705           0
</event>
<event>
      5   9999  3.79277E-02  1.03880E+01 -1.00000E+00  1.93865E-01
      21    -1     0     0   511   501  0.000000000E+00  0.000000000E+00  1.412119858E+02  1.412119858E+02  0.000000000E+00  0.00000E+00  9.000E+00
      21    -1     0     0   501   502  0.000000000E+00  0.000000000E+00 -1.034860157E+03  1.034860157E+03  0.000000000E+00  0.00000E+00  9.000E+00
      25     1     1     2     0     0  1.435642069E+02 -6.515095282E+01 -4.957236880E+02  5.349974794E+02  1.250000000E+02  0.00000E+00  9.000E+00
      25     1     1     2     0     0 -1.444628147E+02  7.550003006E+01 -4.989172492E+02  5.395490533E+02  1.250000000E+02  0.00000E+00  9.000E+00
      21     1     1     2   511   502  8.986077656E-01 -1.034907724E+01  1.009927656E+02  1.015256105E+02  1.348699152E-06  0.00000E+00  9.000E+00
#rwgt            1           1   3.6853632976001215E-002           6      208790           0
</event>
<event>
      5   9999  3.79277E-02  2.02839E+01 -1.00000E+00  1.65866E-01
      21    -1     0     0   502   501  0.000000000E+00  0.000000000E+00  9.819164274E+01  9.819164274E+01  0.000000000E+00  0.00000E+00  9.000E+00
      21    -1     0     0   501   512  0.000000000E+00  0.000000000E+00 -1.594311207E+03  1.594311207E+03  0.000000000E+00  0.00000E+00  9.000E+00
      25     1     1     2     0     0 -1.897716133E+01  3.247811783E+02 -5.331333414E+02  6.369451359E+02  1.250000000E+02  0.00000E+00  9.000E+00
      25     1     1     2     0     0 -1.119175287E+00 -3.275333318E+02 -6.222039739E+02  7.141723329E+02  1.250000000E+02  0.00000E+00  9.000E+00
      21     1     1     2   502   512  2.009633662E+01  2.752153526E+00 -3.407822491E+02  3.413853811E+02  3.814697266E-06  0.00000E+00  9.000E+00
#rwgt            1           1   2.7477819877487882E-002           6      208968           0
</event>
<event>
      5   9999  3.79277E-02  3.01430E+01 -1.00000E+00  1.52897E-01
      21    -1     0     0   502   511  0.000000000E+00  0.000000000E+00  9.404293856E+01  9.404293856E+01  0.000000000E+00  0.00000E+00  9.000E+00
      21    -1     0     0   501   502  0.000000000E+00  0.000000000E+00 -1.783061290E+03  1.783061290E+03  0.000000000E+00  0.00000E+00  9.000E+00
      25     1     1     2     0     0  8.075320710E+01 -4.871738167E+00  1.302471146E+01  1.494639000E+02  1.250000000E+02  0.00000E+00  9.000E+00
      25     1     1     2     0     0 -8.598715517E+01  3.455687482E+01 -1.686616267E+03  1.693779030E+03  1.250000000E+02  0.00000E+00  9.000E+00
      21     1     1     2   501   511  5.233948070E+00 -2.968513666E+01 -1.542679596E+01  3.386129921E+01  2.920019320E-07  0.00000E+00  9.000E+00
#rwgt            1           1   5.0804869167066682E-002           6      209318           0
</event>
<event>
      5   9999  3.79277E-02  1.10572E+01 -1.00000E+00  1.90844E-01
      21    -1     0     0   502   512  0.000000000E+00  0.000000000E+00  1.810432068E+03  1.810432068E+03  0.000000000E+00  0.00000E+00  9.000E+00
      21    -1     0     0   501   502  0.000000000E+00  0.000000000E+00 -2.521468190E+01  2.521468190E+01  0.000000000E+00  0.00000E+00  9.000E+00
      25     1     1     2     0     0 -3.908173569E+01  1.322191763E+02  1.260814355E+03  1.274475237E+03  1.250000000E+02  0.00000E+00  9.000E+00
      25     1     1     2     0     0  2.828778306E+01 -1.298208831E+02  4.440537457E+02  4.800649846E+02  1.250000000E+02  0.00000E+00  9.000E+00
      21     1     1     2   501   512  1.079395263E+01 -2.398293133E+00  8.034928527E+01  8.110652789E+01  1.348699152E-06  0.00000E+00  9.000E+00
#rwgt            1           1   3.8784182784290779E-002           6      209535           0
</event>
<event>
      5   9999  3.79277E-02  1.70872E+02 -1.00000E+00  1.14195E-01
      21    -1     0     0   502   501  0.000000000E+00  0.000000000E+00  1.450324723E+02  1.450324723E+02  0.000000000E+00  0.00000E+00  9.000E+00
       2    -1     0     0   501     0  0.000000000E+00  0.000000000E+00 -2.949855182E+03  2.949855182E+03  0.000000000E+00  0.00000E+00  9.000E+00
      25     1     1     2     0     0 -1.947986532E+02  1.034519391E+02 -1.431207219E+02  2.911311732E+02  1.250000000E+02  0.00000E+00  9.000E+00
      25     1     1     2     0     0  3.010225724E+02  3.038959951E+01 -3.266248434E+02  4.624358390E+02  1.250000000E+02  0.00000E+00  9.000E+00
       2     1     1     2   502     0 -1.062239192E+02 -1.338415386E+02 -2.335077144E+03  2.341320642E+03  4.315837288E-05  0.00000E+00  9.000E+00
#rwgt            2          13   1.6024298281298666E-003           6      209829           0
</event>
<event>
      5   9999  3.79277E-02  2.10031E+01 -1.00000E+00  1.64634E-01
      21    -1     0     0   502   501  0.000000000E+00  0.000000000E+00  6.122975012E+01  6.122975012E+01  0.000000000E+00  0.00000E+00  9.000E+00
      21    -1     0     0   511   502  0.000000000E+00  0.000000000E+00 -1.617619282E+03  1.617619282E+03  0.000000000E+00  0.00000E+00  9.000E+00
      25     1     1     2     0     0  2.497786187E+02  7.915741057E+01 -8.184624057E+02  8.684244144E+02  1.250000000E+02  0.00000E+00  9.000E+00
      25     1     1     2     0     0 -2.288802643E+02 -7.706253433E+01 -4.802790799E+02  5.519219185E+02  1.250000000E+02  0.00000E+00  9.000E+00
      21     1     1     2   511   501 -2.089835440E+01 -2.094876240E+00 -2.576480465E+02  2.585026994E+02  5.394796609E-06  0.00000E+00  9.000E+00
#rwgt            1           1   9.2645281895722506E-002           6      209863           0
</event>
<event>
      5   9999  3.79277E-02  1.89069E+01 -1.00000E+00  1.68409E-01
      21    -1     0     0   502   501  0.000000000E+00  0.000000000E+00  3.145130497E+02  3.145130497E+02  0.000000000E+00  0.00000E+00  9.000E+00
      21    -1     0     0   501   512  0.000000000E+00  0.000000000E+00 -1.080384383E+02  1.080384383E+02  0.000000000E+00  0.00000E+00  9.000E+00
      25     1     1     2     0     0 -4.329675848E+01  8.618263905E+01  1.793793800E+02  2.389644713E+02  1.250000000E+02  0.00000E+00  9.000E+00
      25     1     1     2     0     0  4.506547067E+01 -6.735863153E+01  4.692418153E+01  1.561888623E+02  1.250000000E+02  0.00000E+00  9.000E+00
      21     1     1     2   502   512 -1.768712192E+00 -1.882400752E+01 -1.982895013E+01  2.739815441E+01  3.371747881E-07  0.00000E+00  9.000E+00
#rwgt            1           1   3.4599018063350542E-002           6      209995           0
</event>
<event>
      5   9999 -3.79277E-02  5.51541E+01 -1.00000E+00  1.36687E-01
      21    -1     0     0   511   501  0.000000000E+00  0.000000000E+00  3.021340859E+02  3.021340859E+02  0.000000000E+00  0.00000E+00  9.000E+00
      21    -1     0     0   501   502  0.000000000E+00  0.000000000E+00 -6.389994360E+02  6.389994360E+02  0.000000000E+00  0.00000E+00  9.000E+00
      25     1     1     2     0     0  9.286059306E+01  3.604979809E+02 -2.496503731E+01  3.934846085E+02  1.250000000E+02  0.00000E+00  9.000E+00
      25     1     1     2     0     0 -1.448505565E+02 -3.420854949E+02 -2.929314063E+02  4.893240014E+02  1.250000000E+02  0.00000E+00  9.000E+00
      21     1     1     2   511   502  5.198996347E+01 -1.841248603E+01 -1.896890657E+01  5.832491200E+01  9.536743164E-07  0.00000E+00  9.000E+00
#rwgt            1           1  -1.0667552953591551E-002           6      210206           0
</event>
<event>
      5   9999  3.79277E-02  1.71975E+02 -1.00000E+00  1.14088E-01
      21    -1     0     0   512   501  0.000000000E+00  0.000000000E+00  1.365307416E+02  1.365307416E+02  0.000000000E+00  0.00000E+00  9.000E+00
      21    -1     0     0   501   502  0.000000000E+00  0.000000000E+00 -1.973739864E+03  1.973739864E+03  0.000000000E+00  0.00000E+00  9.000E+00
      25     1     1     2     0     0  1.377287656E+02  2.668722839E+02 -3.973202316E+02  5.134962466E+02  1.250000000E+02  0.00000E+00  9.000E+00
      25     1     1     2     0     0 -3.092745320E+02 -2.547343485E+02 -1.325163820E+03  1.390044774E+03  1.250000000E+02  0.00000E+00  9.000E+00
      21     1     1     2   512   502  1.715457664E+02 -1.213793535E+01 -1.147250712E+02  2.067295852E+02  2.336015456E-06  0.00000E+00  9.000E+00
#rwgt            1           1   4.4007513182661051E-002           6      210299           0
</event>
<event>
      5   9999  3.79277E-02  4.48663E+01 -1.00000E+00  1.41814E-01
      21    -1     0     0   502   501  0.000000000E+00  0.000000000E+00  3.726878915E+02  3.726878915E+02  0.000000000E+00  0.00000E+00  9.000E+00
      21    -1     0     0   501   511  0.000000000E+00  0.000000000E+00 -1.894641166E+02  1.894641166E+02  0.000000000E+00  0.00000E+00  9.000E+00
      25     1     1     2     0     0  1.969724533E+02  4.891491278E+00  1.967092222E+02  3.051910749E+02  1.250000000E+02  0.00000E+00  9.000E+00
      25     1     1     2     0     0 -1.543218404E+02  9.033813743E+00  2.164694759E+01  1.999760749E+02  1.250000000E+02  0.00000E+00  9.000E+00
      21     1     1     2   502   511 -4.265061296E+01 -1.392530502E+01 -3.513239499E+01  5.698485837E+01  9.536743164E-07  0.00000E+00  9.000E+00
#rwgt            1           1   3.4489918077648667E-002           6      210394           0
</event>
<event>
      5   9999  3.79277E-02  6.91972E+01 -1.00000E+00  1.31475E-01
      21    -1     0     0   502   512  0.000000000E+00  0.000000000E+00  1.296184141E+03  1.296184141E+03  0.000000000E+00  0.00000E+00  9.000E+00
      21    -1     0     0   501   502  0.000000000E+00  0.000000000E+00 -1.127373162E+02  1.127373162E+02  0.000000000E+00  0.00000E+00  9.000E+00
      25     1     1     2     0     0  6.735690890E+01 -8.196289892E+00 -4.785332780E+01  1.500635643E+02  1.250000000E+02  0.00000E+00  9.000E+00
      25     1     1     2     0     0 -1.365469047E+02  9.192420819E+00  7.476379031E+02  7.702707264E+02  1.250000000E+02  0.00000E+00  9.000E+00
      21     1     1     2   501   512  6.918999579E+01 -9.961309267E-01  4.836622496E+02  4.885871668E+02  7.629394531E-06  0.00000E+00  9.000E+00
#rwgt            1           1   3.0686916368116320E-002           6      210502           0
</event>
<event>
      5   9999  3.79277E-02  2.84198E+01 -1.00000E+00  1.54690E-01
      21    -1     0     0   511   501  0.000000000E+00  0.000000000E+00  4.084246003E+02  4.084246003E+02  0.000000000E+00  0.00000E+00  9.000E+00
      21    -1     0     0   501   502  0.000000000E+00  0.000000000E+00 -1.747552898E+02  1.747552898E+02  0.000000000E+00  0.00000E+00  9.000E+00
      25     1     1     2     0     0  1.405936737E+02  1.375934383E+02  1.266234711E+01  2.334178022E+02  1.250000000E+02  0.00000E+00  9.000E+00
      25     1     1     2     0     0 -1.207206389E+02 -1.579095927E+02  1.650799196E+02  2.870283819E+02  1.250000000E+02  0.00000E+00  9.000E+00
      21     1     1     2   511   502 -1.987303482E+01  2.031615442E+01  5.592704378E+01  6.273370600E+01  0.000000000E+00  0.00000E+00  9.000E+00
#rwgt            1           1   7.9584089266229868E-003           6      210742           0
</event>
<event>
      5   9999  3.79277E-02  7.24430E+01 -1.00000E+00  1.30471E-01
      21    -1     0     0   502   501  0.000000000E+00  0.000000000E+00  8.439216230E+01  8.439216230E+01  0.000000000E+00  0.00000E+00  9.000E+00
      21    -1     0     0   501   512  0.000000000E+00  0.000000000E+00 -7.075756243E+02  7.075756243E+02  0.000000000E+00  0.00000E+00  9.000E+00
      25     1     1     2     0     0  1.144541160E+02 -9.571240189E+01 -3.852543729E+02  4.316324135E+02  1.250000000E+02  0.00000E+00  9.000E+00
      25     1     1     2     0     0 -1.181139471E+02  2.336189358E+01 -8.973362932E+01  1.953811834E+02  1.250000000E+02  0.00000E+00  9.000E+00
      21     1     1     2   502   512  3.659831152E+00  7.235050831E+01 -1.481954599E+02  1.649541898E+02  1.907348633E-06  0.00000E+00  9.000E+00
#rwgt            1           1   4.5263854199807899E-002           6      210911           0
</event>
<event>
      5   9999  3.79277E-02  4.42445E+01 -1.00000E+00  1.42175E-01
      21    -1     0     0   511   501  0.000000000E+00  0.000000000E+00  2.484161881E+03  2.484161881E+03  0.000000000E+00  0.00000E+00  9.000E+00
      21    -1     0     0   501   502  0.000000000E+00  0.000000000E+00 -2.001615971E+01  2.001615971E+01  0.000000000E+00  0.00000E+00  9.000E+00
      25     1     1     2     0     0  6.518380089E+01  1.829547347E+01  2.938554426E+02  3.264347919E+02  1.250000000E+02  0.00000E+00  9.000E+00
      25     1     1     2     0     0 -4.035510777E+01  1.832568561E+01  1.785182531E+03  1.790102241E+03  1.250000000E+02  0.00000E+00  9.000E+00
      21     1     1     2   511   502 -2.482869312E+01 -3.662115908E+01  3.851077474E+02  3.876410071E+02  5.394796609E-06  0.00000E+00  9.000E+00
#rwgt            1           1  0.10510171890158153                6      211159           0
</event>
<event>
      5   9999  3.79277E-02  7.35863E+00 -1.00000E+00  2.12532E-01
      21    -1     0     0   502   501  0.000000000E+00  0.000000000E+00  7.555957160E+01  7.555957160E+01  0.000000000E+00  0.00000E+00  9.000E+00
      21    -1     0     0   501   512  0.000000000E+00  0.000000000E+00 -4.887377121E+02  4.887377121E+02  0.000000000E+00  0.00000E+00  9.000E+00
      25     1     1     2     0     0 -8.971837252E+01  5.885924637E+01 -6.652503312E+01  1.776636634E+02  1.250000000E+02  0.00000E+00  9.000E+00
      25     1     1     2     0     0  8.396129503E+01 -6.344241500E+01 -3.249995630E+02  3.637638727E+02  1.250000000E+02  0.00000E+00  9.000E+00
      21     1     1     2   502   512  5.757077491E+00  4.583168629E+00 -2.165354436E+01  2.286974768E+01  3.371747881E-07  0.00000E+00  9.000E+00
#rwgt            1           1   4.4800830719335112E-002           6      211254           0
</event>
<event>
      5   9999  3.79277E-02  9.05423E+01 -1.00000E+00  1.25800E-01
      21    -1     0     0   511   501  0.000000000E+00  0.000000000E+00  1.422961173E+02  1.422961173E+02  0.000000000E+00  0.00000E+00  9.000E+00
      21    -1     0     0   501   502  0.000000000E+00  0.000000000E+00 -7.530393337E+02  7.530393337E+02  0.000000000E+00  0.00000E+00  9.000E+00
      25     1     1     2     0     0  5.558583530E+01 -1.939818296E+02 -2.777375759E+02  3.653517433E+02  1.250000000E+02  0.00000E+00  9.000E+00
      25     1     1     2     0     0 -1.068253519E+02  1.193331452E+02 -3.778021824E+02  4.289656681E+02  1.250000000E+02  0.00000E+00  9.000E+00
      21     1     1     2   511   502  5.123951655E+01  7.464868440E+01  4.479654194E+01  1.010180395E+02  1.168007728E-06  0.00000E+00  9.000E+00
#rwgt            1           1   2.9532267206285302E-002           6      211664           0
</event>
<event>
      5   9999  3.79277E-02  1.95463E+01 -1.00000E+00  1.67196E-01
      21    -1     0     0   512   501  0.000000000E+00  0.000000000E+00  1.787358315E+01  1.787358315E+01  0.000000000E+00  0.00000E+00  9.000E+00
      21    -1     0     0   501   502  0.000000000E+00  0.000000000E+00 -1.745798683E+03  1.745798683E+03  0.000000000E+00  0.00000E+00  9.000E+00
      25     1     1     2     0     0  7.374631974E+01  9.640875146E+00 -1.223233862E+03  1.231851268E+03  1.250000000E+02  0.00000E+00  9.000E+00
      25     1     1     2     0     0 -7.778157189E+01  9.484350141E+00 -4.589381715E+02  4.820676002E+02  1.250000000E+02  0.00000E+00  9.000E+00
      21     1     1     2   512   502  4.035252158E+00 -1.912522529E+01 -4.575306626E+01  4.975339761E+01  0.000000000E+00  0.00000E+00  9.000E+00
#rwgt            1           1   7.6017118924586749E-002           6      211900           0
</event>
<event>
      5   9999  3.79277E-02  6.78134E+01 -1.00000E+00  1.31923E-01
      21    -1     0     0   502   501  0.000000000E+00  0.000000000E+00  9.212277593E+02  9.212277593E+02  0.000000000E+00  0.00000E+00  9.000E+00
      21    -1     0     0   501   511  0.000000000E+00  0.000000000E+00 -1.036433943E+02  1.036433943E+02  0.000000000E+00  0.00000E+00  9.000E+00
      25     1     1     2     0     0 -7.563559789E+01  1.980195240E+02  4.028336967E+02  4.720513349E+02  1.250000000E+02  0.00000E+00  9.000E+00
      25     1     1     2     0     0  5.716205834E+01 -2.632682011E+02  3.504664910E+02  4.593793726E+02  1.250000000E+02  0.00000E+00  9.000E+00
      21     1     1     2   502   511  1.847353955E+01  6.524867710E+01  6.428417725E+01  9.344044613E+01  9.536743164E-07  0.00000E+00  9.000E+00
#rwgt            1           1   1.8179006805187029E-002           6      212120           0
</event>
<event>
      5   9999  3.79277E-02  5.75224E+01 -1.00000E+00  1.35689E-01
      21    -1     0     0   502   501  0.000000000E+00  0.000000000E+00  6.332816393E+01  6.332816393E+01  0.000000000E+00  0.00000E+00  9.000E+00
       2    -1     0     0   501     0  0.000000000E+00  0.000000000E+00 -2.088541917E+03  2.088541917E+03  0.000000000E+00  0.00000E+00  9.000E+00
      25     1     1     2     0     0  1.630378694E+01  6.018102636E+01 -5.034729262E+01  1.484837340E+02  1.250000000E+02  0.00000E+00  9.000E+00
      25     1     1     2     0     0  2.722725375E+01 -2.257949194E+01 -2.926619851E+02  3.201986794E+02  1.250000000E+02  0.00000E+00  9.000E+00
       2     1     1     2   502     0 -4.353104069E+01 -3.760153442E+01 -1.682204475E+03  1.683187667E+03  2.157918644E-05  0.00000E+00  9.000E+00
#rwgt            1           1   4.5720873726019177E-002           6      212235           0
</event>
<event>
      5   9999  3.79277E-02  1.26123E+02 -1.00000E+00  1.19458E-01
      21    -1     0     0   511   501  0.000000000E+00  0.000000000E+00  1.865871532E+02  1.865871532E+02  0.000000000E+00  0.00000E+00  9.000E+00
      21    -1     0     0   501   502  0.000000000E+00  0.000000000E+00 -3.234515348E+02  3.234515348E+02  0.000000000E+00  0.00000E+00  9.000E+00
      25     1     1     2     0     0  8.550892048E+01  2.833770537E+01 -1.216855455E+02  1.963343398E+02  1.250000000E+02  0.00000E+00  9.000E+00
      25     1     1     2     0     0 -2.108186906E+01 -1.367638775E+02 -1.959312295E+01  1.875038502E+02  1.250000000E+02  0.00000E+00  9.000E+00
      21     1     1     2   511   502 -6.442705142E+01  1.084261721E+02  4.414286748E+00  1.262004979E+02  1.218619841E-06  0.00000E+00  9.000E+00
#rwgt            1           1   3.1824599524206035E-002           6      212529           0
</event>
<event>
      5   9999  3.79277E-02  3.32265E+01 -1.00000E+00  1.50021E-01
      21    -1     0     0   512   501  0.000000000E+00  0.000000000E+00  7.154756164E+02  7.154756164E+02  0.000000000E+00  0.00000E+00  9.000E+00
      21    -1     0     0   501   502  0.000000000E+00  0.000000000E+00 -6.520901434E+02  6.520901434E+02  0.000000000E+00  0.00000E+00  9.000E+00
      25     1     1     2     0     0  1.484958128E+02 -7.194254246E+01 -2.973253870E+02  3.622901069E+02  1.250000000E+02  0.00000E+00  9.000E+00
      25     1     1     2     0     0 -1.636038434E+02  4.234952558E+01 -2.875367707E+02  3.561770549E+02  1.250000000E+02  0.00000E+00  9.000E+00
      21     1     1     2   512   502  1.510803069E+01  2.959301688E+01  6.482476307E+02  6.490985980E+02  1.078959322E-05  0.00000E+00  9.000E+00
#rwgt            1           1   1.2289771113564662E-003           6      212610           0
</event>
<event>
      5   9999 -3.79277E-02  7.18810E+01 -1.00000E+00  1.30640E-01
      21    -1     0     0   511   501  0.000000000E+00  0.000000000E+00  2.640368707E+01  2.640368707E+01  0.000000000E+00  0.00000E+00  9.000E+00
      21    -1     0     0   501   502  0.000000000E+00  0.000000000E+00 -1.564802217E+03  1.564802217E+03  0.000000000E+00  0.00000E+00  9.000E+00
      25     1     1     2     0     0 -1.699433231E+01 -1.186583686E+02 -4.724192417E+02  5.031635476E+02  1.250000000E+02  0.00000E+00  9.000E+00
      25     1     1     2     0     0 -2.553885667E+01  6.071174719E+01 -8.068725619E+02  8.191498523E+02  1.250000000E+02  0.00000E+00  9.000E+00
      21     1     1     2   511   502  4.253318898E+01  5.794662143E+01 -2.591067262E+02  2.688925039E+02  0.000000000E+00  0.00000E+00  9.000E+00
#rwgt            1           1  -2.2295269145420977E-002           6      212925           0
</event>
<event>
      5   9999  3.79277E-02  6.07168E+01 -1.00000E+00  1.34428E-01
      21    -1     0     0   502   501  0.000000000E+00  0.000000000E+00  1.419942015E+02  1.419942015E+02  0.000000000E+00  0.00000E+00  9.000E+00
      21    -1     0     0   512   502  0.000000000E+00  0.000000000E+00 -1.118436128E+03  1.118436128E+03  0.000000000E+00  0.00000E+00  9.000E+00
      25     1     1     2     0     0 -5.951616899E+01 -2.777547081E+01 -1.982065311E+02  2.433608023E+02  1.250000000E+02  0.00000E+00  9.000E+00
      25     1     1     2     0     0  3.307351529E+01  8.243176826E+01  6.865173334E+01  1.680086734E+02  1.250000000E+02  0.00000E+00  9.000E+00
      21     1     1     2   512   501  2.644265370E+01 -5.465629745E+01 -8.468871285E+02  8.490608536E+02  0.000000000E+00  0.00000E+00  9.000E+00
#rwgt            1           1   4.3271399629688567E-002           6      212979           0
</event>
<event>
      5   9999  3.79277E-02  1.88999E+01 -1.00000E+00  1.68422E-01
      21    -1     0     0   502   511  0.000000000E+00  0.000000000E+00  1.748648536E+02  1.748648536E+02  0.000000000E+00  0.00000E+00  9.000E+00
      21    -1     0     0   501   502  0.000000000E+00  0.000000000E+00 -5.070086777E+02  5.070086777E+02  0.000000000E+00  0.00000E+00  9.000E+00
      25     1     1     2     0     0  1.779510609E+02 -1.687027561E+02 -5.403035300E+01  2.804843650E+02  1.250000000E+02  0.00000E+00  9.000E+00
      25     1     1     2     0     0 -1.593464619E+02  1.720304129E+02 -2.746840479E+02  3.821806955E+02  1.250000000E+02  0.00000E+00  9.000E+00
      21     1     1     2   501   511 -1.860459900E+01 -3.327656788E+00 -3.429423238E+00  1.920847072E+01  5.127385418E-07  0.00000E+00  9.000E+00
#rwgt            1           1   3.0812347291189111E-002           6      213111           0
</event>
<event>
      5   9999  3.79277E-02  6.12756E+00 -1.00000E+00  2.24062E-01
      21    -1     0     0   502   501  0.000000000E+00  0.000000000E+00  1.133640996E+02  1.133640996E+02  0.000000000E+00  0.00000E+00  9.000E+00
      21    -1     0     0   501   512  0.000000000E+00  0.000000000E+00 -7.851007288E+02  7.851007288E+02  0.000000000E+00  0.00000E+00  9.000E+00
      25     1     1     2     0     0  6.162691528E+00 -2.296341664E+02 -4.133131669E+02  4.891038775E+02  1.250000000E+02  0.00000E+00  9.000E+00
      25     1     1     2     0     0 -1.137470938E+01  2.328562611E+02 -1.567129925E+02  3.074660703E+02  1.250000000E+02  0.00000E+00  9.000E+00
      21     1     1     2   502   512  5.212017853E+00 -3.222094706E+00 -1.017104698E+02  1.018948806E+02  1.348699152E-06  0.00000E+00  9.000E+00
#rwgt            1           1   2.5434505821122212E-002           6      213569           0
</event>
<event>
      5   9999  3.79277E-02  8.08060E+01 -1.00000E+00  1.28139E-01
      21    -1     0     0   502   511  0.000000000E+00  0.000000000E+00  9.580991896E+02  9.580991896E+02  0.000000000E+00  0.00000E+00  9.000E+00
      21    -1     0     0   501   502  0.000000000E+00  0.000000000E+00 -1.204025991E+02  1.204025991E+02  0.000000000E+00  0.00000E+00  9.000E+00
      25     1     1     2     0     0  9.878034705E+01  1.166022823E+02  3.459273782E+01  2.004377877E+02  1.250000000E+02  0.00000E+00  9.000E+00
      25     1     1     2     0     0 -7.004282901E+01 -1.921255369E+02  3.949134201E+02  4.619521936E+02  1.250000000E+02  0.00000E+00  9.000E+00
      21     1     1     2   501   511 -2.873751804E+01  7.552325460E+01  4.081904326E+02  4.161118074E+02  5.394796609E-06  0.00000E+00  9.000E+00
#rwgt            1           1   4.7615832190874507E-002           6      213964           0
</event>
<event>
      5   9999  3.79277E-02  2.16471E+01 -1.00000E+00  1.63582E-01
      21    -1     0     0   512   501  0.000000000E+00  0.000000000E+00  5.488421769E+02  5.488421769E+02  0.000000000E+00  0.00000E+00  9.000E+00
      21    -1     0     0   501   502  0.000000000E+00  0.000000000E+00 -1.008438162E+02  1.008438162E+02  0.000000000E+00  0.00000E+00  9.000E+00
      25     1     1     2     0     0  1.215892161E+02 -3.085605409E+01  1.898299815E+01  1.781049909E+02  1.250000000E+02  0.00000E+00  9.000E+00
      25     1     1     2     0     0 -1.143697072E+02  1.044832112E+01  3.406247158E+02  3.805782368E+02  1.250000000E+02  0.00000E+00  9.000E+00
      21     1     1     2   512   502 -7.219508902E+00  2.040773297E+01  8.839064676E+01  9.100276538E+01  1.651812370E-06  0.00000E+00  9.000E+00
#rwgt            1           1   3.4669901803604943E-002           6      214038           0
</event>
<event>
      5   9999  3.79277E-02  4.04571E+01 -1.00000E+00  1.44535E-01
      21    -1     0     0   502   501  0.000000000E+00  0.000000000E+00  6.625884905E+02  6.625884905E+02  0.000000000E+00  0.00000E+00  9.000E+00
      21    -1     0     0   511   502  0.000000000E+00  0.000000000E+00 -8.692881865E+01  8.692881865E+01  0.000000000E+00  0.00000E+00  9.000E+00
      25     1     1     2     0     0  2.346996243E+01  1.372592019E+02  1.750322740E+02  2.562269006E+02  1.250000000E+02  0.00000E+00  9.000E+00
      25     1     1     2     0     0  1.416560412E+01 -1.224151928E+02  4.148092208E+02  4.504196193E+02  1.250000000E+02  0.00000E+00  9.000E+00
      21     1     1     2   511   501 -3.763556655E+01 -1.484400902E+01 -1.418182296E+01  4.287078930E+01  1.052827938E-06  0.00000E+00  9.000E+00
#rwgt            1           1   3.3931575011484139E-002           6      214192           0
</event>
<event>
      5   9999  3.79277E-02  8.80985E+01 -1.00000E+00  1.26355E-01
      21    -1     0     0   512   501  0.000000000E+00  0.000000000E+00  5.095398499E+01  5.095398499E+01  0.000000000E+00  0.00000E+00  9.000E+00
      21    -1     0     0   501   502  0.000000000E+00  0.000000000E+00 -1.922232816E+03  1.922232816E+03  0.000000000E+00  0.00000E+00  9.000E+00
      25     1     1     2     0     0 -2.232100469E+02  6.571318754E+01 -8.655346062E+02  9.049398337E+02  1.250000000E+02  0.00000E+00  9.000E+00
      25     1     1     2     0     0  1.844633628E+02 -1.448335957E+02 -8.324789098E+02  8.738704926E+02  1.250000000E+02  0.00000E+00  9.000E+00
      21     1     1     2   512   502  3.874668407E+01  7.912040812E+01 -1.732653148E+02  1.943764744E+02  4.264961200E-06  0.00000E+00  9.000E+00
#rwgt            1           1   4.6604917424589727E-002           6      214304           0
</event>
<event>
      5   9999  3.79277E-02  3.45670E+01 -1.00000E+00  1.48885E-01
      21    -1     0     0   502   501  0.000000000E+00  0.000000000E+00  6.307962691E+01  6.307962691E+01  0.000000000E+00  0.00000E+00  9.000E+00
      21    -1     0     0   511   502  0.000000000E+00  0.000000000E+00 -1.168691166E+03  1.168691166E+03  0.000000000E+00  0.00000E+00  9.000E+00
      25     1     1     2     0     0  1.036119250E+02  1.226356088E+02 -3.572323945E+02  4.111142265E+02  1.250000000E+02  0.00000E+00  9.000E+00
      25     1     1     2     0     0 -7.595138240E+01 -1.019046022E+02 -1.875131967E+02  2.587264180E+02  1.250000000E+02  0.00000E+00  9.000E+00
      21     1     1     2   511   501 -2.766054257E+01 -2.073100660E+01 -5.608659480E+02  5.619301486E+02  0.000000000E+00  0.00000E+00  9.000E+00
#rwgt            1           1   4.8438249359368746E-002           6      214460           0
</event>
<event>
      5   9999  3.79277E-02  2.26688E+01 -1.00000E+00  1.62002E-01
       2    -1     0     0   502     0  0.000000000E+00  0.000000000E+00  6.863963310E+02  6.863963310E+02  0.000000000E+00  0.00000E+00  9.000E+00
      21    -1     0     0   501   502  0.000000000E+00  0.000000000E+00 -1.358500789E+02  1.358500789E+02  0.000000000E+00  0.00000E+00  9.000E+00
      25     1     1     2     0     0 -1.864367459E+02 -5.481179249E+00  9.629302731E+01  2.443072874E+02  1.250000000E+02  0.00000E+00  9.000E+00
      25     1     1     2     0     0  1.782651919E+02  2.662595565E+01  1.343219859E+02  2.572057854E+02  1.250000000E+02  0.00000E+00  9.000E+00
       2     1     1     2   501     0  8.171554040E+00 -2.114477640E+01  3.199312389E+02  3.207333370E+02  3.814697266E-06  0.00000E+00  9.000E+00
#rwgt            1           1   3.9345614353284847E-002           6      214570           0
</event>
<event>
      5   9999  3.79277E-02  2.90363E+01 -1.00000E+00  1.54031E-01
      21    -1     0     0   502   511  0.000000000E+00  0.000000000E+00  1.448731185E+02  1.448731185E+02  0.000000000E+00  0.00000E+00  9.000E+00
      21    -1     0     0   501   502  0.000000000E+00  0.000000000E+00 -2.629890525E+02  2.629890525E+02  0.000000000E+00  0.00000E+00  9.000E+00
      25     1     1     2     0     0  4.439455691E+01  1.764084386E+01  6.573494574E+01  1.490911102E+02  1.250000000E+02  0.00000E+00  9.000E+00
      25     1     1     2     0     0 -6.090633532E+01  6.243683948E+00 -1.827423156E+02  2.297135590E+02  1.250000000E+02  0.00000E+00  9.000E+00
      21     1     1     2   501   511  1.651177842E+01 -2.388452781E+01 -1.108564090E+00  2.905750178E+01  6.322027277E-08  0.00000E+00  9.000E+00
#rwgt            1           1   4.5642606196119567E-002           6      214733           0
</event>
<event>
      5   9999 -3.79277E-02  2.64589E+01 -1.00000E+00  1.56928E-01
      21    -1     0     0   502   501  0.000000000E+00  0.000000000E+00  1.666797940E+02  1.666797940E+02  0.000000000E+00  0.00000E+00  9.000E+00
       2    -1     0     0   501     0  0.000000000E+00  0.000000000E+00 -2.593525160E+03  2.593525160E+03  0.000000000E+00  0.00000E+00  9.000E+00
      25     1     1     2     0     0  7.819875696E+01  1.054782970E+02 -2.782954985E+02  3.321356669E+02  1.250000000E+02  0.00000E+00  9.000E+00
      25     1     1     2     0     0 -8.800036293E+01 -1.300547031E+02  6.758187501E+01  2.117796013E+02  1.250000000E+02  0.00000E+00  9.000E+00
       2     1     1     2   502     0  9.801605970E+00  2.457640613E+01 -2.216131742E+03  2.216289685E+03  4.315837288E-05  0.00000E+00  9.000E+00
#rwgt            1           1  -4.9667889639768495E-002           6      214824           0
</event>
<event>
      5   9999  3.79277E-02  1.56841E+01 -1.00000E+00  1.75578E-01
      21    -1     0     0   511   501  0.000000000E+00  0.000000000E+00  5.673273857E+02  5.673273857E+02  0.000000000E+00  0.00000E+00  9.000E+00
      21    -1     0     0   501   502  0.000000000E+00  0.000000000E+00 -6.253757863E+01  6.253757863E+01  0.000000000E+00  0.00000E+00  9.000E+00
      25     1     1     2     0     0  6.187298993E+01 -5.946824579E+01  8.267814485E+01  1.727003612E+02  1.250000000E+02  0.00000E+00  9.000E+00
      25     1     1     2     0     0 -6.081088649E+01  7.511633815E+01  3.998162500E+02  4.299051779E+02  1.250000000E+02  0.00000E+00  9.000E+00
      21     1     1     2   511   502 -1.062103433E+00 -1.564809235E+01  2.229541223E+01  2.725942524E+01  2.384185791E-07  0.00000E+00  9.000E+00
#rwgt            2          11   6.5820905486058262E-003           6      214973           0
</event>
<event>
      5   9999  3.79277E-02  9.52214E+00 -1.00000E+00  1.98248E-01
      21    -1     0     0   502   501  0.000000000E+00  0.000000000E+00  3.290230412E+02  3.290230412E+02  0.000000000E+00  0.00000E+00  9.000E+00
       2    -1     0     0   501     0  0.000000000E+00  0.000000000E+00 -1.424111429E+03  1.424111429E+03  0.000000000E+00  0.00000E+00  9.000E+00
      25     1     1     2     0     0 -4.546334781E+01 -2.351303861E+01  1.652919756E+01  1.360808339E+02  1.250000000E+02  0.00000E+00  9.000E+00
      25     1     1     2     0     0  3.606469568E+01  2.198450609E+01  2.354783075E+02  2.699240895E+02  1.250000000E+02  0.00000E+00  9.000E+00
       2     1     1     2   502     0  9.398652125E+00  1.528532523E+00 -1.347095893E+03  1.347129547E+03  3.051757812E-05  0.00000E+00  9.000E+00
#rwgt            1           1   4.8461306301234103E-002           6      214993           0
</event>
<event>
      5   9999  3.79277E-02  1.36100E+02 -1.00000E+00  1.18092E-01
      -4    -1     0     0     0   501  0.000000000E+00  0.000000000E+00  2.603411305E+02  2.603411305E+02  0.000000000E+00  0.00000E+00  9.000E+00
      21    -1     0     0   501   502  0.000000000E+00  0.000000000E+00 -1.468734185E+03  1.468734185E+03  0.000000000E+00  0.00000E+00  9.000E+00
      25     1     1     2     0     0  3.007726882E+02 -3.107309740E+02 -8.973908297E+02  1.003968749E+03  1.250000000E+02  0.00000E+00  9.000E+00
      25     1     1     2     0     0 -3.857811064E+02  2.044444973E+02 -3.609651666E+02  5.801253882E+02  1.250000000E+02  0.00000E+00  9.000E+00
      -4     1     1     2     0   502  8.500841819E+01  1.062864766E+02  4.996294223E+01  1.449811776E+02  1.651812370E-06  0.00000E+00  9.000E+00
#rwgt            2           2   2.3937453623953923E-005           6      215272           0
</event>
<event>
      5   9999  3.79277E-02  1.78816E+02 -1.00000E+00  1.13447E-01
      21    -1     0     0   502   501  0.000000000E+00  0.000000000E+00  7.545370968E+02  7.545370968E+02  0.000000000E+00  0.00000E+00  9.000E+00
      21    -1     0     0   511   502  0.000000000E+00  0.000000000E+00 -9.037465674E+01  9.037465674E+01  0.000000000E+00  0.00000E+00  9.000E+00
      25     1     1     2     0     0 -8.332396718E+01  4.204339794E+01  3.624738495E+02  3.946173113E+02  1.250000000E+02  0.00000E+00  9.000E+00
      25     1     1     2     0     0 -5.335868215E+01  7.325158907E+01  1.218442128E+02  1.966823745E+02  1.250000000E+02  0.00000E+00  9.000E+00
      21     1     1     2   511   501  1.366826493E+02 -1.152949870E+02  1.798443777E+02  2.536120677E+02  1.907348633E-06  0.00000E+00  9.000E+00
#rwgt            1           1   3.0494870642557948E-002           6      215441           0
</event>
<event>
      5   9999  3.79277E-02  6.47793E+01 -1.00000E+00  1.32948E-01
      21    -1     0     0   502   501  0.000000000E+00  0.000000000E+00  6.397518668E+02  6.397518668E+02  0.000000000E+00  0.00000E+00  9.000E+00
       2    -1     0     0   501     0  0.000000000E+00  0.000000000E+00 -2.648214640E+02  2.648214640E+02  0.000000000E+00  0.00000E+00  9.000E+00
      25     1     1     2     0     0 -2.900660023E+01 -1.601319503E+02 -1.895249107E+02  2.793354903E+02  1.250000000E+02  0.00000E+00  9.000E+00
      25     1     1     2     0     0 -2.664314795E+01  1.269737203E+02  5.090720548E+02  5.400106850E+02  1.250000000E+02  0.00000E+00  9.000E+00
       2     1     1     2   502     0  5.564974819E+01  3.315823001E+01  5.538325874E+01  8.522715553E+01  9.536743164E-07  0.00000E+00  9.000E+00
#rwgt            1           1   2.9298979890102449E-002           6      215643           0
</event>
<event>
      5   9999  3.79277E-02  4.87418E+01 -1.00000E+00  1.39710E-01
      21    -1     0     0   502   511  0.000000000E+00  0.000000000E+00  8.902535359E+02  8.902535359E+02  0.000000000E+00  0.00000E+00  9.000E+00
      21    -1     0     0   501   502  0.000000000E+00  0.000000000E+00 -9.878606519E+01  9.878606519E+01  0.000000000E+00  0.00000E+00  9.000E+00
      25     1     1     2     0     0 -1.322139191E+02  8.048531972E+01  9.728268757E+01  2.214663144E+02  1.250000000E+02  0.00000E+00  9.000E+00
      25     1     1     2     0     0  1.408098791E+02 -1.284631230E+02  3.355803300E+02  4.056714852E+02  1.250000000E+02  0.00000E+00  9.000E+00
      21     1     1     2   501   511 -8.595960009E+00  4.797780324E+01  3.586044532E+02  3.619018016E+02  3.814697266E-06  0.00000E+00  9.000E+00
#rwgt            1           1   3.8845458179321196E-002           6      215940           0
</event>
<event>
      5   9999  3.79277E-02  1.32910E+02 -1.00000E+00  1.18514E-01
      21    -1     0     0   512   501  0.000000000E+00  0.000000000E+00  1.444488364E+03  1.444488364E+03  0.000000000E+00  0.00000E+00  9.000E+00
      21    -1     0     0   501   502  0.000000000E+00  0.000000000E+00 -1.978196548E+02  1.978196548E+02  0.000000000E+00  0.00000E+00  9.000E+00
      25     1     1     2     0     0  1.188462803E+02 -2.939530100E+02  5.247610787E-01  3.408197263E+02  1.250000000E+02  0.00000E+00  9.000E+00
      25     1     1     2     0     0 -7.943306795E+01  1.670215930E+02  5.650256044E+02  6.075234633E+02  1.250000000E+02  0.00000E+00  9.000E+00
      21     1     1     2   512   502 -3.941321233E+01  1.269314170E+02  6.811183434E+02  6.939648288E+02  7.629394531E-06  0.00000E+00  9.000E+00
#rwgt            1           1   3.6592557254003788E-002           6      216118           0
</event>
<event>
      5   9999  3.79277E-02  1.05785E+01 -1.00000E+00  1.92976E-01
      21    -1     0     0   502   501  0.000000000E+00  0.000000000E+00  8.569523000E+02  8.569523000E+02  0.000000000E+00  0.00000E+00  9.000E+00
      21    -1     0     0   511   502  0.000000000E+00  0.000000000E+00 -7.270073569E+01  7.270073569E+01  0.000000000E+00  0.00000E+00  9.000E+00
      25     1     1     2     0     0 -6.457798115E+00  1.284304116E+02  5.545657384E+02  5.828415153E+02  1.250000000E+02  0.00000E+00  9.000E+00
      25     1     1     2     0     0  2.344640919E+00 -1.186843502E+02  2.615434874E+02  3.132434646E+02  1.250000000E+02  0.00000E+00  9.000E+00
      21     1     1     2   511   501  4.113157196E+00 -9.746061385E+00 -3.185766145E+01  3.356805576E+01  1.066240300E-06  0.00000E+00  9.000E+00
#rwgt            1           1  0.26580085593248426                6      216523           0
</event>
<event>
      5   9999  3.79277E-02  1.64192E+01 -1.00000E+00  1.73763E-01
      21    -1     0     0   512   501  0.000000000E+00  0.000000000E+00  7.880509160E+01  7.880509160E+01  0.000000000E+00  0.00000E+00  9.000E+00
      21    -1     0     0   501   502  0.000000000E+00  0.000000000E+00 -8.947037746E+02  8.947037746E+02  0.000000000E+00  0.00000E+00  9.000E+00
      25     1     1     2     0     0 -1.617380314E+02  1.586627934E+02 -3.995448756E+02  4.760190967E+02  1.250000000E+02  0.00000E+00  9.000E+00
      25     1     1     2     0     0  1.570142289E+02 -1.429378158E+02 -4.127189179E+02  4.806730619E+02  1.250000000E+02  0.00000E+00  9.000E+00
      21     1     1     2   512   502  4.723802552E+00 -1.572497760E+01 -3.634889447E+00  1.681670754E+01  3.526258339E-07  0.00000E+00  9.000E+00
#rwgt            1           1   3.6333587987330294E-002           6      217094           0
</event>
<event>
      5   9999  3.79277E-02  9.71888E+00 -1.00000E+00  1.97200E-01
      21    -1     0     0   502   501  0.000000000E+00  0.000000000E+00  6.029311893E+01  6.029311893E+01  0.000000000E+00  0.00000E+00  9.000E+00
      21    -1     0     0   511   502  0.000000000E+00  0.000000000E+00 -1.304457504E+03  1.304457504E+03  0.000000000E+00  0.00000E+00  9.000E+00
      25     1     1     2     0     0 -2.579271690E+01 -3.412935671E+01 -1.166316068E+03  1.173775212E+03  1.250000000E+02  0.00000E+00  9.000E+00
      25     1     1     2     0     0  3.534327558E+01  3.593029053E+01 -2.479578503E+01  1.370400083E+02  1.250000000E+02  0.00000E+00  9.000E+00
      21     1     1     2   511   501 -9.550558680E+00 -1.800933820E+00 -5.305253147E+01  5.393540237E+01  0.000000000E+00  0.00000E+00  9.000E+00
#rwgt            1           1   5.0648243210489177E-002           6      217312           0
</event>
<event>
      5   9999  3.79277E-02  7.77620E+00 -1.00000E+00  2.09295E-01
      21    -1     0     0   512   501  0.000000000E+00  0.000000000E+00  7.240617393E+02  7.240617393E+02  0.000000000E+00  0.00000E+00  9.000E+00
      21    -1     0     0   501   502  0.000000000E+00  0.000000000E+00 -4.923312783E+01  4.923312783E+01  0.000000000E+00  0.00000E+00  9.000E+00
      25     1     1     2     0     0  5.192166460E+01 -7.722976794E+01  1.474122317E+02  2.145126159E+02  1.250000000E+02  0.00000E+00  9.000E+00
      25     1     1     2     0     0 -5.961222082E+01  7.838068638E+01  3.909547059E+02  4.220991956E+02  1.250000000E+02  0.00000E+00  9.000E+00
      21     1     1     2   512   502  7.690556223E+00 -1.150918433E+00  1.364616738E+02  1.366830556E+02  3.303624740E-06  0.00000E+00  9.000E+00
#rwgt            1           1   1.3624919217193740E-002           6      217654           0
</event>
<event>
      5   9999  3.79277E-02  3.75286E+01 -1.00000E+00  1.46579E-01
      21    -1     0     0   502   511  0.000000000E+00  0.000000000E+00  1.123903379E+02  1.123903379E+02  0.000000000E+00  0.00000E+00  9.000E+00
      21    -1     0     0   501   502  0.000000000E+00  0.000000000E+00 -5.427819228E+02  5.427819228E+02  0.000000000E+00  0.00000E+00  9.000E+00
      25     1     1     2     0     0 -5.479185335E+01  1.434235157E+02 -3.025702784E+01  2.002821504E+02  1.250000000E+02  0.00000E+00  9.000E+00
      25     1     1     2     0     0  4.217008314E+01 -1.080810636E+02 -3.675533872E+02  4.051917135E+02  1.250000000E+02  0.00000E+00  9.000E+00
      21     1     1     2   501   511  1.262177020E+01 -3.534245214E+01 -3.258116984E+01  4.969839670E+01  4.768371582E-07  0.00000E+00  9.000E+00
#rwgt            1           1   3.8744201472816472E-002           6      218035           0
</event>
<event>
      5   9999  3.79277E-02  5.37082E+01 -1.00000E+00  1.37326E-01
      21    -1     0     0   502   512  0.000000000E+00  0.000000000E+00  2.562187473E+03  2.562187473E+03  0.000000000E+00  0.00000E+00  9.000E+00
      21    -1     0     0   501   502  0.000000000E+00  0.000000000E+00 -3.080642082E+01  3.080642082E+01  0.000000000E+00  0.00000E+00  9.000E+00
      25     1     1     2     0     0 -1.381583313E+02 -3.669591881E+01  4.682319898E+02  5.052727098E+02  1.250000000E+02  0.00000E+00  9.000E+00
      25     1     1     2     0     0  1.766697627E+02  7.413178350E+01  1.124316217E+03  1.147353338E+03  1.250000000E+02  0.00000E+00  9.000E+00
      21     1     1     2   501   512 -3.851143139E+01 -3.743586469E+01  9.388328451E+02  9.403678458E+02  1.078959322E-05  0.00000E+00  9.000E+00
#rwgt            1           1  0.10421371062936244                6      218271           0
</event>
<event>
      5   9999  3.79277E-02  5.23637E+01 -1.00000E+00  1.37941E-01
      21    -1     0     0   502   501  0.000000000E+00  0.000000000E+00  3.148733170E+02  3.148733170E+02  0.000000000E+00  0.00000E+00  9.000E+00
      21    -1     0     0   511   502  0.000000000E+00  0.000000000E+00 -3.526631832E+02  3.526631832E+02  0.000000000E+00  0.00000E+00  9.000E+00
      25     1     1     2     0     0  1.223069303E+02  2.402492725E+01 -1.508931497E+01  1.771690429E+02  1.250000000E+02  0.00000E+00  9.000E+00
      25     1     1     2     0     0 -1.276906583E+02 -7.611117083E+01  1.897680216E+02  2.715413718E+02  1.250000000E+02  0.00000E+00  9.000E+00
      21     1     1     2   511   501  5.383728033E+00  5.208624358E+01 -2.124685728E+02  2.188260856E+02  2.697398305E-06  0.00000E+00  9.000E+00
#rwgt            1           1   3.5683553393167262E-002           6      218420           0
</event>
<event>
      5   9999  3.79277E-02  4.52575E+01 -1.00000E+00  1.41591E-01
      21    -1     0     0   502   501  0.000000000E+00  0.000000000E+00  9.209671659E+02  9.209671659E+02  0.000000000E+00  0.00000E+00  9.000E+00
      21    -1     0     0   501   512  0.000000000E+00  0.000000000E+00 -4.092403058E+02  4.092403058E+02  0.000000000E+00  0.00000E+00  9.000E+00
      25     1     1     2     0     0  1.649874685E+02 -1.408546068E+02  2.072662904E+02  3.250310757E+02  1.250000000E+02  0.00000E+00  9.000E+00
      25     1     1     2     0     0 -1.592023935E+02  9.596832044E+01  6.340687406E+02  6.724756415E+02  1.250000000E+02  0.00000E+00  9.000E+00
      21     1     1     2   502   512 -5.785074953E+00  4.488628633E+01 -3.296081708E+02  3.327007545E+02  7.629394531E-06  0.00000E+00  9.000E+00
#rwgt            1           1   2.5740285719732546E-002           6      218537           0
</event>
<event>
      5   9999  3.79277E-02  2.86161E+01 -1.00000E+00  1.54478E-01
       2    -1     0     0   502     0  0.000000000E+00  0.000000000E+00  3.823811522E+02  3.823811522E+02  0.000000000E+00  0.00000E+00  9.000E+00
      21    -1     0     0   501   502  0.000000000E+00  0.000000000E+00 -1.954463612E+02  1.954463612E+02  0.000000000E+00  0.00000E+00  9.000E+00
      25     1     1     2     0     0  8.986445465E+01 -9.201799049E+01 -6.302639480E+01  1.901059105E+02  1.250000000E+02  0.00000E+00  9.000E+00
      25     1     1     2     0     0 -9.479714650E+01  6.383022716E+01  3.766612188E+01  1.735065809E+02  1.250000000E+02  0.00000E+00  9.000E+00
       2     1     1     2   501     0  4.932691852E+00  2.818776333E+01  2.122950639E+02  2.142150219E+02  2.697398305E-06  0.00000E+00  9.000E+00
#rwgt            1           1   3.3061609157950415E-002           6      218666           0
</event>
<event>
      5   9999 -3.79277E-02  8.72584E+01 -1.00000E+00  1.26550E-01
      21    -1     0     0   502   501  0.000000000E+00  0.000000000E+00  7.718438283E+02  7.718438283E+02  0.000000000E+00  0.00000E+00  9.000E+00
      21    -1     0     0   511   502  0.000000000E+00  0.000000000E+00 -3.946770144E+02  3.946770144E+02  0.000000000E+00  0.00000E+00  9.000E+00
      25     1     1     2     0     0 -1.638062340E+02  6.416325694E+01  4.601510734E+02  5.082454291E+02  1.250000000E+02  0.00000E+00  9.000E+00
      25     1     1     2     0     0  1.490816947E+02 -1.501702900E+02  2.280254596E+02  3.352567343E+02  1.250000000E+02  0.00000E+00  9.000E+00
      21     1     1     2   511   501  1.472453927E+01  8.600703307E+01 -3.110097191E+02  3.230186792E+02  3.814697266E-06  0.00000E+00  9.000E+00
#rwgt            1           1  -6.2101281082051311E-002           6      218815           0
</event>
<event>
      5   9999  3.79277E-02  6.52765E+01 -1.00000E+00  1.32776E-01
      21    -1     0     0   502   501  0.000000000E+00  0.000000000E+00  3.871685174E+02  3.871685174E+02  0.000000000E+00  0.00000E+00  9.000E+00
      21    -1     0     0   512   502  0.000000000E+00  0.000000000E+00 -1.581602676E+02  1.581602676E+02  0.000000000E+00  0.00000E+00  9.000E+00
      25     1     1     2     0     0  9.366366369E+01 -1.528251897E+02  7.286353414E+01  2.303530228E+02  1.250000000E+02  0.00000E+00  9.000E+00
      25     1     1     2     0     0 -9.448826350E+01  8.755388337E+01  1.711309715E+02  2.480010561E+02  1.250000000E+02  0.00000E+00  9.000E+00
      21     1     1     2   512   501  8.245998114E-01  6.527130635E+01 -1.498625585E+01  6.697470613E+01  1.272806913E-06  0.00000E+00  9.000E+00
#rwgt            1           1   4.7983397705826679E-002           6      218976           0
</event>
<event>
      5   9999 -3.79277E-02  3.92178E+01 -1.00000E+00  1.45374E-01
      21    -1     0     0   502   501  0.000000000E+00  0.000000000E+00  5.751138892E+01  5.751138892E+01  0.000000000E+00  0.00000E+00  9.000E+00
      21    -1     0     0   511   502  0.000000000E+00  0.000000000E+00 -1.462902274E+03  1.462902274E+03  0.000000000E+00  0.00000E+00  9.000E+00
      25     1     1     2     0     0  1.395601518E+02  1.710270346E+02 -8.114205442E+02  8.501503291E+02  1.250000000E+02  0.00000E+00  9.000E+00
      25     1     1     2     0     0 -1.005464652E+02 -1.670312209E+02 -3.285952406E+02  4.020060354E+02  1.250000000E+02  0.00000E+00  9.000E+00
      21     1     1     2   511   501 -3.901368660E+01 -3.995813762E+00 -2.653751005E+02  2.682572986E+02  3.814697266E-06  0.00000E+00  9.000E+00
#rwgt            1           1  -1.8052847062157800E-002           6      219091           0
</event>
<event>
      5   9999  3.79277E-02  3.58929E+01 -1.00000E+00  1.47820E-01
      21    -1     0     0   512   501  0.000000000E+00  0.000000000E+00  1.256785741E+03  1.256785741E+03  0.000000000E+00  0.00000E+00  9.000E+00
      21    -1     0     0   501   502  0.000000000E+00  0.000000000E+00 -1.178617334E+02  1.178617334E+02  0.000000000E+00  0.00000E+00  9.000E+00
      25     1     1     2     0     0 -1.731923045E+02 -7.398589224E+01  1.421122113E+02  2.670025603E+02  1.250000000E+02  0.00000E+00  9.000E+00
      25     1     1     2     0     0  1.471511221E+02  9.868730792E+01  1.585577594E+02  2.686227848E+02  1.250000000E+02  0.00000E+00  9.000E+00
      21     1     1     2   512   502  2.604118241E+01 -2.470141569E+01  8.382540368E+02  8.390221292E+02  0.000000000E+00  0.00000E+00  9.000E+00
#rwgt            1           1   3.7525820394122854E-002           6      219273           0
</event>
<event>
      5   9999  3.79277E-02  2.19358E+01 -1.00000E+00  1.63125E-01
      21    -1     0     0   502   501  0.000000000E+00  0.000000000E+00  6.246796976E+02  6.246796976E+02  0.000000000E+00  0.00000E+00  9.000E+00
      21    -1     0     0   501   511  0.000000000E+00  0.000000000E+00 -1.066652599E+02  1.066652599E+02  0.000000000E+00  0.00000E+00  9.000E+00
      25     1     1     2     0     0  1.765110828E+02  1.598276286E+01  3.720428506E+02  4.306419554E+02  1.250000000E+02  0.00000E+00  9.000E+00
      25     1     1     2     0     0 -1.906469947E+02 -3.275638285E+01  1.543176730E+02  2.772331175E+02  1.250000000E+02  0.00000E+00  9.000E+00
      21     1     1     2   502   511  1.413591192E+01  1.677361999E+01 -8.346085908E+00  2.346988461E+01  4.616955931E-07  0.00000E+00  9.000E+00
#rwgt            1           1   4.0575761113091767E-002           6      219388           0
</event>
<event>
      5   9999  3.79277E-02  8.42693E+01 -1.00000E+00  1.27266E-01
      21    -1     0     0   502   501  0.000000000E+00  0.000000000E+00  1.141357834E+03  1.141357834E+03  0.000000000E+00  0.00000E+00  9.000E+00
      21    -1     0     0   512   502  0.000000000E+00  0.000000000E+00 -6.591662166E+02  6.591662166E+02  0.000000000E+00  0.00000E+00  9.000E+00
      25     1     1     2     0     0 -8.095320324E+01  3.992427257E+02  1.078494807E+02  4.395505496E+02  1.250000000E+02  0.00000E+00  9.000E+00
      25     1     1     2     0     0  1.494867078E+02 -3.502073081E+02  8.171929684E+02  9.101762368E+02  1.250000000E+02  0.00000E+00  9.000E+00
      21     1     1     2   512   501 -6.853350451E+01 -4.903541758E+01 -4.428508322E+02  4.507972638E+02  7.629394531E-06  0.00000E+00  9.000E+00
#rwgt            1           1  0.11837457623261749                6      219587           0
</event>
<event>
      5   9999  3.79277E-02  3.08994E+01 -1.00000E+00  1.52154E-01
      21    -1     0     0   502   501  0.000000000E+00  0.000000000E+00  2.195171988E+02  2.195171988E+02  0.000000000E+00  0.00000E+00  9.000E+00
      21    -1     0     0   511   502  0.000000000E+00  0.000000000E+00 -2.846694298E+02  2.846694298E+02  0.000000000E+00  0.00000E+00  9.000E+00
      25     1     1     2     0     0 -2.420085348E+01 -1.072416673E+02  1.364004828E+02  2.152127975E+02  1.250000000E+02  0.00000E+00  9.000E+00
      25     1     1     2     0     0  2.736294948E+01  7.650450587E+01 -9.209294493E+01  1.752363573E+02  1.250000000E+02  0.00000E+00  9.000E+00
      21     1     1     2   511   501 -3.162095997E+00  3.073716142E+01 -1.094597688E+02  1.137374738E+02  1.907348633E-06  0.00000E+00  9.000E+00
#rwgt            1           1   3.2020570216081061E-002           6      219679           0
</event>
<event>
      5   9999  3.79277E-02  6.30576E+01 -1.00000E+00  1.33560E-01
      21    -1     0     0   502   501  0.000000000E+00  0.000000000E+00  6.884769903E+02  6.884769903E+02  0.000000000E+00  0.00000E+00  9.000E+00
      21    -1     0     0   512   502  0.000000000E+00  0.000000000E+00 -3.344613748E+02  3.344613748E+02  0.000000000E+00  0.00000E+00  9.000E+00
      25     1     1     2     0     0  3.077994459E+02  7.653661811E+01  5.100437811E+02  6.134883955E+02  1.250000000E+02  0.00000E+00  9.000E+00
      25     1     1     2     0     0 -2.663594535E+02 -2.900780241E+01 -1.750406557E+02  3.435884780E+02  1.250000000E+02  0.00000E+00  9.000E+00
      21     1     1     2   512   501 -4.143999244E+01 -4.752881569E+01  1.901249021E+01  6.586149162E+01  6.743495762E-07  0.00000E+00  9.000E+00
#rwgt            1           1  0.17819136857715298                6      219837           0
</event>
<event>
      5   9999  3.79277E-02  1.79797E+02 -1.00000E+00  1.13358E-01
      21    -1     0     0   502   501  0.000000000E+00  0.000000000E+00  4.717829804E+02  4.717829804E+02  0.000000000E+00  0.00000E+00  9.000E+00
      21    -1     0     0   511   502  0.000000000E+00  0.000000000E+00 -3.642671679E+02  3.642671679E+02  0.000000000E+00  0.00000E+00  9.000E+00
      25     1     1     2     0     0 -9.684803493E+01  1.571231556E+02 -6.725867692E+01  2.328432037E+02  1.250000000E+02  0.00000E+00  9.000E+00
      25     1     1     2     0     0 -8.252310333E+01 -1.694955250E+02  3.060640141E+02  3.805771621E+02  1.250000000E+02  0.00000E+00  9.000E+00
      21     1     1     2   511   501  1.793711383E+02  1.237236934E+01 -1.312895247E+02  2.226297825E+02  4.264961200E-06  0.00000E+00  9.000E+00
#rwgt            1           1   7.2961127011057780E-002           6      220013           0
</event>
<event>
      5   9999  3.79277E-02  3.58592E+01 -1.00000E+00  1.47846E-01
      21    -1     0     0   502   501  0.000000000E+00  0.000000000E+00  2.088036659E+01  2.088036659E+01  0.000000000E+00  0.00000E+00  9.000E+00
      21    -1     0     0   501   512  0.000000000E+00  0.000000000E+00 -1.869436678E+03  1.869436678E+03  0.000000000E+00  0.00000E+00  9.000E+00
      25     1     1     2     0     0  1.049608475E+02 -8.427367694E+01 -7.408888573E+02  7.633217742E+02  1.250000000E+02  0.00000E+00  9.000E+00
      25     1     1     2     0     0 -1.076291069E+02  4.851384629E+01 -9.094640918E+02  9.255741743E+02  1.250000000E+02  0.00000E+00  9.000E+00
      21     1     1     2   502   512  2.668259478E+00  3.575983066E+01 -1.982033625E+02  2.014210962E+02  0.000000000E+00  0.00000E+00  9.000E+00
#rwgt            1           1   4.2389647227343723E-002           6      220114           0
</event>
<event>
      5   9999  3.79277E-02  9.17224E+01 -1.00000E+00  1.25540E-01
       4    -1     0     0   502     0  0.000000000E+00  0.000000000E+00  7.498907007E+01  7.498907007E+01  0.000000000E+00  0.00000E+00  9.000E+00
      21    -1     0     0   501   502  0.000000000E+00  0.000000000E+00 -6.981823910E+02  6.981823910E+02  0.000000000E+00  0.00000E+00  9.000E+00
      25     1     1     2     0     0  4.103768398E+01 -7.093414548E+01 -2.467518297E+02  2.884912650E+02  1.250000000E+02  0.00000E+00  9.000E+00
      25     1     1     2     0     0 -1.325797004E+02  7.668427617E+01 -3.225025008E+02  3.782733380E+02  1.250000000E+02  0.00000E+00  9.000E+00
       4     1     1     2   501     0  9.154201641E+01 -5.750130691E+00 -5.393899037E+01  1.064068581E+02  1.348699152E-06  0.00000E+00  9.000E+00
#rwgt            1           1   2.7245553623803438E-002           6      220216           0
</event>
<event>
      5   9999  3.79277E-02  3.86735E+01 -1.00000E+00  1.45754E-01
      21    -1     0     0   502   501  0.000000000E+00  0.000000000E+00  1.326179004E+02  1.326179004E+02  0.000000000E+00  0.00000E+00  9.000E+00
      21    -1     0     0   511   502  0.000000000E+00  0.000000000E+00 -4.473880248E+02  4.473880248E+02  0.000000000E+00  0.00000E+00  9.000E+00
      25     1     1     2     0     0 -3.801946490E+01  4.478050616E+01  6.769793014E+01  1.538141189E+02  1.250000000E+02  0.00000E+00  9.000E+00
      25     1     1     2     0     0  5.133613029E+00 -6.513140876E+01 -3.433176769E+02  3.711609916E+02  1.250000000E+02  0.00000E+00  9.000E+00
      21     1     1     2   511   501  3.288585187E+01  2.035090261E+01 -3.915037764E+01  5.503081464E+01  0.000000000E+00  0.00000E+00  9.000E+00
#rwgt            1           1   4.4368743471757593E-002           6      220273           0
</event>
<event>
      5   9999  3.79277E-02  9.24676E+01 -1.00000E+00  1.25377E-01
      21    -1     0     0   502   501  0.000000000E+00  0.000000000E+00  2.300613694E+02  2.300613694E+02  0.000000000E+00  0.00000E+00  9.000E+00
      21    -1     0     0   501   512  0.000000000E+00  0.000000000E+00 -2.642852578E+02  2.642852578E+02  0.000000000E+00  0.00000E+00  9.000E+00
      25     1     1     2     0     0 -1.003889346E+02  3.108836201E+01  2.532758762E+01  1.652601317E+02  1.250000000E+02  0.00000E+00  9.000E+00
      25     1     1     2     0     0  1.721852028E+02 -8.935970309E+01 -3.500646619E+01  2.334166945E+02  1.250000000E+02  0.00000E+00  9.000E+00
      21     1     1     2   502   512 -7.179626823E+01  5.827134108E+01 -2.454500979E+01  9.566980103E+01  1.305872339E-06  0.00000E+00  9.000E+00
#rwgt            1           1   5.3539113398699413E-002           6      220359           0
</event>
<event>
      5   9999  3.79277E-02  1.00766E+01 -1.00000E+00  1.95375E-01
      21    -1     0     0   502   501  0.000000000E+00  0.000000000E+00  3.930461906E+01  3.930461906E+01  0.000000000E+00  0.00000E+00  9.000E+00
      21    -1     0     0   511   502  0.000000000E+00  0.000000000E+00 -1.333498475E+03  1.333498475E+03  0.000000000E+00  0.00000E+00  9.000E+00
      25     1     1     2     0     0 -8.601696383E+01  1.289746022E+02 -8.488964073E+02  8.719423584E+02  1.250000000E+02  0.00000E+00  9.000E+00
      25     1     1     2     0     0  8.922020457E+01 -1.194207382E+02 -3.153939083E+02  3.705669643E+02  1.250000000E+02  0.00000E+00  9.000E+00
      21     1     1     2   511   501 -3.203240745E+00 -9.553864036E+00 -1.299035407E+02  1.302937717E+02  2.697398305E-06  0.00000E+00  9.000E+00
#rwgt            1           1   3.8668188166050992E-002           6      220466           0
</event>
<event>
      5   9999 -3.79277E-02  3.58377E+01 -1.00000E+00  1.47863E-01
       2    -1     0     0   502     0  0.000000000E+00  0.000000000E+00  1.131136938E+03  1.131136938E+03  0.000000000E+00  0.00000E+00  9.000E+00
      21    -1     0     0   501   502  0.000000000E+00  0.000000000E+00 -6.167856678E+01  6.167856678E+01  0.000000000E+00  0.00000E+00  9.000E+00
      25     1     1     2     0     0  5.053427183E+01  1.721478244E+02  2.698641346E+02  3.473330351E+02  1.250000000E+02  0.00000E+00  9.000E+00
      25     1     1     2     0     0 -2.978699765E+01 -2.013692726E+02  7.000499987E+02  7.396836147E+02  1.250000000E+02  0.00000E+00  9.000E+00
       2     1     1     2   501     0 -2.074727418E+01  2.922144822E+01  9.954423747E+01  1.057988546E+02  2.336015456E-06  0.00000E+00  9.000E+00
#rwgt            1           1  -5.1290620687538306E-002           6      220726           0
</event>
<event>
      5   9999  3.79277E-02  1.02101E+01 -1.00000E+00  1.94719E-01
      21    -1     0     0   511   501  0.000000000E+00  0.000000000E+00  1.166825516E+02  1.166825516E+02  0.000000000E+00  0.00000E+00  9.000E+00
      21    -1     0     0   501   502  0.000000000E+00  0.000000000E+00 -4.686060403E+02  4.686060403E+02  0.000000000E+00  0.00000E+00  9.000E+00
      25     1     1     2     0     0  3.041478619E+01  7.563336648E+01 -3.909258905E+02  4.184417728E+02  1.250000000E+02  0.00000E+00  9.000E+00
      25     1     1     2     0     0 -2.480917942E+01 -6.709972567E+01  2.017622590E+01  1.454302192E+02  1.250000000E+02  0.00000E+00  9.000E+00
      21     1     1     2   511   502 -5.605606771E+00 -8.533640808E+00  1.882617594E+01  2.141659995E+01  4.129530925E-07  0.00000E+00  9.000E+00
#rwgt            1           1   4.6962647440369709E-002           6      220838           0
</event>
<event>
      5   9999  3.79277E-02  5.43952E+01 -1.00000E+00  1.37019E-01
      21    -1     0     0   502   501  0.000000000E+00  0.000000000E+00  2.093730135E+02  2.093730135E+02  0.000000000E+00  0.00000E+00  9.000E+00
      21    -1     0     0   501   512  0.000000000E+00  0.000000000E+00 -3.367787798E+02  3.367787798E+02  0.000000000E+00  0.00000E+00  9.000E+00
      25     1     1     2     0     0 -1.458743842E+02 -8.336053735E+01  7.179396721E+01  2.213768029E+02  1.250000000E+02  0.00000E+00  9.000E+00
      25     1     1     2     0     0  1.559848290E+02  2.991316522E+01 -1.569231816E+02  2.558826865E+02  1.250000000E+02  0.00000E+00  9.000E+00
      21     1     1     2   502   512 -1.011044482E+01  5.344737213E+01 -4.227655193E+01  6.889230382E+01  1.430511475E-06  0.00000E+00  9.000E+00
#rwgt            1           1   3.6361676845729177E-002           6      221056           0
</event>
<event>
      5   9999  3.79277E-02  1.28042E+02 -1.00000E+00  1.19185E-01
      21    -1     0     0   502   511  0.000000000E+00  0.000000000E+00  2.479474740E+03  2.479474740E+03  0.000000000E+00  0.00000E+00  9.000E+00
      21    -1     0     0   501   502  0.000000000E+00  0.000000000E+00 -3.899395968E+01  3.899395968E+01  0.000000000E+00  0.00000E+00  9.000E+00
      25     1     1     2     0     0  2.701812476E+01 -5.445158469E+01  1.260232708E+02  1.876214778E+02  1.250000000E+02  0.00000E+00  9.000E+00
      25     1     1     2     0     0  3.608681400E+01 -5.695995220E+01  9.760957202E+02  9.863744467E+02  1.250000000E+02  0.00000E+00  9.000E+00
      21     1     1     2   501   511 -6.310493876E+01  1.114115369E+02  1.338361789E+03  1.344472775E+03  2.157918644E-05  0.00000E+00  9.000E+00
#rwgt            1           1   4.6535684043876424E-002           6      221290           0
</event>
<event>
      5   9999  3.79277E-02  1.67896E+02 -1.00000E+00  1.14486E-01
      21    -1     0     0   502   501  0.000000000E+00  0.000000000E+00  8.721019601E+02  8.721019601E+02  0.000000000E+00  0.00000E+00  9.000E+00
      21    -1     0     0   512   502  0.000000000E+00  0.000000000E+00 -2.342957351E+02  2.342957351E+02  0.000000000E+00  0.00000E+00  9.000E+00
      25     1     1     2     0     0 -1.014858447E+02  2.092762370E+02  4.941091600E+02  5.602363627E+02  1.250000000E+02  0.00000E+00  9.000E+00
      25     1     1     2     0     0  1.322613184E+02 -4.422514061E+01  2.752113652E+02  3.328891932E+02  1.250000000E+02  0.00000E+00  9.000E+00
      21     1     1     2   512   501 -3.077547364E+01 -1.650510964E+02 -1.315143003E+02  2.132721393E+02  4.672030912E-06  0.00000E+00  9.000E+00
#rwgt            1           1   4.6662173309588863E-002           6      221359           0
</event>
<event>
      5   9999  3.79277E-02  1.28471E+02 -1.00000E+00  1.19124E-01
      21    -1     0     0   511   501  0.000000000E+00  0.000000000E+00  2.698375845E+02  2.698375845E+02  0.000000000E+00  0.00000E+00  9.000E+00
      21    -1     0     0   501   502  0.000000000E+00  0.000000000E+00 -2.718231363E+02  2.718231363E+02  0.000000000E+00  0.00000E+00  9.000E+00
      25     1     1     2     0     0  5.682490107E+01  3.276611532E+01  1.040009488E+02  1.753393425E+02  1.250000000E+02  0.00000E+00  9.000E+00
      25     1     1     2     0     0 -9.484064651E+00 -1.521963804E+02 -1.292474994E+02  2.357617479E+02  1.250000000E+02  0.00000E+00  9.000E+00
      21     1     1     2   511   502 -4.734083642E+01  1.194302651E+02  2.326099880E+01  1.305596303E+02  1.261592536E-06  0.00000E+00  9.000E+00
#rwgt            1           1   4.7445842767209305E-002           6      221510           0
</event>
<event>
      5   9999  3.79277E-02  5.86601E+01 -1.00000E+00  1.35230E-01
      21    -1     0     0   502   501  0.000000000E+00  0.000000000E+00  2.825270365E+02  2.825270365E+02  0.000000000E+00  0.00000E+00  9.000E+00
      21    -1     0     0   512   502  0.000000000E+00  0.000000000E+00 -3.833217280E+02  3.833217280E+02  0.000000000E+00  0.00000E+00  9.000E+00
      25     1     1     2     0     0  5.734255275E+01 -2.310180676E+02  2.885337247E+01  2.703979160E+02  1.250000000E+02  0.00000E+00  9.000E+00
      25     1     1     2     0     0 -1.007816415E+02  2.704395681E+02 -1.159950050E+02  3.352228221E+02  1.250000000E+02  0.00000E+00  9.000E+00
      21     1     1     2   512   501  4.343908879E+01 -3.942150054E+01 -1.365305894E+01  6.022802635E+01  5.840038640E-07  0.00000E+00  9.000E+00
#rwgt            2          11   4.0128457860995935E-003           6      221686           0
</event>
<event>
      5   9999  3.79277E-02  7.11569E+01 -1.00000E+00  1.30861E-01
      21    -1     0     0   502   501  0.000000000E+00  0.000000000E+00  2.807817301E+02  2.807817301E+02  0.000000000E+00  0.00000E+00  9.000E+00
      21    -1     0     0   511   502  0.000000000E+00  0.000000000E+00 -4.553909930E+02  4.553909930E+02  0.000000000E+00  0.00000E+00  9.000E+00
      25     1     1     2     0     0  9.053536204E+01 -1.468687726E+02 -2.454486271E+02  3.250186405E+02  1.250000000E+02  0.00000E+00  9.000E+00
      25     1     1     2     0     0 -2.471021829E+01  1.738937530E+02  1.800020248E+02  2.808475763E+02  1.250000000E+02  0.00000E+00  9.000E+00
      21     1     1     2   511   501 -6.582514375E+01 -2.702498040E+01 -1.091626606E+02  1.303065063E+02  1.907348633E-06  0.00000E+00  9.000E+00
#rwgt            1           1   2.7588540372286422E-002           6      221706           0
</event>
<event>
      5   9999  3.79277E-02  7.21746E+00 -1.00000E+00  2.13693E-01
      21    -1     0     0   502   501  0.000000000E+00  0.000000000E+00  2.624629045E+02  2.624629045E+02  0.000000000E+00  0.00000E+00  9.000E+00
      21    -1     0     0   501   512  0.000000000E+00  0.000000000E+00 -1.641748222E+02  1.641748222E+02  0.000000000E+00  0.00000E+00  9.000E+00
      25     1     1     2     0     0  1.824502171E+00 -1.147477688E+02 -5.618388717E+01  1.787512474E+02  1.250000000E+02  0.00000E+00  9.000E+00
      25     1     1     2     0     0  3.613985254E+00  1.100028182E+02  1.654423016E+02  2.347548425E+02  1.250000000E+02  0.00000E+00  9.000E+00
      21     1     1     2   502   512 -5.438487425E+00  4.744950613E+00 -1.097033207E+01  1.313163689E+01  1.192092896E-07  0.00000E+00  9.000E+00
#rwgt            1           1   3.8333645244626458E-002           6      221768           0
</event>
<event>
      5   9999  3.79277E-02  3.56227E+01 -1.00000E+00  1.48032E-01
      21    -1     0     0   502   501  0.000000000E+00  0.000000000E+00  3.709313651E+02  3.709313651E+02  0.000000000E+00  0.00000E+00  9.000E+00
       2    -1     0     0   501     0  0.000000000E+00  0.000000000E+00 -5.132260692E+02  5.132260692E+02  0.000000000E+00  0.00000E+00  9.000E+00
      25     1     1     2     0     0  2.339291607E+01 -9.554051831E+01 -1.771234497E+02  2.380607813E+02  1.250000000E+02  0.00000E+00  9.000E+00
      25     1     1     2     0     0 -5.424080843E+01  7.772515180E+01  3.212307839E+02  3.574877355E+02  1.250000000E+02  0.00000E+00  9.000E+00
       2     1     1     2   502     0  3.084789236E+01  1.781536650E+01 -2.864020382E+02  2.886089175E+02  3.814697266E-06  0.00000E+00  9.000E+00
#rwgt            1           1   3.7456986786996736E-002           6      222207           0
</event>
<event>
      5   9999  3.79277E-02  2.40834E+02 -1.00000E+00  1.08787E-01
      21    -1     0     0   502   501  0.000000000E+00  0.000000000E+00  5.481992862E+02  5.481992862E+02  0.000000000E+00  0.00000E+00  9.000E+00
       2    -1     0     0   501     0  0.000000000E+00  0.000000000E+00 -1.910549846E+03  1.910549846E+03  0.000000000E+00  0.00000E+00  9.000E+00
      25     1     1     2     0     0 -4.495002528E+02  3.845010972E+02 -1.318648615E+02  6.187931098E+02  1.250000000E+02  0.00000E+00  9.000E+00
      25     1     1     2     0     0  6.188049857E+02 -5.557811426E+02 -3.228744719E+02  9.009357432E+02  1.250000000E+02  0.00000E+00  9.000E+00
       2     1     1     2   502     0 -1.693047329E+02  1.712800454E+02 -9.076112261E+02  9.390202789E+02  1.078959322E-05  0.00000E+00  9.000E+00
#rwgt            1           1   1.8548458009924836E-002           6      222343           0
</event>
<event>
      5   9999  3.79277E-02  2.68292E+01 -1.00000E+00  1.56488E-01
      21    -1     0     0   511   501  0.000000000E+00  0.000000000E+00  2.053970857E+03  2.053970857E+03  0.000000000E+00  0.00000E+00  9.000E+00
      21    -1     0     0   501   502  0.000000000E+00  0.000000000E+00 -6.875370828E+01  6.875370828E+01  0.000000000E+00  0.00000E+00  9.000E+00
      25     1     1     2     0     0 -8.928712675E+01  1.634435045E+01  5.103686852E+01  1.626932412E+02  1.250000000E+02  0.00000E+00  9.000E+00
      25     1     1     2     0     0  1.136238892E+02 -5.051582224E+00  5.452096198E+02  5.708015734E+02  1.250000000E+02  0.00000E+00  9.000E+00
      21     1     1     2   511   502 -2.433676241E+01 -1.129276823E+01  1.388970661E+03  1.389229751E+03  1.525878906E-05  0.00000E+00  9.000E+00
#rwgt            1           1   4.3114476628090224E-002           6      222470           0
</event>
<event>
      5   9999  3.79277E-02  1.45441E+01 -1.00000E+00  1.78656E-01
      21    -1     0     0   512   501  0.000000000E+00  0.000000000E+00  2.838500148E+02  2.838500148E+02  0.000000000E+00  0.00000E+00  9.000E+00
      21    -1     0     0   501   502  0.000000000E+00  0.000000000E+00 -8.783654474E+01  8.783654474E+01  0.000000000E+00  0.00000E+00  9.000E+00
      25     1     1     2     0     0  3.362246354E+01 -3.997096130E+01  1.809232169E+01  1.366765521E+02  1.250000000E+02  0.00000E+00  9.000E+00
      25     1     1     2     0     0 -4.780084333E+01  3.673013097E+01  1.571740827E+02  2.096728772E+02  1.250000000E+02  0.00000E+00  9.000E+00
      21     1     1     2   512   502  1.417837979E+01  3.240830327E+00  2.074706568E+01  2.533713024E+01  4.768371582E-07  0.00000E+00  9.000E+00
#rwgt            1           1  0.11699516121580930                6      222634           0
</event>
<event>
      5   9999  3.79277E-02  2.31458E+01 -1.00000E+00  1.61299E-01
      21    -1     0     0   511   501  0.000000000E+00  0.000000000E+00  2.379373740E+02  2.379373740E+02  0.000000000E+00  0.00000E+00  9.000E+00
      21    -1     0     0   501   502  0.000000000E+00  0.000000000E+00 -2.717940382E+02  2.717940382E+02  0.000000000E+00  0.00000E+00  9.000E+00
      25     1     1     2     0     0 -1.276160721E+02 -4.488879867E+01  1.222081841E+02  2.210445801E+02  1.250000000E+02  0.00000E+00  9.000E+00
      25     1     1     2     0     0  1.494018243E+02  3.707144060E+01 -1.704092223E+02  2.614564971E+02  1.250000000E+02  0.00000E+00  9.000E+00
      21     1     1     2   511   502 -2.178575214E+01  7.817358069E+00  1.434437400E+01  2.723033509E+01  2.384185791E-07  0.00000E+00  9.000E+00
#rwgt            1           1   4.1087148131845191E-002           6      222833           0
</event>
<event>
      5   9999  3.79277E-02  4.95356E+01 -1.00000E+00  1.39307E-01
      21    -1     0     0   502   501  0.000000000E+00  0.000000000E+00  1.074349203E+03  1.074349203E+03  0.000000000E+00  0.00000E+00  9.000E+00
      21    -1     0     0   512   502  0.000000000E+00  0.000000000E+00 -2.023987473E+02  2.023987473E+02  0.000000000E+00  0.00000E+00  9.000E+00
      25     1     1     2     0     0  5.887352658E+01 -1.829582192E+02  5.692582563E+02  6.136935428E+02  1.250000000E+02  0.00000E+00  9.000E+00
      25     1     1     2     0     0 -9.436334168E+01  2.175161247E+02  4.410433566E+02  5.161026518E+02  1.250000000E+02  0.00000E+00  9.000E+00
      21     1     1     2   512   501  3.548981510E+01 -3.455790548E+01 -1.383511572E+02  1.469517557E+02  2.697398305E-06  0.00000E+00  9.000E+00
#rwgt            2          11   1.7382755737067551E-003           6      223009           0
</event>
<event>
      5   9999  3.79277E-02  9.52490E+01 -1.00000E+00  1.24786E-01
      21    -1     0     0   502   501  0.000000000E+00  0.000000000E+00  3.660929938E+03  3.660929938E+03  0.000000000E+00  0.00000E+00  9.000E+00
      21    -1     0     0   511   502  0.000000000E+00  0.000000000E+00 -3.527104304E+01  3.527104304E+01  0.000000000E+00  0.00000E+00  9.000E+00
      25     1     1     2     0     0 -1.872583193E+02  2.032016373E+02  1.196708795E+03  1.234541827E+03  1.250000000E+02  0.00000E+00  9.000E+00
      25     1     1     2     0     0  9.571262125E+01 -2.295028154E+02  2.124639943E+03  2.142790782E+03  1.250000000E+02  0.00000E+00  9.000E+00
      21     1     1     2   511   501  9.154569810E+01  2.630117811E+01  3.043101580E+02  3.188683726E+02  7.629394531E-06  0.00000E+00  9.000E+00
#rwgt            1           1   2.5760704494087353E-002           6      223029           0
</event>
<event>
      5   9999  3.79277E-02  4.49018E+01 -1.00000E+00  1.41794E-01
      21    -1     0     0   502   512  0.000000000E+00  0.000000000E+00  3.098228680E+02  3.098228680E+02  0.000000000E+00  0.00000E+00  9.000E+00
      21    -1     0     0   501   502  0.000000000E+00  0.000000000E+00 -1.956827093E+02  1.956827093E+02  0.000000000E+00  0.00000E+00  9.000E+00
      25     1     1     2     0     0 -1.587863785E+02  2.595679559E+01 -1.399288660E+01  2.042245580E+02  1.250000000E+02  0.00000E+00  9.000E+00
      25     1     1     2     0     0  1.377567328E+02  1.371594429E+01  2.422653284E+01  1.880876643E+02  1.250000000E+02  0.00000E+00  9.000E+00
      21     1     1     2   501   512  2.102964565E+01 -3.967273989E+01  1.039065124E+02  1.131933550E+02  1.348699152E-06  0.00000E+00  9.000E+00
#rwgt            1           1   4.8077820996250110E-002           6      223085           0
</event>
<event>
      5   9999  3.79277E-02  8.16304E+01 -1.00000E+00  1.27927E-01
      21    -1     0     0   502   501  0.000000000E+00  0.000000000E+00  2.584965287E+02  2.584965287E+02  0.000000000E+00  0.00000E+00  9.000E+00
      21    -1     0     0   501   511  0.000000000E+00  0.000000000E+00 -4.389807820E+02  4.389807820E+02  0.000000000E+00  0.00000E+00  9.000E+00
      25     1     1     2     0     0  1.237925242E+02  9.589938341E+01  1.765120527E+02  2.670258144E+02  1.250000000E+02  0.00000E+00  9.000E+00
      25     1     1     2     0     0 -8.496758715E+01 -2.409306349E+01 -1.852796359E+02  2.403195999E+02  1.250000000E+02  0.00000E+00  9.000E+00
      21     1     1     2   502   511 -3.882493706E+01 -7.180631992E+01 -1.717166700E+02  1.901318966E+02  3.303624740E-06  0.00000E+00  9.000E+00
#rwgt            1           1   2.7575291111275359E-002           6      223287           0
</event>
<event>
      5   9999  3.79277E-02  9.43593E+01 -1.00000E+00  1.24973E-01
      21    -1     0     0   512   501  0.000000000E+00  0.000000000E+00  8.255135387E+02  8.255135387E+02  0.000000000E+00  0.00000E+00  9.000E+00
      21    -1     0     0   501   502  0.000000000E+00  0.000000000E+00 -1.207898491E+02  1.207898491E+02  0.000000000E+00  0.00000E+00  9.000E+00
      25     1     1     2     0     0 -7.786926063E+01 -2.595773818E+01 -4.564107721E+01  1.563506759E+02  1.250000000E+02  0.00000E+00  9.000E+00
      25     1     1     2     0     0  2.441304186E+00  8.265255072E+01  5.153978150E+02  5.367469719E+02  1.250000000E+02  0.00000E+00  9.000E+00
      21     1     1     2   512   502  7.542795644E+01 -5.669481254E+01  2.349669518E+02  2.532057401E+02  4.672030912E-06  0.00000E+00  9.000E+00
#rwgt            1           1   3.4206611744251401E-002           6      223368           0
</event>
<event>
      5   9999  3.79277E-02  3.22041E+01 -1.00000E+00  1.50932E-01
      21    -1     0     0   502   511  0.000000000E+00  0.000000000E+00  4.961504707E+02  4.961504707E+02  0.000000000E+00  0.00000E+00  9.000E+00
      21    -1     0     0   501   502  0.000000000E+00  0.000000000E+00 -1.156296670E+02  1.156296670E+02  0.000000000E+00  0.00000E+00  9.000E+00
      25     1     1     2     0     0  1.337673659E+02  1.434212649E+02  1.979432671E+02  3.054012187E+02  1.250000000E+02  0.00000E+00  9.000E+00
      25     1     1     2     0     0 -1.045677151E+02 -1.298387687E+02  1.327917222E+02  2.470853180E+02  1.250000000E+02  0.00000E+00  9.000E+00
      21     1     1     2   501   511 -2.919965082E+01 -1.358249616E+01  4.978581437E+01  5.929360102E+01  0.000000000E+00  0.00000E+00  9.000E+00
#rwgt            1           1   3.9539281252360482E-002           6      223468           0
</event>
<event>
      5   9999  3.79277E-02  1.21948E+01 -1.00000E+00  1.86296E-01
      21    -1     0     0   512   501  0.000000000E+00  0.000000000E+00  6.110297882E+02  6.110297882E+02  0.000000000E+00  0.00000E+00  9.000E+00
      21    -1     0     0   501   502  0.000000000E+00  0.000000000E+00 -8.667296089E+01  8.667296089E+01  0.000000000E+00  0.00000E+00  9.000E+00
      25     1     1     2     0     0  7.576161208E+01  1.063981817E+02  2.257982152E+02  2.892580663E+02  1.250000000E+02  0.00000E+00  9.000E+00
      25     1     1     2     0     0 -8.596007349E+01 -1.130842880E+02  1.087407862E+02  2.182355357E+02  1.250000000E+02  0.00000E+00  9.000E+00
      21     1     1     2   512   502  1.019846140E+01  6.686106358E+00  1.898178259E+02  1.902091471E+02  3.814697266E-06  0.00000E+00  9.000E+00
#rwgt            1           1   2.7051072203821018E-002           6      223644           0
</event>
<event>
      5   9999  3.79277E-02  4.54617E+01 -1.00000E+00  1.41475E-01
      21    -1     0     0   511   501  0.000000000E+00  0.000000000E+00  1.259790738E+02  1.259790738E+02  0.000000000E+00  0.00000E+00  9.000E+00
      21    -1     0     0   501   502  0.000000000E+00  0.000000000E+00 -4.296297578E+02  4.296297578E+02  0.000000000E+00  0.00000E+00  9.000E+00
      25     1     1     2     0     0 -1.040855074E+01  9.310791516E+01 -2.701318780E+02  3.120475177E+02  1.250000000E+02  0.00000E+00  9.000E+00
      25     1     1     2     0     0  6.884609440E+00 -1.384328139E+02 -5.311688054E+01  1.940552623E+02  1.250000000E+02  0.00000E+00  9.000E+00
      21     1     1     2   511   502  3.523941300E+00  4.532489877E+01  1.959807463E+01  4.950605155E+01  8.920806376E-07  0.00000E+00  9.000E+00
#rwgt            1           1   3.7161673364814574E-002           6      223876           0
</event>
<event>
      5   9999 -3.79277E-02  1.63821E+02 -1.00000E+00  1.14897E-01
      21    -1     0     0   502   501  0.000000000E+00  0.000000000E+00  5.614299363E+01  5.614299363E+01  0.000000000E+00  0.00000E+00  9.000E+00
       2    -1     0     0   501     0  0.000000000E+00  0.000000000E+00 -2.427925499E+03  2.427925499E+03  0.000000000E+00  0.00000E+00  9.000E+00
      25     1     1     2     0     0 -6.612403806E+01 -8.030422362E+01 -1.046429463E+03  1.058990453E+03  1.250000000E+02  0.00000E+00  9.000E+00
      25     1     1     2     0     0 -1.201674099E+01  2.242875160E+02 -3.401743422E+02  4.263717568E+02  1.250000000E+02  0.00000E+00  9.000E+00
       2     1     1     2   502     0  7.814077905E+01 -1.439832923E+02 -9.851786994E+02  9.987062829E+02  1.078959322E-05  0.00000E+00  9.000E+00
#rwgt            1           1 -0.16249193840146703                6      223985           0
</event>
<event>
      5   9999  3.79277E-02  1.66369E+01 -1.00000E+00  1.73248E-01
      -2    -1     0     0     0   501  0.000000000E+00  0.000000000E+00  3.327706465E+02  3.327706465E+02  0.000000000E+00  0.00000E+00  9.000E+00
      21    -1     0     0   501   502  0.000000000E+00  0.000000000E+00 -1.488682702E+03  1.488682702E+03  0.000000000E+00  0.00000E+00  9.000E+00
      25     1     1     2     0     0  9.489064631E+00  6.972834298E+01 -9.411200799E+02  9.519895425E+02  1.250000000E+02  0.00000E+00  9.000E+00
      25     1     1     2     0     0 -2.595337732E+01 -7.211825914E+01 -5.319914443E+02  5.518283410E+02  1.250000000E+02  0.00000E+00  9.000E+00
      -2     1     1     2     0   502  1.646431269E+01  2.389916152E+00  3.171994690E+02  3.176354647E+02  0.000000000E+00  0.00000E+00  9.000E+00
#rwgt            1           1  0.10560976868759135                6      224056           0
</event>
<event>
      5   9999  3.79277E-02  3.24816E+01 -1.00000E+00  1.50680E-01
      21    -1     0     0   502   501  0.000000000E+00  0.000000000E+00  1.087590961E+03  1.087590961E+03  0.000000000E+00  0.00000E+00  9.000E+00
      21    -1     0     0   501   511  0.000000000E+00  0.000000000E+00 -6.782524254E+01  6.782524254E+01  0.000000000E+00  0.00000E+00  9.000E+00
      25     1     1     2     0     0  1.150024338E+02 -1.114637780E+02  7.583522571E+02  7.850941851E+02  1.250000000E+02  0.00000E+00  9.000E+00
      25     1     1     2     0     0 -9.903532801E+01  1.397499701E+02  2.629604403E+02  3.378035576E+02  1.250000000E+02  0.00000E+00  9.000E+00
      21     1     1     2   502   511 -1.596710579E+01 -2.828619206E+01 -1.546979346E+00  3.251846050E+01  8.229435248E-07  0.00000E+00  9.000E+00
#rwgt            1           1   3.7461036217929809E-002           6      224215           0
</event>
<event>
      5   9999  3.79277E-02  1.31178E+01 -1.00000E+00  1.83051E-01
      21    -1     0     0   512   501  0.000000000E+00  0.000000000E+00  2.451501232E+02  2.451501232E+02  0.000000000E+00  0.00000E+00  9.000E+00
      21    -1     0     0   501   502  0.000000000E+00  0.000000000E+00 -2.608067980E+02  2.608067980E+02  0.000000000E+00  0.00000E+00  9.000E+00
      25     1     1     2     0     0  4.592793404E+01 -1.486449745E+02  1.382196120E+01  2.000518688E+02  1.250000000E+02  0.00000E+00  9.000E+00
      25     1     1     2     0     0 -4.270975354E+01  1.613619271E+02 -1.020442119E+02  2.321633385E+02  1.250000000E+02  0.00000E+00  9.000E+00
      21     1     1     2   512   502 -3.218180504E+00 -1.271695254E+01  7.256557590E+01  7.374171393E+01  1.348699152E-06  0.00000E+00  9.000E+00
#rwgt            1           1   4.1526078431536863E-002           6      224349           0
</event>
<event>
      5   9999  3.79277E-02  2.48815E+01 -1.00000E+00  1.58906E-01
      21    -1     0     0   511   501  0.000000000E+00  0.000000000E+00  4.584567367E+02  4.584567367E+02  0.000000000E+00  0.00000E+00  9.000E+00
      21    -1     0     0   501   502  0.000000000E+00  0.000000000E+00 -1.007183843E+02  1.007183843E+02  0.000000000E+00  0.00000E+00  9.000E+00
      25     1     1     2     0     0  8.486441675E+01 -8.813179367E+01  4.426072894E+01  1.804250382E+02  1.250000000E+02  0.00000E+00  9.000E+00
      25     1     1     2     0     0 -1.094374760E+02  8.422635338E+01  2.607524987E+02  3.204489122E+02  1.250000000E+02  0.00000E+00  9.000E+00
      21     1     1     2   511   502  2.457305926E+01  3.905440288E+00  5.272512478E+01  5.830117056E+01  6.743495762E-07  0.00000E+00  9.000E+00
#rwgt            1           1   3.3818362105670983E-002           6      224753           0
</event>
<event>
      5   9999  3.79277E-02  4.34964E+01 -1.00000E+00  1.42619E-01
      21    -1     0     0   502   501  0.000000000E+00  0.000000000E+00  1.481590147E+02  1.481590147E+02  0.000000000E+00  0.00000E+00  9.000E+00
      21    -1     0     0   512   502  0.000000000E+00  0.000000000E+00 -2.328081171E+02  2.328081171E+02  0.000000000E+00  0.00000E+00  9.000E+00
      25     1     1     2     0     0 -5.891885930E+01 -9.499792909E+01 -3.902269363E+01  1.721737760E+02  1.250000000E+02  0.00000E+00  9.000E+00
      25     1     1     2     0     0  5.433630491E+01  5.174357020E+01 -4.750731356E-02  1.457903747E+02  1.250000000E+02  0.00000E+00  9.000E+00
      21     1     1     2   512   501  4.582554386E+00  4.325435888E+01 -4.557890147E+01  6.300298109E+01  6.743495762E-07  0.00000E+00  9.000E+00
#rwgt            1           1   3.8917910573301143E-002           6      224910           0
</event>
<event>
      5   9999  3.79277E-02  3.19668E+01 -1.00000E+00  1.51149E-01
      21    -1     0     0   502   511  0.000000000E+00  0.000000000E+00  9.986616854E+02  9.986616854E+02  0.000000000E+00  0.00000E+00  9.000E+00
      21    -1     0     0   501   502  0.000000000E+00  0.000000000E+00 -7.693728874E+01  7.693728874E+01  0.000000000E+00  0.00000E+00  9.000E+00
      25     1     1     2     0     0  2.003567958E+00  1.011493743E+02  3.766223073E+02  4.095174875E+02  1.250000000E+02  0.00000E+00  9.000E+00
      25     1     1     2     0     0 -3.391021212E+01 -9.918945625E+01  5.096562264E+01  1.709120985E+02  1.250000000E+02  0.00000E+00  9.000E+00
      21     1     1     2   501   511  3.190664416E+01 -1.959918084E+00  4.941364667E+02  4.951693881E+02  5.394796609E-06  0.00000E+00  9.000E+00
#rwgt            1           1   4.3094576803447707E-002           6      225121           0
</event>
<event>
      5   9999  3.79277E-02  7.57830E+01 -1.00000E+00  1.29498E-01
      21    -1     0     0   502   501  0.000000000E+00  0.000000000E+00  5.806933897E+01  5.806933897E+01  0.000000000E+00  0.00000E+00  9.000E+00
      21    -1     0     0   512   502  0.000000000E+00  0.000000000E+00 -2.461477133E+03  2.461477133E+03  0.000000000E+00  0.00000E+00  9.000E+00
      25     1     1     2     0     0  1.643901995E+02 -8.706155787E+01 -3.682227621E+02  4.310647922E+02  1.250000000E+02  0.00000E+00  9.000E+00
      25     1     1     2     0     0 -1.085141073E+02  1.382565239E+02 -4.257288154E+02  4.772422888E+02  1.250000000E+02  0.00000E+00  9.000E+00
      21     1     1     2   512   501 -5.587609224E+01 -5.119496607E+01 -1.609456217E+03  1.611239391E+03  2.157918644E-05  0.00000E+00  9.000E+00
#rwgt            1           1   4.0630245204225694E-002           6      225384           0
</event>
<event>
      5   9999  3.79277E-02  5.38662E+01 -1.00000E+00  1.37255E-01
      21    -1     0     0   502   501  0.000000000E+00  0.000000000E+00  1.469609827E+02  1.469609827E+02  0.000000000E+00  0.00000E+00  9.000E+00
      21    -1     0     0   501   511  0.000000000E+00  0.000000000E+00 -5.065997117E+02  5.065997117E+02  0.000000000E+00  0.00000E+00  9.000E+00
      25     1     1     2     0     0  1.139895701E+02  1.486175594E+02 -2.561520283E+02  3.410566854E+02  1.250000000E+02  0.00000E+00  9.000E+00
      25     1     1     2     0     0 -1.326658417E+02 -9.809266988E+01 -1.325917116E+01  2.074203535E+02  1.250000000E+02  0.00000E+00  9.000E+00
      21     1     1     2   502   511  1.867627151E+01 -5.052488950E+01 -9.022752944E+01  1.050836555E+02  9.536743164E-07  0.00000E+00  9.000E+00
#rwgt            1           1   3.7979197513083818E-002           6      225718           0
</event>
<event>
      5   9999  3.79277E-02  3.78857E+02 -1.00000E+00  1.02400E-01
      21    -1     0     0   502   501  0.000000000E+00  0.000000000E+00  2.513004937E+02  2.513004937E+02  0.000000000E+00  0.00000E+00  9.000E+00
      21    -1     0     0   512   502  0.000000000E+00  0.000000000E+00 -1.819021383E+03  1.819021383E+03  0.000000000E+00  0.00000E+00  9.000E+00
      25     1     1     2     0     0  2.242561303E+02  1.970413413E+02  3.393127081E+01  3.254111757E+02  1.250000000E+02  0.00000E+00  9.000E+00
      25     1     1     2     0     0 -1.412278650E+02  1.726058144E+02 -3.266113424E+02  4.147746931E+02  1.250000000E+02  0.00000E+00  9.000E+00
      21     1     1     2   512   501 -8.302826527E+01 -3.696471557E+02 -1.275040817E+03  1.330136008E+03  0.000000000E+00  0.00000E+00  9.000E+00
#rwgt            2          11   6.2824767324691977E-004           6      225806           0
</event>
<event>
      5   9999  3.79277E-02  1.62628E+01 -1.00000E+00  1.74139E-01
      21    -1     0     0   502   501  0.000000000E+00  0.000000000E+00  1.209853523E+02  1.209853523E+02  0.000000000E+00  0.00000E+00  9.000E+00
      21    -1     0     0   511   502  0.000000000E+00  0.000000000E+00 -3.349546246E+02  3.349546246E+02  0.000000000E+00  0.00000E+00  9.000E+00
      25     1     1     2     0     0 -1.494780444E+02 -6.700521205E+00 -1.368217274E+02  2.381885132E+02  1.250000000E+02  0.00000E+00  9.000E+00
      25     1     1     2     0     0  1.344630785E+02  1.294800777E+01 -5.874810725E+01  1.931950064E+02  1.250000000E+02  0.00000E+00  9.000E+00
      21     1     1     2   511   501  1.501496591E+01 -6.247486568E+00 -1.839943759E+01  2.455645726E+01  0.000000000E+00  0.00000E+00  9.000E+00
#rwgt            1           1   3.7096852078050975E-002           6      225841           0
</event>
<event>
      5   9999  3.79277E-02  1.42644E+01 -1.00000E+00  1.79466E-01
      21    -1     0     0   512   501  0.000000000E+00  0.000000000E+00  1.304030187E+02  1.304030187E+02  0.000000000E+00  0.00000E+00  9.000E+00
      21    -1     0     0   501   502  0.000000000E+00  0.000000000E+00 -7.253936041E+02  7.253936041E+02  0.000000000E+00  0.00000E+00  9.000E+00
      25     1     1     2     0     0 -3.214494698E+00  1.719976692E+02 -7.766437011E+00  2.127882720E+02  1.250000000E+02  0.00000E+00  9.000E+00
      25     1     1     2     0     0 -9.892301511E+00 -1.663687460E+02 -5.922982752E+02  6.278683493E+02  1.250000000E+02  0.00000E+00  9.000E+00
      21     1     1     2   512   502  1.310679621E+01 -5.628923185E+00  5.074126780E+00  1.514000151E+01  3.153981341E-07  0.00000E+00  9.000E+00
#rwgt            1           1   3.1451555284191482E-002           6      225977           0
</event>
<event>
      5   9999  3.79277E-02  1.04848E+02 -1.00000E+00  1.22910E-01
      21    -1     0     0   502   501  0.000000000E+00  0.000000000E+00  3.925702547E+02  3.925702547E+02  0.000000000E+00  0.00000E+00  9.000E+00
      21    -1     0     0   511   502  0.000000000E+00  0.000000000E+00 -4.457389625E+02  4.457389625E+02  0.000000000E+00  0.00000E+00  9.000E+00
      25     1     1     2     0     0 -5.998521842E+00 -2.937291411E+01  6.727125815E+01  1.450833296E+02  1.250000000E+02  0.00000E+00  9.000E+00
      25     1     1     2     0     0  5.611989048E+01 -6.271903159E+01  2.589552062E+02  2.996096091E+02  1.250000000E+02  0.00000E+00  9.000E+00
      21     1     1     2   511   501 -5.012136864E+01  9.209194570E+01 -3.793951722E+02  3.936162786E+02  9.344061824E-06  0.00000E+00  9.000E+00
#rwgt            1           1   6.8333877231814624E-002           6      226276           0
</event>
<event>
      5   9999  3.79277E-02  6.87641E+00 -1.00000E+00  2.16653E-01
      21    -1     0     0   502   501  0.000000000E+00  0.000000000E+00  2.110464948E+03  2.110464948E+03  0.000000000E+00  0.00000E+00  9.000E+00
      21    -1     0     0   501   512  0.000000000E+00  0.000000000E+00 -3.965861322E+01  3.965861322E+01  0.000000000E+00  0.00000E+00  9.000E+00
      25     1     1     2     0     0  6.610586335E+00  1.457611546E+02  1.546710885E+03  1.558598594E+03  1.250000000E+02  0.00000E+00  9.000E+00
      25     1     1     2     0     0 -6.463818466E+00 -1.388863101E+02  5.414694113E+02  5.728396909E+02  1.250000000E+02  0.00000E+00  9.000E+00
      21     1     1     2   502   512 -1.467678691E-01 -6.874844500E+00 -1.737396155E+01  1.868527676E+01  1.768159506E-06  0.00000E+00  9.000E+00
#rwgt            1           1  0.11854311178919177                6      226371           0
</event>
<event>
      5   9999  3.79277E-02  7.77771E+01 -1.00000E+00  1.28945E-01
      21    -1     0     0   511   501  0.000000000E+00  0.000000000E+00  1.817810307E+03  1.817810307E+03  0.000000000E+00  0.00000E+00  9.000E+00
      21    -1     0     0   501   502  0.000000000E+00  0.000000000E+00 -6.958187692E+01  6.958187692E+01  0.000000000E+00  0.00000E+00  9.000E+00
      25     1     1     2     0     0  1.865748356E+02 -2.115314767E+02  5.841371210E+02  6.606034446E+02  1.250000000E+02  0.00000E+00  9.000E+00
      25     1     1     2     0     0 -1.140143293E+02  2.395359605E+02  7.469070329E+02  8.024162632E+02  1.250000000E+02  0.00000E+00  9.000E+00
      21     1     1     2   511   502 -7.256050622E+01 -2.800448386E+01  4.171842766E+02  4.243724765E+02  0.000000000E+00  0.00000E+00  9.000E+00
#rwgt            1           1   3.9071104513303721E-002           6      226707           0
</event>
<event>
      5   9999  3.79277E-02  4.07835E+01 -1.00000E+00  1.44320E-01
      21    -1     0     0   502   512  0.000000000E+00  0.000000000E+00  1.171562619E+02  1.171562619E+02  0.000000000E+00  0.00000E+00  9.000E+00
      21    -1     0     0   501   502  0.000000000E+00  0.000000000E+00 -7.697405518E+02  7.697405518E+02  0.000000000E+00  0.00000E+00  9.000E+00
      25     1     1     2     0     0 -2.401900801E+01 -2.055057600E+02 -1.090622695E+02  2.651963589E+02  1.250000000E+02  0.00000E+00  9.000E+00
      25     1     1     2     0     0 -6.176099164E+00  1.780914046E+02 -5.382258923E+02  5.805745462E+02  1.250000000E+02  0.00000E+00  9.000E+00
      21     1     1     2   501   512  3.019510718E+01  2.741435538E+01 -5.296128042E+00  4.112590850E+01  5.960464478E-08  0.00000E+00  9.000E+00
#rwgt            1           1   4.5662685485645171E-002           6      226880           0
</event>
<event>
      5   9999  3.79277E-02  2.21562E+01 -1.00000E+00  1.62782E-01
      21    -1     0     0   502   501  0.000000000E+00  0.000000000E+00  6.325922439E+01  6.325922439E+01  0.000000000E+00  0.00000E+00  9.000E+00
      21    -1     0     0   501   511  0.000000000E+00  0.000000000E+00 -1.156907658E+03  1.156907658E+03  0.000000000E+00  0.00000E+00  9.000E+00
      25     1     1     2     0     0 -5.157845858E+01 -1.394512183E+02 -1.339882348E+02  2.359763267E+02  1.250000000E+02  0.00000E+00  9.000E+00
      25     1     1     2     0     0  3.067078278E+01  1.467838554E+02 -8.869118773E+02  9.081430918E+02  1.250000000E+02  0.00000E+00  9.000E+00
      21     1     1     2   502   511  2.090767581E+01 -7.332637083E+00 -7.274832109E+01  7.604746344E+01  1.651812370E-06  0.00000E+00  9.000E+00
#rwgt            1           1   3.9364417463091717E-002           6      227042           0
</event>
<event>
      5   9999  3.79277E-02  1.49605E+01 -1.00000E+00  1.77492E-01
       1    -1     0     0   502     0  0.000000000E+00  0.000000000E+00  7.787861321E+02  7.787861321E+02  0.000000000E+00  0.00000E+00  9.000E+00
      21    -1     0     0   501   502  0.000000000E+00  0.000000000E+00 -1.122769908E+02  1.122769908E+02  0.000000000E+00  0.00000E+00  9.000E+00
      25     1     1     2     0     0  1.770930597E+02  8.859992809E+01  1.493545020E+02  2.777474866E+02  1.250000000E+02  0.00000E+00  9.000E+00
      25     1     1     2     0     0 -1.920423023E+02 -8.801975305E+01  2.668961154E+02  3.626103408E+02  1.250000000E+02  0.00000E+00  9.000E+00
       1     1     1     2   501     0  1.494924259E+01 -5.801750425E-01  2.502585239E+02  2.507052956E+02  2.697398305E-06  0.00000E+00  9.000E+00
#rwgt            1           1   3.8374205421205704E-002           6      227287           0
</event>
<event>
      5   9999  3.79277E-02  8.65330E+00 -1.00000E+00  2.03311E-01
      21    -1     0     0   502   511  0.000000000E+00  0.000000000E+00  1.350408896E+03  1.350408896E+03  0.000000000E+00  0.00000E+00  9.000E+00
      21    -1     0     0   501   502  0.000000000E+00  0.000000000E+00 -5.603950394E+01  5.603950394E+01  0.000000000E+00  0.00000E+00  9.000E+00
      25     1     1     2     0     0  8.798506827E+01 -1.903415022E+02  4.214425846E+02  4.870422074E+02  1.250000000E+02  0.00000E+00  9.000E+00
      25     1     1     2     0     0 -9.342356653E+01  1.836107958E+02  6.033425625E+02  6.496831034E+02  1.250000000E+02  0.00000E+00  9.000E+00
      21     1     1     2   501   511  5.438498254E+00  6.730706467E+00  2.695842447E+02  2.697230888E+02  3.814697266E-06  0.00000E+00  9.000E+00
#rwgt            1           1  0.13699833415140869                6      227528           0
</event>
<event>
      5   9999  3.79277E-02  2.29884E+02 -1.00000E+00  1.09490E-01
      21    -1     0     0   502   501  0.000000000E+00  0.000000000E+00  1.535306451E+03  1.535306451E+03  0.000000000E+00  0.00000E+00  9.000E+00
      21    -1     0     0   512   502  0.000000000E+00  0.000000000E+00 -2.808053860E+02  2.808053860E+02  0.000000000E+00  0.00000E+00  9.000E+00
      25     1     1     2     0     0  3.003439890E+02  1.078868164E+02  7.674196629E+02  8.404784447E+02  1.250000000E+02  0.00000E+00  9.000E+00
      25     1     1     2     0     0 -7.188603365E+01 -8.231896370E+01  6.647005442E+02  6.851246800E+02  1.250000000E+02  0.00000E+00  9.000E+00
      21     1     1     2   512   501 -2.284579554E+02 -2.556785271E+01 -1.776191419E+02  2.905087125E+02  6.607249480E-06  0.00000E+00  9.000E+00
#rwgt            1           1   3.7925434353288753E-002           6      227912           0
</event>
<event>
      5   9999  3.79277E-02  1.17340E+02 -1.00000E+00  1.20783E-01
      21    -1     0     0   502   511  0.000000000E+00  0.000000000E+00  9.287045189E+02  9.287045189E+02  0.000000000E+00  0.00000E+00  9.000E+00
      21    -1     0     0   501   502  0.000000000E+00  0.000000000E+00 -1.373788314E+02  1.373788314E+02  0.000000000E+00  0.00000E+00  9.000E+00
      25     1     1     2     0     0 -4.242715348E+01  1.189652370E+02 -5.441287417E+01  1.858455053E+02  1.250000000E+02  0.00000E+00  9.000E+00
      25     1     1     2     0     0  1.712155124E-02 -9.557804869E+00  4.822861672E+02  4.983134545E+02  1.250000000E+02  0.00000E+00  9.000E+00
      21     1     1     2   501   511  4.241003193E+01 -1.094074321E+02  3.634523945E+02  3.819243905E+02  5.394796609E-06  0.00000E+00  9.000E+00
#rwgt            1           1   3.8336273483858138E-002           6      227973           0
</event>
<event>
      5   9999  3.79277E-02  2.15588E+01 -1.00000E+00  1.63724E-01
      21    -1     0     0   502   512  0.000000000E+00  0.000000000E+00  2.360322569E+02  2.360322569E+02  0.000000000E+00  0.00000E+00  9.000E+00
      21    -1     0     0   501   502  0.000000000E+00  0.000000000E+00 -6.012835790E+02  6.012835790E+02  0.000000000E+00  0.00000E+00  9.000E+00
      25     1     1     2     0     0 -7.094074462E+01  3.974798071E+01 -4.726846366E+02  4.956493286E+02  1.250000000E+02  0.00000E+00  9.000E+00
      25     1     1     2     0     0  7.538303775E+01 -6.084418377E+01 -6.273852362E+01  1.701344745E+02  1.250000000E+02  0.00000E+00  9.000E+00
      21     1     1     2   501   512 -4.442293124E+00  2.109620306E+01  1.701718382E+02  1.715320328E+02  1.907348633E-06  0.00000E+00  9.000E+00
#rwgt            1           1   3.5897819568611274E-002           6      228042           0
</event>
<event>
      5   9999  3.79277E-02  3.05004E+01 -1.00000E+00  1.52542E-01
      21    -1     0     0   502   501  0.000000000E+00  0.000000000E+00  9.337834334E+02  9.337834334E+02  0.000000000E+00  0.00000E+00  9.000E+00
      21    -1     0     0   501   511  0.000000000E+00  0.000000000E+00 -5.867198183E+01  5.867198183E+01  0.000000000E+00  0.00000E+00  9.000E+00
      25     1     1     2     0     0 -4.322233060E+01 -1.498478812E+02  2.779471588E+02  3.423480400E+02  1.250000000E+02  0.00000E+00  9.000E+00
      25     1     1     2     0     0  1.416858327E+01  1.591298687E+02  5.814057839E+02  6.157765418E+02  1.250000000E+02  0.00000E+00  9.000E+00
      21     1     1     2   502   511  2.905374733E+01 -9.281987535E+00  1.575850887E+01  3.433083349E+01  8.596304120E-07  0.00000E+00  9.000E+00
#rwgt            1           1   4.2726387670636225E-002           6      228402           0
</event>
<event>
      5   9999  3.79277E-02  2.59119E+02 -1.00000E+00  1.07701E-01
       2    -1     0     0   502     0  0.000000000E+00  0.000000000E+00  8.849340871E+02  8.849340871E+02  0.000000000E+00  0.00000E+00  9.000E+00
      21    -1     0     0   501   502  0.000000000E+00  0.000000000E+00 -4.781925940E+02  4.781925940E+02  0.000000000E+00  0.00000E+00  9.000E+00
      25     1     1     2     0     0 -1.923998180E+02 -3.767614627E+00 -1.211699635E+02  2.594976780E+02  1.250000000E+02  0.00000E+00  9.000E+00
      25     1     1     2     0     0  1.911545571E+02 -2.553481285E+02 -1.529092886E+02  3.751652729E+02  1.250000000E+02  0.00000E+00  9.000E+00
       2     1     1     2   501     0  1.245260863E+00  2.591157432E+02  6.808207451E+02  7.284637301E+02  1.321449896E-05  0.00000E+00  9.000E+00
#rwgt            1           1   3.8374581660030604E-002           6      228566           0
</event>
<event>
      5   9999  3.79277E-02  1.03235E+01 -1.00000E+00  1.94172E-01
      21    -1     0     0   511   501  0.000000000E+00  0.000000000E+00  2.561697077E+02  2.561697077E+02  0.000000000E+00  0.00000E+00  9.000E+00
      21    -1     0     0   501   502  0.000000000E+00  0.000000000E+00 -4.508260760E+02  4.508260760E+02  0.000000000E+00  0.00000E+00  9.000E+00
      25     1     1     2     0     0  2.191870822E+02  1.179786584E+02 -2.393498230E+02  3.672536979E+02  1.250000000E+02  0.00000E+00  9.000E+00
      25     1     1     2     0     0 -2.182650901E+02 -1.076963892E+02 -1.989510665E+01  2.743336965E+02  1.250000000E+02  0.00000E+00  9.000E+00
      21     1     1     2   511   502 -9.219921626E-01 -1.028226921E+01  6.458856140E+01  6.540838932E+01  0.000000000E+00  0.00000E+00  9.000E+00
#rwgt            1           1   4.8282708129161946E-002           6      228625           0
</event>
<event>
      5   9999  3.79277E-02  6.67125E+01 -1.00000E+00  1.32288E-01
      21    -1     0     0   502   512  0.000000000E+00  0.000000000E+00  1.872897007E+03  1.872897007E+03  0.000000000E+00  0.00000E+00  9.000E+00
      21    -1     0     0   501   502  0.000000000E+00  0.000000000E+00 -1.176797390E+02  1.176797390E+02  0.000000000E+00  0.00000E+00  9.000E+00
      25     1     1     2     0     0  9.869191699E+01 -1.122060806E+01  1.224572879E+00  1.596636969E+02  1.250000000E+02  0.00000E+00  9.000E+00
      25     1     1     2     0     0 -3.968341293E+01 -1.990093894E+01  7.858941206E+01  1.541820882E+02  1.250000000E+02  0.00000E+00  9.000E+00
      21     1     1     2   501   512 -5.900850407E+01  3.112154701E+01  1.675403283E+03  1.676730961E+03  2.157918644E-05  0.00000E+00  9.000E+00
#rwgt            2          11   9.4126520326871701E-004           6      229055           0
</event>
<event>
      5   9999  3.79277E-02  2.13515E+01 -1.00000E+00  1.64060E-01
      21    -1     0     0   502   501  0.000000000E+00  0.000000000E+00  3.369652831E+02  3.369652831E+02  0.000000000E+00  0.00000E+00  9.000E+00
      21    -1     0     0   501   511  0.000000000E+00  0.000000000E+00 -2.406227181E+02  2.406227181E+02  0.000000000E+00  0.00000E+00  9.000E+00
      25     1     1     2     0     0 -1.714768408E+02  1.486744914E+02 -1.913721746E+01  2.598069368E+02  1.250000000E+02  0.00000E+00  9.000E+00
      25     1     1     2     0     0  1.928213257E+02 -1.492218020E+02  1.126336958E+02  2.962407117E+02  1.250000000E+02  0.00000E+00  9.000E+00
      21     1     1     2   502   511 -2.134448486E+01  5.473105791E-01  2.846086717E+00  2.154035265E+01  4.042583694E-07  0.00000E+00  9.000E+00
#rwgt            1           1   3.6919241475402577E-002           6      229105           0
</event>
<event>
      5   9999  3.79277E-02  8.13556E+01 -1.00000E+00  1.27997E-01
       1    -1     0     0   502     0  0.000000000E+00  0.000000000E+00  2.540471329E+03  2.540471329E+03  0.000000000E+00  0.00000E+00  9.000E+00
      21    -1     0     0   501   502  0.000000000E+00  0.000000000E+00 -6.800348313E+01  6.800348313E+01  0.000000000E+00  0.00000E+00  9.000E+00
      25     1     1     2     0     0  5.689687154E+01  1.366043040E+02  2.756753508E+02  3.369271270E+02  1.250000000E+02  0.00000E+00  9.000E+00
      25     1     1     2     0     0 -1.232518724E+02 -1.836760377E+02  4.062478274E+02  4.791557243E+02  1.250000000E+02  0.00000E+00  9.000E+00
       1     1     1     2   501     0  6.635500083E+01  4.707173368E+01  1.790544667E+03  1.792391960E+03  2.157918644E-05  0.00000E+00  9.000E+00
#rwgt            2          17   2.0025631205174992E-004           6      229376           0
</event>
<event>
      5   9999  3.79277E-02  5.54384E+01 -1.00000E+00  1.36564E-01
      21    -1     0     0   502   501  0.000000000E+00  0.000000000E+00  2.762166998E+02  2.762166998E+02  0.000000000E+00  0.00000E+00  9.000E+00
      21    -1     0     0   511   502  0.000000000E+00  0.000000000E+00 -3.065599706E+02  3.065599706E+02  0.000000000E+00  0.00000E+00  9.000E+00
      25     1     1     2     0     0  2.344463916E+02  6.041643018E+01  2.490571738E+01  2.736065612E+02  1.250000000E+02  0.00000E+00  9.000E+00
      25     1     1     2     0     0 -1.840893549E+02 -3.723061758E+01  7.121374690E+00  2.257226693E+02  1.250000000E+02  0.00000E+00  9.000E+00
      21     1     1     2   511   501 -5.035703677E+01 -2.318581260E+01 -6.237036289E+01  8.344743990E+01  1.348699152E-06  0.00000E+00  9.000E+00
#rwgt            1           1   4.1260608622928630E-002           6      229395           0
</event>
<event>
      5   9999  3.79277E-02  4.78770E+01 -1.00000E+00  1.40159E-01
      21    -1     0     0   502   512  0.000000000E+00  0.000000000E+00  9.372964621E+02  9.372964621E+02  0.000000000E+00  0.00000E+00  9.000E+00
      21    -1     0     0   501   502  0.000000000E+00  0.000000000E+00 -3.133498139E+02  3.133498139E+02  0.000000000E+00  0.00000E+00  9.000E+00
      25     1     1     2     0     0  4.743966877E+00 -6.915830575E-01 -2.860959975E+02  3.122481438E+02  1.250000000E+02  0.00000E+00  9.000E+00
      25     1     1     2     0     0  1.901521953E+01 -4.087409848E+01  3.210492237E+02  3.474620476E+02  1.250000000E+02  0.00000E+00  9.000E+00
      21     1     1     2   501   512 -2.375918641E+01  4.156568153E+01  5.889934221E+02  5.909360846E+02  7.629394531E-06  0.00000E+00  9.000E+00
#rwgt            1           1   4.0242685696751289E-002           6      229518           0
</event>
<event>
      5   9999  3.79277E-02  4.77818E+01 -1.00000E+00  1.40209E-01
       2    -1     0     0   502     0  0.000000000E+00  0.000000000E+00  2.049578015E+03  2.049578015E+03  0.000000000E+00  0.00000E+00  9.000E+00
      21    -1     0     0   501   502  0.000000000E+00  0.000000000E+00 -1.359745200E+02  1.359745200E+02  0.000000000E+00  0.00000E+00  9.000E+00
      25     1     1     2     0     0 -2.318980815E+01 -1.513512211E+02  9.138272481E+01  2.177630862E+02  1.250000000E+02  0.00000E+00  9.000E+00
      25     1     1     2     0     0  5.832108697E+01  1.837378850E+02  1.096922675E+02  2.545944876E+02  1.250000000E+02  0.00000E+00  9.000E+00
       2     1     1     2   501     0 -3.513127882E+01 -3.238666387E+01  1.712528503E+03  1.713194961E+03  0.000000000E+00  0.00000E+00  9.000E+00
#rwgt            1           1   2.2893828023390430E-002           6      229642           0
</event>
<event>
      5   9999  3.79277E-02  4.69289E+01 -1.00000E+00  1.40665E-01
      21    -1     0     0   502   501  0.000000000E+00  0.000000000E+00  1.835442628E+01  1.835442628E+01  0.000000000E+00  0.00000E+00  9.000E+00
       2    -1     0     0   501     0  0.000000000E+00  0.000000000E+00 -2.386033228E+03  2.386033228E+03  0.000000000E+00  0.00000E+00  9.000E+00
      25     1     1     2     0     0  3.049905233E+01 -1.588821849E+01 -3.521853592E+02  3.752894282E+02  1.250000000E+02  0.00000E+00  9.000E+00
      25     1     1     2     0     0 -7.693082235E+01  2.270118465E+01 -8.657375374E+02  8.783849833E+02  1.250000000E+02  0.00000E+00  9.000E+00
       2     1     1     2   502     0  4.643177002E+01 -6.812966161E+00 -1.149755905E+03  1.150713243E+03  1.525878906E-05  0.00000E+00  9.000E+00
#rwgt            1           1   9.4502884179842470E-002           6      229754           0
</event>
<event>
      5   9999  3.79277E-02  7.78045E+01 -1.00000E+00  1.28937E-01
      21    -1     0     0   502   501  0.000000000E+00  0.000000000E+00  4.837454565E+02  4.837454565E+02  0.000000000E+00  0.00000E+00  9.000E+00
      21    -1     0     0   511   502  0.000000000E+00  0.000000000E+00 -2.805749223E+02  2.805749223E+02  0.000000000E+00  0.00000E+00  9.000E+00
      25     1     1     2     0     0  7.016689928E+01 -3.285385621E+01  3.189846313E+01  1.504834927E+02  1.250000000E+02  0.00000E+00  9.000E+00
      25     1     1     2     0     0 -5.090588337E+01 -4.252885518E+01  3.722951016E+02  3.982822557E+02  1.250000000E+02  0.00000E+00  9.000E+00
      21     1     1     2   511   501 -1.926101590E+01  7.538271139E+01 -2.010230305E+02  2.155546305E+02  2.697398305E-06  0.00000E+00  9.000E+00
#rwgt            1           1   4.5066131299468674E-002           6      229872           0
</event>
<event>
      5   9999  3.79277E-02  1.40722E+02 -1.00000E+00  1.17503E-01
      21    -1     0     0   502   501  0.000000000E+00  0.000000000E+00  2.859111568E+02  2.859111568E+02  0.000000000E+00  0.00000E+00  9.000E+00
      21    -1     0     0   512   502  0.000000000E+00  0.000000000E+00 -4.795054824E+02  4.795054824E+02  0.000000000E+00  0.00000E+00  9.000E+00
      25     1     1     2     0     0  2.517023582E+01 -6.404641125E+01  1.806328428E+02  2.301927615E+02  1.250000000E+02  0.00000E+00  9.000E+00
      25     1     1     2     0     0  6.105662753E+01  1.752562568E+02 -3.053271877E+02  3.785397718E+02  1.250000000E+02  0.00000E+00  9.000E+00
      21     1     1     2   512   501 -8.622686335E+01 -1.112098455E+02 -6.889998067E+01  1.566841059E+02  2.697398305E-06  0.00000E+00  9.000E+00
#rwgt            2          11   2.9212497007324260E-003           6      230109           0
</event>
<event>
      5   9999  3.79277E-02  2.30721E+02 -1.00000E+00  1.09435E-01
      21    -1     0     0   502   501  0.000000000E+00  0.000000000E+00  2.081223768E+03  2.081223768E+03  0.000000000E+00  0.00000E+00  9.000E+00
       5    -1     0     0   501     0  0.000000000E+00  0.000000000E+00 -1.153696363E+02  1.153696363E+02  0.000000000E+00  0.00000E+00  9.000E+00
      25     1     1     2     0     0  1.838650544E+02  2.098029670E+02  1.177892882E+03  1.216914247E+03  1.250000000E+02  0.00000E+00  9.000E+00
      25     1     1     2     0     0 -2.990323595E+02 -9.881281996E+00  3.083703778E+02  4.474765711E+02  1.250000000E+02  0.00000E+00  9.000E+00
       5     1     1     2   502     0  1.151673051E+02 -1.999216850E+02  4.795908726E+02  5.322025868E+02  7.629394531E-06  0.00000E+00  9.000E+00
#rwgt            2          16   2.9810872782720961E-006           6      230279           0
</event>
<event>
      5   9999  3.79277E-02  2.88247E+01 -1.00000E+00  1.54255E-01
      21    -1     0     0   502   511  0.000000000E+00  0.000000000E+00  6.896459213E+02  6.896459213E+02  0.000000000E+00  0.00000E+00  9.000E+00
      21    -1     0     0   501   502  0.000000000E+00  0.000000000E+00 -8.480364156E+01  8.480364156E+01  0.000000000E+00  0.00000E+00  9.000E+00
      25     1     1     2     0     0  1.569364032E+02  2.253800057E+01  1.607741216E+02  2.580897408E+02  1.250000000E+02  0.00000E+00  9.000E+00
      25     1     1     2     0     0 -1.473454214E+02  4.644254288E+00  2.303049707E+02  3.006619727E+02  1.250000000E+02  0.00000E+00  9.000E+00
      21     1     1     2   501   511 -9.590981816E+00 -2.718225485E+01  2.137631874E+02  2.156978493E+02  0.000000000E+00  0.00000E+00  9.000E+00
#rwgt            1           1   4.5352331444408638E-002           6      230298           0
</event>
<event>
      5   9999  3.79277E-02  8.20368E+01 -1.00000E+00  1.27823E-01
      21    -1     0     0   502   501  0.000000000E+00  0.000000000E+00  3.682790621E+02  3.682790621E+02  0.000000000E+00  0.00000E+00  9.000E+00
      21    -1     0     0   501   512  0.000000000E+00  0.000000000E+00 -1.904274845E+02  1.904274845E+02  0.000000000E+00  0.00000E+00  9.000E+00
      25     1     1     2     0     0 -4.837898152E+01  1.215388211E+02 -1.080750431E+01  1.812567600E+02  1.250000000E+02  0.00000E+00  9.000E+00
      25     1     1     2     0     0  1.279805824E+02 -1.016990281E+02  2.086045443E+02  2.930231692E+02  1.250000000E+02  0.00000E+00  9.000E+00
      21     1     1     2   502   512 -7.960160090E+01 -1.983979298E+01 -1.994546236E+01  8.442661737E+01  1.215700987E-06  0.00000E+00  9.000E+00
#rwgt            1           1   3.7341484402664438E-002           6      230415           0
</event>
<event>
      5   9999  3.79277E-02  4.83885E+01 -1.00000E+00  1.39892E-01
      21    -1     0     0   502   501  0.000000000E+00  0.000000000E+00  5.304491422E+02  5.304491422E+02  0.000000000E+00  0.00000E+00  9.000E+00
      21    -1     0     0   501   511  0.000000000E+00  0.000000000E+00 -8.163898846E+01  8.163898846E+01  0.000000000E+00  0.00000E+00  9.000E+00
      25     1     1     2     0     0  8.643242217E+01  2.009751910E+01  4.649648316E+01  1.601917502E+02  1.250000000E+02  0.00000E+00  9.000E+00
      25     1     1     2     0     0 -4.853787387E+01  9.993183166E+00  3.700890812E+02  3.937597198E+02  1.250000000E+02  0.00000E+00  9.000E+00
      21     1     1     2   502   511 -3.789454830E+01 -3.009070227E+01  3.222458932E+01  5.813666064E+01  1.430511475E-06  0.00000E+00  9.000E+00
#rwgt            1           1   2.3424202863615899E-002           6      230564           0
</event>
<event>
      5   9999  3.79277E-02  1.44226E+01 -1.00000E+00  1.79005E-01
      21    -1     0     0   502   512  0.000000000E+00  0.000000000E+00  1.494231884E+02  1.494231884E+02  0.000000000E+00  0.00000E+00  9.000E+00
      21    -1     0     0   501   502  0.000000000E+00  0.000000000E+00 -4.286589510E+02  4.286589510E+02  0.000000000E+00  0.00000E+00  9.000E+00
      25     1     1     2     0     0 -5.139273295E+00 -1.037486469E+02 -1.717430850E+02  2.364548183E+02  1.250000000E+02  0.00000E+00  9.000E+00
      25     1     1     2     0     0 -4.735580746E+00  9.323676885E+01 -1.968135416E+02  2.511495390E+02  1.250000000E+02  0.00000E+00  9.000E+00
      21     1     1     2   501   512  9.874854041E+00  1.051187810E+01  8.932086388E+01  9.047778207E+01  1.907348633E-06  0.00000E+00  9.000E+00
#rwgt            1           1   7.2108773118355035E-002           6      230753           0
</event>
<event>
      5   9999 -3.79277E-02  1.41138E+02 -1.00000E+00  1.17451E-01
      21    -1     0     0   502   511  0.000000000E+00  0.000000000E+00  2.288780471E+02  2.288780471E+02  0.000000000E+00  0.00000E+00  9.000E+00
      21    -1     0     0   501   502  0.000000000E+00  0.000000000E+00 -7.934823619E+02  7.934823619E+02  0.000000000E+00  0.00000E+00  9.000E+00
      25     1     1     2     0     0 -2.095654651E+02 -1.418294672E+02 -2.356651645E+02  3.676905652E+02  1.250000000E+02  0.00000E+00  9.000E+00
      25     1     1     2     0     0  3.199017019E+02  2.298398815E+02 -2.997953739E+02  5.105543420E+02  1.250000000E+02  0.00000E+00  9.000E+00
      21     1     1     2   501   511 -1.103362368E+02 -8.801041425E+01 -2.914377648E+01  1.441155018E+02  2.523185073E-06  0.00000E+00  9.000E+00
#rwgt            1           1  -1.8320624474777166E-002           6      230974           0
</event>
<event>
      5   9999 -3.79277E-02  9.41851E+01 -1.00000E+00  1.25010E-01
       2    -1     0     0   502     0  0.000000000E+00  0.000000000E+00  2.959005780E+02  2.959005780E+02  0.000000000E+00  0.00000E+00  9.000E+00
      21    -1     0     0   501   502  0.000000000E+00  0.000000000E+00 -6.057475954E+02  6.057475954E+02  0.000000000E+00  0.00000E+00  9.000E+00
      25     1     1     2     0     0 -1.674065428E+02  4.663466061E+01 -1.281501367E+02  2.494938871E+02  1.250000000E+02  0.00000E+00  9.000E+00
      25     1     1     2     0     0  1.950084389E+02  4.341518027E+01 -3.716860098E+02  4.401007373E+02  1.250000000E+02  0.00000E+00  9.000E+00
       2     1     1     2   501     0 -2.760189606E+01 -9.004984088E+01  1.899891290E+02  2.120535490E+02  2.697398305E-06  0.00000E+00  9.000E+00
#rwgt            1           1  -7.2680021644728587E-002           6      231030           0
</event>
<event>
      5   9999  3.79277E-02  2.02916E+01 -1.00000E+00  1.65852E-01
      21    -1     0     0   511   501  0.000000000E+00  0.000000000E+00  1.446411446E+03  1.446411446E+03  0.000000000E+00  0.00000E+00  9.000E+00
      21    -1     0     0   501   502  0.000000000E+00  0.000000000E+00 -5.429271142E+01  5.429271142E+01  0.000000000E+00  0.00000E+00  9.000E+00
      25     1     1     2     0     0  1.723084765E+02 -1.208625756E+02  5.069913688E+02  5.629948679E+02  1.250000000E+02  0.00000E+00  9.000E+00
      25     1     1     2     0     0 -1.767182107E+02  1.010559631E+02  5.225568608E+02  5.745714111E+02  1.250000000E+02  0.00000E+00  9.000E+00
      21     1     1     2   511   502  4.409734228E+00  1.980661242E+01  3.625705051E+02  3.631378785E+02  0.000000000E+00  0.00000E+00  9.000E+00
#rwgt            1           1   3.7612606268688391E-002           6      231120           0
</event>
<event>
      5   9999  3.79277E-02  1.47737E+01 -1.00000E+00  1.78008E-01
      21    -1     0     0   512   501  0.000000000E+00  0.000000000E+00  4.664591964E+02  4.664591964E+02  0.000000000E+00  0.00000E+00  9.000E+00
      21    -1     0     0   501   502  0.000000000E+00  0.000000000E+00 -1.340471650E+02  1.340471650E+02  0.000000000E+00  0.00000E+00  9.000E+00
      25     1     1     2     0     0  9.489812449E+01  1.636230545E+02  1.758065044E+02  2.868990850E+02  1.250000000E+02  0.00000E+00  9.000E+00
      25     1     1     2     0     0 -8.033231072E+01 -1.611532467E+02  7.652275168E+01  2.321731694E+02  1.250000000E+02  0.00000E+00  9.000E+00
      21     1     1     2   512   502 -1.456581377E+01 -2.469807767E+00  8.008277529E+01  8.143410698E+01  1.651812370E-06  0.00000E+00  9.000E+00
#rwgt            1           1   3.9803604967540346E-002           6      231312           0
</event>
<event>
      5   9999  3.79277E-02  6.78277E+00 -1.00000E+00  2.17507E-01
      21    -1     0     0   502   501  0.000000000E+00  0.000000000E+00  5.905334399E+02  5.905334399E+02  0.000000000E+00  0.00000E+00  9.000E+00
      21    -1     0     0   511   502  0.000000000E+00  0.000000000E+00 -1.383697613E+02  1.383697613E+02  0.000000000E+00  0.00000E+00  9.000E+00
      25     1     1     2     0     0 -7.595433065E+01  7.962322154E+01  4.523365868E+02  4.820189888E+02  1.250000000E+02  0.00000E+00  9.000E+00
      25     1     1     2     0     0  7.288135012E+01 -7.357650599E+01  6.971741166E+01  1.766655340E+02  1.250000000E+02  0.00000E+00  9.000E+00
      21     1     1     2   511   501  3.072980531E+00 -6.046715545E+00 -6.989031989E+01  7.021867837E+01  9.536743164E-07  0.00000E+00  9.000E+00
#rwgt            1           1   3.2762091409423280E-002           6      231506           0
</event>
<event>
      5   9999  3.79277E-02  2.42825E+01 -1.00000E+00  1.59704E-01
      21    -1     0     0   502   501  0.000000000E+00  0.000000000E+00  1.919758084E+02  1.919758084E+02  0.000000000E+00  0.00000E+00  9.000E+00
      21    -1     0     0   501   512  0.000000000E+00  0.000000000E+00 -1.284506583E+03  1.284506583E+03  0.000000000E+00  0.00000E+00  9.000E+00
      25     1     1     2     0     0 -8.459573216E+01 -1.191911222E+02 -7.652458990E+01  2.069878604E+02  1.250000000E+02  0.00000E+00  9.000E+00
      25     1     1     2     0     0  1.065441400E+02  1.088032559E+02  4.996097368E+01  2.032508331E+02  1.250000000E+02  0.00000E+00  9.000E+00
      21     1     1     2   502   512 -2.194840786E+01  1.038786634E+01 -1.065967158E+03  1.066243698E+03  0.000000000E+00  0.00000E+00  9.000E+00
#rwgt            1           1   3.8856258623070419E-002           6      231879           0
</event>
<event>
      5   9999  3.79277E-02  1.48032E+02 -1.00000E+00  1.16621E-01
       2    -1     0     0   502     0  0.000000000E+00  0.000000000E+00  2.690727986E+03  2.690727986E+03  0.000000000E+00  0.00000E+00  9.000E+00
      21    -1     0     0   501   502  0.000000000E+00  0.000000000E+00 -3.485332701E+01  3.485332701E+01  0.000000000E+00  0.00000E+00  9.000E+00
      25     1     1     2     0     0 -1.061606617E+02 -6.690225766E+01  5.377427301E+02  5.661609682E+02  1.250000000E+02  0.00000E+00  9.000E+00
      25     1     1     2     0     0  5.384582712E+01  2.053814564E+02  9.292990276E+02  9.614065729E+02  1.250000000E+02  0.00000E+00  9.000E+00
       2     1     1     2   501     0  5.231483459E+01 -1.384791987E+02  1.188832901E+03  1.198013772E+03  1.525878906E-05  0.00000E+00  9.000E+00
#rwgt            1           1   4.5267062434088540E-002           6      232054           0
</event>
<event>
      5   9999  3.79277E-02  3.73405E+01 -1.00000E+00  1.46718E-01
       3    -1     0     0   502     0  0.000000000E+00  0.000000000E+00  6.998325797E+02  6.998325797E+02  0.000000000E+00  0.00000E+00  9.000E+00
      21    -1     0     0   501   502  0.000000000E+00  0.000000000E+00 -7.874524819E+01  7.874524819E+01  0.000000000E+00  0.00000E+00  9.000E+00
      25     1     1     2     0     0  9.198315723E+01  5.763221049E+01  6.296204005E+01  1.771202738E+02  1.250000000E+02  0.00000E+00  9.000E+00
      25     1     1     2     0     0 -1.288010214E+02 -5.140685237E+01  4.721675750E+02  5.077396838E+02  1.250000000E+02  0.00000E+00  9.000E+00
       3     1     1     2   501     0  3.681786414E+01 -6.225358121E+00  8.595771639E+01  9.371787028E+01  0.000000000E+00  0.00000E+00  9.000E+00
#rwgt            1           1   2.0979846531301742E-002           6      232099           0
</event>
<event>
      5   9999  3.79277E-02  3.99086E+01 -1.00000E+00  1.44902E-01
      21    -1     0     0   502   511  0.000000000E+00  0.000000000E+00  1.081217947E+03  1.081217947E+03  0.000000000E+00  0.00000E+00  9.000E+00
      21    -1     0     0   501   502  0.000000000E+00  0.000000000E+00 -2.317484911E+02  2.317484911E+02  0.000000000E+00  0.00000E+00  9.000E+00
      25     1     1     2     0     0  5.372894874E+01 -4.891964917E+01 -1.842930445E+02  2.342410260E+02  1.250000000E+02  0.00000E+00  9.000E+00
      25     1     1     2     0     0 -1.384307478E+01  5.026661855E+01  1.863231406E+02  2.303468610E+02  1.250000000E+02  0.00000E+00  9.000E+00
      21     1     1     2   501   511 -3.988587397E+01 -1.346969379E+00  8.474393599E+02  8.483785511E+02  1.078959322E-05  0.00000E+00  9.000E+00
#rwgt            1           1   3.2891234844917495E-002           6      232218           0
</event>
<event>
      5   9999  3.79277E-02  5.38948E+01 -1.00000E+00  1.37242E-01
      21    -1     0     0   502   501  0.000000000E+00  0.000000000E+00  2.019595972E+03  2.019595972E+03  0.000000000E+00  0.00000E+00  9.000E+00
      21    -1     0     0   512   502  0.000000000E+00  0.000000000E+00 -9.816822242E+01  9.816822242E+01  0.000000000E+00  0.00000E+00  9.000E+00
      25     1     1     2     0     0 -7.620036920E+01 -3.446467453E+01  7.892638382E+02  8.034654419E+02  1.250000000E+02  0.00000E+00  9.000E+00
      25     1     1     2     0     0  5.755880062E+01 -1.610354438E+01  1.210945431E+03  1.218846248E+03  1.250000000E+02  0.00000E+00  9.000E+00
      21     1     1     2   512   501  1.864156859E+01  5.056821891E+01 -7.878151939E+01  9.545250463E+01  2.861022949E-06  0.00000E+00  9.000E+00
#rwgt            1           1   9.0205606208572986E-002           6      232375           0
</event>
<event>
      5   9999  3.79277E-02  2.65670E+01 -1.00000E+00  1.56798E-01
      21    -1     0     0   511   501  0.000000000E+00  0.000000000E+00  1.894773599E+02  1.894773599E+02  0.000000000E+00  0.00000E+00  9.000E+00
      21    -1     0     0   501   502  0.000000000E+00  0.000000000E+00 -3.290685803E+02  3.290685803E+02  0.000000000E+00  0.00000E+00  9.000E+00
      25     1     1     2     0     0  7.947393814E+01  1.753042989E+02 -1.344166663E+02  2.659709462E+02  1.250000000E+02  0.00000E+00  9.000E+00
      25     1     1     2     0     0 -9.908578531E+01 -1.573827148E+02 -1.416411767E+01  2.245282477E+02  1.250000000E+02  0.00000E+00  9.000E+00
      21     1     1     2   511   502  1.961184718E+01 -1.792158410E+01  8.989563617E+00  2.804674634E+01  5.057621821E-07  0.00000E+00  9.000E+00
#rwgt            1           1   2.7055951387360229E-002           6      232472           0
</event>
<event>
      5   9999  3.79277E-02  8.44007E+01 -1.00000E+00  1.27234E-01
      21    -1     0     0   502   501  0.000000000E+00  0.000000000E+00  5.550475406E+02  5.550475406E+02  0.000000000E+00  0.00000E+00  9.000E+00
      21    -1     0     0   501   512  0.000000000E+00  0.000000000E+00 -1.136640285E+02  1.136640285E+02  0.000000000E+00  0.00000E+00  9.000E+00
      25     1     1     2     0     0 -1.242734672E+02 -4.852592361E+01  1.807559853E+02  2.570921744E+02  1.250000000E+02  0.00000E+00  9.000E+00
      25     1     1     2     0     0  1.976206457E+02  6.768698363E+00  1.988053150E+02  3.069988406E+02  1.250000000E+02  0.00000E+00  9.000E+00
      21     1     1     2   502   512 -7.334717848E+01  4.175722525E+01  6.182221186E+01  1.046205541E+02  6.743495762E-07  0.00000E+00  9.000E+00
#rwgt            1           1   3.3975863938542836E-002           6      232566           0
</event>
<event>
      5   9999  3.79277E-02  5.76192E+01 -1.00000E+00  1.35650E-01
      21    -1     0     0   502   501  0.000000000E+00  0.000000000E+00  9.245501749E+01  9.245501749E+01  0.000000000E+00  0.00000E+00  9.000E+00
      21    -1     0     0   511   502  0.000000000E+00  0.000000000E+00 -9.348833181E+02  9.348833181E+02  0.000000000E+00  0.00000E+00  9.000E+00
      25     1     1     2     0     0  1.651061456E+02  1.226207599E+02 -2.762575088E+02  3.663865462E+02  1.250000000E+02  0.00000E+00  9.000E+00
      25     1     1     2     0     0 -2.227252694E+02 -1.225456229E+02 -4.632829300E+02  5.430285891E+02  1.250000000E+02  0.00000E+00  9.000E+00
      21     1     1     2   511   501  5.761912378E+01 -7.513695207E-02 -1.028878618E+02  1.179232003E+02  1.907348633E-06  0.00000E+00  9.000E+00
#rwgt            1           1   4.1415703977041300E-002           6      232673           0
</event>
<event>
      5   9999 -3.79277E-02  3.81865E+01 -1.00000E+00  1.46101E-01
      21    -1     0     0   502   512  0.000000000E+00  0.000000000E+00  2.595383042E+02  2.595383042E+02  0.000000000E+00  0.00000E+00  9.000E+00
      21    -1     0     0   501   502  0.000000000E+00  0.000000000E+00 -2.129361271E+02  2.129361271E+02  0.000000000E+00  0.00000E+00  9.000E+00
      25     1     1     2     0     0 -6.726266618E+01  9.739328858E+01 -1.218261148E+02  2.108940994E+02  1.250000000E+02  0.00000E+00  9.000E+00
      25     1     1     2     0     0  3.053844287E+01 -8.692706259E+01  1.589946203E+02  2.222458098E+02  1.250000000E+02  0.00000E+00  9.000E+00
      21     1     1     2   501   512  3.672422331E+01 -1.046622599E+01  9.433671622E+00  3.933452205E+01  4.915124924E-07  0.00000E+00  9.000E+00
#rwgt            1           1  -9.7738711836141398E-002           6      232990           0
</event>
<event>
      5   9999  3.79277E-02  9.03497E+00 -1.00000E+00  2.00994E-01
      21    -1     0     0   511   501  0.000000000E+00  0.000000000E+00  8.829169519E+02  8.829169519E+02  0.000000000E+00  0.00000E+00  9.000E+00
      21    -1     0     0   501   502  0.000000000E+00  0.000000000E+00 -4.375876939E+01  4.375876939E+01  0.000000000E+00  0.00000E+00  9.000E+00
      25     1     1     2     0     0 -4.377359221E+01  5.302410857E+01  1.033497959E+02  1.761643090E+02  1.250000000E+02  0.00000E+00  9.000E+00
      25     1     1     2     0     0  3.650339014E+01 -4.765988328E+01  6.976802264E+02  7.113273932E+02  1.250000000E+02  0.00000E+00  9.000E+00
      21     1     1     2   511   502  7.270202069E+00 -5.364225291E+00  3.812816014E+01  3.918401903E+01  4.768371582E-07  0.00000E+00  9.000E+00
#rwgt            1           1   3.2883766628180718E-002           6      233127           0
</event>
<event>
      5   9999  3.79277E-02  6.35975E+01 -1.00000E+00  1.33366E-01
      21    -1     0     0   502   501  0.000000000E+00  0.000000000E+00  3.546363574E+01  3.546363574E+01  0.000000000E+00  0.00000E+00  9.000E+00
       2    -1     0     0   501     0  0.000000000E+00  0.000000000E+00 -1.743512651E+03  1.743512651E+03  0.000000000E+00  0.00000E+00  9.000E+00
      25     1     1     2     0     0  1.027895676E+02 -1.849261819E+01 -1.308316657E+03  1.318417668E+03  1.250000000E+02  0.00000E+00  9.000E+00
      25     1     1     2     0     0 -9.058363468E+01 -4.392255360E+01 -2.409229317E+02  2.894882460E+02  1.250000000E+02  0.00000E+00  9.000E+00
       2     1     1     2   502     0 -1.220593290E+01  6.241517179E+01 -1.588094265E+02  1.710703727E+02  3.303624740E-06  0.00000E+00  9.000E+00
#rwgt            1           1   4.5553404686803321E-002           6      233341           0
</event>
<event>
      5   9999  3.79277E-02  1.15014E+01 -1.00000E+00  1.88987E-01
      21    -1     0     0   502   511  0.000000000E+00  0.000000000E+00  5.313076862E+01  5.313076862E+01  0.000000000E+00  0.00000E+00  9.000E+00
      21    -1     0     0   501   502  0.000000000E+00  0.000000000E+00 -7.731883074E+02  7.731883074E+02  0.000000000E+00  0.00000E+00  9.000E+00
      25     1     1     2     0     0  8.891384427E+01 -4.837442176E+01 -5.098446046E+02  5.346141386E+02  1.250000000E+02  0.00000E+00  9.000E+00
      25     1     1     2     0     0 -9.881894639E+01  5.422002844E+01 -2.197224153E+02  2.767813857E+02  1.250000000E+02  0.00000E+00  9.000E+00
      21     1     1     2   501   511  9.905102120E+00 -5.845606686E+00  9.509481130E+00  1.492355175E+01  6.529361695E-07  0.00000E+00  9.000E+00
#rwgt            1           1   9.4111189149571686E-002           6      233426           0
</event>
<event>
      5   9999  3.79277E-02  4.87499E+01 -1.00000E+00  1.39706E-01
       2    -1     0     0   502     0  0.000000000E+00  0.000000000E+00  8.527501332E+02  8.527501332E+02  0.000000000E+00  0.00000E+00  9.000E+00
      21    -1     0     0   501   502  0.000000000E+00  0.000000000E+00 -2.839202079E+02  2.839202079E+02  0.000000000E+00  0.00000E+00  9.000E+00
      25     1     1     2     0     0 -7.450171606E+01  9.031290051E+01  3.620510261E+01  1.750506645E+02  1.250000000E+02  0.00000E+00  9.000E+00
      25     1     1     2     0     0  2.995206299E+01 -7.051698521E+01 -1.885255240E+02  2.388234588E+02  1.250000000E+02  0.00000E+00  9.000E+00
       2     1     1     2   501     0  4.454965307E+01 -1.979591530E+01  7.211503467E+02  7.227962178E+02  1.078959322E-05  0.00000E+00  9.000E+00
#rwgt            1           1   4.2088624507920600E-002           6      233634           0
</event>
<event>
      5   9999  3.79277E-02  2.96466E+01 -1.00000E+00  1.53398E-01
      21    -1     0     0   502   501  0.000000000E+00  0.000000000E+00  8.230275219E+01  8.230275219E+01  0.000000000E+00  0.00000E+00  9.000E+00
      21    -1     0     0   511   502  0.000000000E+00  0.000000000E+00 -7.092510967E+02  7.092510967E+02  0.000000000E+00  0.00000E+00  9.000E+00
      25     1     1     2     0     0  1.365618090E+02  3.279471539E+01 -8.140551613E+01  2.048816221E+02  1.250000000E+02  0.00000E+00  9.000E+00
      25     1     1     2     0     0 -1.374318820E+02 -3.160870318E+00 -4.583864689E+02  4.946116337E+02  1.250000000E+02  0.00000E+00  9.000E+00
      21     1     1     2   511   501  8.700729949E-01 -2.963384507E+01 -8.715635944E+01  9.206059304E+01  0.000000000E+00  0.00000E+00  9.000E+00
#rwgt            1           1   3.9043422602427678E-002           6      233797           0
</event>
<event>
      5   9999  3.79277E-02  1.22759E+02 -1.00000E+00  1.19951E-01
      21    -1     0     0   502   501  0.000000000E+00  0.000000000E+00  9.084813582E+01  9.084813582E+01  0.000000000E+00  0.00000E+00  9.000E+00
      21    -1     0     0   501   512  0.000000000E+00  0.000000000E+00 -7.809301862E+02  7.809301862E+02  0.000000000E+00  0.00000E+00  9.000E+00
      25     1     1     2     0     0  9.860114332E+01  1.224738738E+01 -2.633165180E+02  3.079493020E+02  1.250000000E+02  0.00000E+00  9.000E+00
      25     1     1     2     0     0 -1.869427417E+02  7.299015134E+01 -2.177316093E+02  3.214143814E+02  1.250000000E+02  0.00000E+00  9.000E+00
      21     1     1     2   502   512  8.834159840E+01 -8.523753872E+01 -2.090339231E+02  2.424146386E+02  0.000000000E+00  0.00000E+00  9.000E+00
#rwgt            2          11   2.1221087886348477E-003           6      233976           0
</event>
<event>
      5   9999  3.79277E-02  4.22222E+01 -1.00000E+00  1.43399E-01
      21    -1     0     0   502   501  0.000000000E+00  0.000000000E+00  1.688584465E+02  1.688584465E+02  0.000000000E+00  0.00000E+00  9.000E+00
      21    -1     0     0   501   511  0.000000000E+00  0.000000000E+00 -2.583130169E+02  2.583130169E+02  0.000000000E+00  0.00000E+00  9.000E+00
      25     1     1     2     0     0 -7.153464894E+01  3.438632989E+01  8.750228029E+01  1.719920775E+02  1.250000000E+02  0.00000E+00  9.000E+00
      25     1     1     2     0     0  3.530256888E+01 -5.606466541E+01 -1.317134526E+02  1.932949862E+02  1.250000000E+02  0.00000E+00  9.000E+00
      21     1     1     2   502   511  3.623208006E+01  2.167833552E+01 -4.524339810E+01  6.188439971E+01  1.066240300E-06  0.00000E+00  9.000E+00
#rwgt            1           1   2.2767901955736861E-002           6      233996           0
</event>
<event>
      5   9999  3.79277E-02  1.37462E+01 -1.00000E+00  1.81031E-01
      21    -1     0     0   502   512  0.000000000E+00  0.000000000E+00  1.572123977E+03  1.572123977E+03  0.000000000E+00  0.00000E+00  9.000E+00
      21    -1     0     0   501   502  0.000000000E+00  0.000000000E+00 -2.340627377E+01  2.340627377E+01  0.000000000E+00  0.00000E+00  9.000E+00
      25     1     1     2     0     0  5.636186816E+01 -9.222697335E+01  8.985719313E+02  9.136405149E+02  1.250000000E+02  0.00000E+00  9.000E+00
      25     1     1     2     0     0 -5.866151947E+01  1.057794008E+02  4.688867558E+02  5.001102331E+02  1.250000000E+02  0.00000E+00  9.000E+00
      21     1     1     2   501   512  2.299651307E+00 -1.355242742E+01  1.812590159E+02  1.817795025E+02  2.697398305E-06  0.00000E+00  9.000E+00
#rwgt            1           1   4.6584684234611359E-002           6      234172           0
</event>
<event>
      5   9999  3.79277E-02  2.36883E+01 -1.00000E+00  1.60524E-01
      21    -1     0     0   502   501  0.000000000E+00  0.000000000E+00  7.789843918E+01  7.789843918E+01  0.000000000E+00  0.00000E+00  9.000E+00
      21    -1     0     0   501   511  0.000000000E+00  0.000000000E+00 -7.278522955E+02  7.278522955E+02  0.000000000E+00  0.00000E+00  9.000E+00
      25     1     1     2     0     0 -9.839478785E+01  6.983123716E+00 -3.325633009E+01  1.626692404E+02  1.250000000E+02  0.00000E+00  9.000E+00
      25     1     1     2     0     0  9.262573703E+01 -2.995813996E+01 -5.261702052E+02  5.495062349E+02  1.250000000E+02  0.00000E+00  9.000E+00
      21     1     1     2   502   511  5.769050816E+00  2.297501624E+01 -9.052732101E+01  9.357525938E+01  1.348699152E-06  0.00000E+00  9.000E+00
#rwgt            1           1   9.4102215374257128E-002           6      234610           0
</event>
<event>
      5   9999  3.79277E-02  7.64046E+01 -1.00000E+00  1.29324E-01
      21    -1     0     0   502   512  0.000000000E+00  0.000000000E+00  5.376006270E+02  5.376006270E+02  0.000000000E+00  0.00000E+00  9.000E+00
      21    -1     0     0   501   502  0.000000000E+00  0.000000000E+00 -1.423958162E+02  1.423958162E+02  0.000000000E+00  0.00000E+00  9.000E+00
      25     1     1     2     0     0  1.335610584E+02 -1.868163187E+01  2.969144517E+02  3.492431120E+02  1.250000000E+02  0.00000E+00  9.000E+00
      25     1     1     2     0     0 -1.076290443E+02 -5.318766439E+01 -3.528518661E+01  1.768699613E+02  1.250000000E+02  0.00000E+00  9.000E+00
      21     1     1     2   501   512 -2.593201403E+01  7.186929626E+01  1.335755457E+02  1.538833698E+02  1.907348633E-06  0.00000E+00  9.000E+00
#rwgt            1           1   4.9696240413921816E-002           6      234795           0
</event>
<event>
      5   9999  3.79277E-02  8.10702E+01 -1.00000E+00  1.28071E-01
      21    -1     0     0   502   511  0.000000000E+00  0.000000000E+00  2.701663051E+02  2.701663051E+02  0.000000000E+00  0.00000E+00  9.000E+00
      21    -1     0     0   501   502  0.000000000E+00  0.000000000E+00 -1.822790359E+02  1.822790359E+02  0.000000000E+00  0.00000E+00  9.000E+00
      25     1     1     2     0     0  4.497774887E+01  8.933203824E+01  4.862134948E+01  1.673088359E+02  1.250000000E+02  0.00000E+00  9.000E+00
      25     1     1     2     0     0 -1.258593794E+02 -8.380571956E+01  2.708112543E+00  1.962047805E+02  1.250000000E+02  0.00000E+00  9.000E+00
      21     1     1     2   501   511  8.088163057E+01 -5.526318673E+00  3.655780726E+01  8.893172456E+01  1.348699152E-06  0.00000E+00  9.000E+00
#rwgt            1           1   2.9633850796462653E-002           6      235087           0
</event>
<event>
      5   9999  3.79277E-02  8.32602E+01 -1.00000E+00  1.27515E-01
      21    -1     0     0   502   501  0.000000000E+00  0.000000000E+00  8.433797664E+02  8.433797664E+02  0.000000000E+00  0.00000E+00  9.000E+00
      21    -1     0     0   501   512  0.000000000E+00  0.000000000E+00 -7.995844053E+01  7.995844053E+01  0.000000000E+00  0.00000E+00  9.000E+00
      25     1     1     2     0     0 -1.276317117E+02 -1.077298043E+02  2.541901768E+02  3.288361454E+02  1.250000000E+02  0.00000E+00  9.000E+00
      25     1     1     2     0     0  4.507828032E+01  1.185552892E+02  4.697173791E+02  5.023413423E+02  1.250000000E+02  0.00000E+00  9.000E+00
      21     1     1     2   502   512  8.255343135E+01 -1.082548487E+01  3.951376998E+01  9.216071923E+01  8.259061849E-07  0.00000E+00  9.000E+00
#rwgt            1           1   3.6826154927794792E-002           6      235394           0
</event>
<event>
      5   9999  3.79277E-02  1.09756E+02 -1.00000E+00  1.22036E-01
      21    -1     0     0   502   501  0.000000000E+00  0.000000000E+00  1.429707748E+02  1.429707748E+02  0.000000000E+00  0.00000E+00  9.000E+00
       2    -1     0     0   501     0  0.000000000E+00  0.000000000E+00 -1.576584562E+03  1.576584562E+03  0.000000000E+00  0.00000E+00  9.000E+00
      25     1     1     2     0     0 -2.319057366E+02  1.610816132E+02 -2.253097874E+02  3.822526089E+02  1.250000000E+02  0.00000E+00  9.000E+00
      25     1     1     2     0     0  1.323478944E+02 -2.072837413E+02 -2.486575058E+02  3.714001478E+02  1.250000000E+02  0.00000E+00  9.000E+00
       2     1     1     2   502     0  9.955784214E+01  4.620212815E+01 -9.596464944E+02  9.659025804E+02  1.078959322E-05  0.00000E+00  9.000E+00
#rwgt            1           1   3.7783475884213061E-002           6      235470           0
</event>
<event>
      5   9999  3.79277E-02  2.08605E+01 -1.00000E+00  1.64874E-01
      21    -1     0     0   502   501  0.000000000E+00  0.000000000E+00  2.156217292E+02  2.156217292E+02  0.000000000E+00  0.00000E+00  9.000E+00
      21    -1     0     0   501   511  0.000000000E+00  0.000000000E+00 -4.143493827E+02  4.143493827E+02  0.000000000E+00  0.00000E+00  9.000E+00
      25     1     1     2     0     0 -4.426699446E+01 -2.251427819E+02  4.199927358E+01  2.646465152E+02  1.250000000E+02  0.00000E+00  9.000E+00
      25     1     1     2     0     0  5.969052321E+01  2.110972440E+02 -2.313584675E+02  3.424569250E+02  1.250000000E+02  0.00000E+00  9.000E+00
      21     1     1     2   502   511 -1.542352874E+01  1.404553792E+01 -9.368459548E+00  2.286767169E+01  2.665600750E-07  0.00000E+00  9.000E+00
#rwgt            1           1   4.6651710850171051E-002           6      235507           0
</event>
<event>
      5   9999  3.79277E-02  2.03129E+01 -1.00000E+00  1.65815E-01
      21    -1     0     0   502   512  0.000000000E+00  0.000000000E+00  3.324565403E+02  3.324565403E+02  0.000000000E+00  0.00000E+00  9.000E+00
      21    -1     0     0   501   502  0.000000000E+00  0.000000000E+00 -2.335582681E+02  2.335582681E+02  0.000000000E+00  0.00000E+00  9.000E+00
      25     1     1     2     0     0  3.265159609E+01 -1.035622963E+02  2.146171255E+02  2.710660187E+02  1.250000000E+02  0.00000E+00  9.000E+00
      25     1     1     2     0     0 -1.472707096E+01  9.400592841E+01 -1.732905342E+02  2.338987183E+02  1.250000000E+02  0.00000E+00  9.000E+00
      21     1     1     2   501   512 -1.792452513E+01  9.556367847E+00  5.757168090E+01  6.105007133E+01  6.743495762E-07  0.00000E+00  9.000E+00
#rwgt            1           1   4.8922001671245663E-002           6      235708           0
</event>
<event>
      5   9999  3.79277E-02  4.32757E+01 -1.00000E+00  1.42752E-01
      21    -1     0     0   502   511  0.000000000E+00  0.000000000E+00  1.117750759E+02  1.117750759E+02  0.000000000E+00  0.00000E+00  9.000E+00
      21    -1     0     0   501   502  0.000000000E+00  0.000000000E+00 -4.725504717E+02  4.725504717E+02  0.000000000E+00  0.00000E+00  9.000E+00
      25     1     1     2     0     0  8.840471351E+01  6.013116714E+01 -3.338413558E+02  3.721642131E+02  1.250000000E+02  0.00000E+00  9.000E+00
      25     1     1     2     0     0 -1.085670434E+02 -2.183933092E+01 -2.482438058E+01  1.688342653E+02  1.250000000E+02  0.00000E+00  9.000E+00
      21     1     1     2   501   511  2.016232985E+01 -3.829183622E+01 -2.109659356E+00  4.332706924E+01  7.408739862E-07  0.00000E+00  9.000E+00
#rwgt            1           1   1.1189407491302187E-002           6      235884           0
</event>
<event>
      5   9999  3.79277E-02  6.39211E+01 -1.00000E+00  1.33250E-01
      21    -1     0     0   502   501  0.000000000E+00  0.000000000E+00  1.436636712E+02  1.436636712E+02  0.000000000E+00  0.00000E+00  9.000E+00
       1    -1     0     0   501     0  0.000000000E+00  0.000000000E+00 -5.334516874E+02  5.334516874E+02  0.000000000E+00  0.00000E+00  9.000E+00
      25     1     1     2     0     0  9.959029514E+01 -7.539827028E+01 -9.693165035E+01  2.015536427E+02  1.250000000E+02  0.00000E+00  9.000E+00
      25     1     1     2     0     0 -3.630393258E+01  8.438397780E+01  1.984967491E+01  1.563893885E+02  1.250000000E+02  0.00000E+00  9.000E+00
       1     1     1     2   502     0 -6.328636256E+01 -8.985707513E+00 -3.127060408E+02  3.191723274E+02  0.000000000E+00  0.00000E+00  9.000E+00
#rwgt            1           1   3.7364314482056044E-002           6      235962           0
</event>
<event>
      5   9999 -3.79277E-02  8.03209E+00 -1.00000E+00  2.07443E-01
      21    -1     0     0   502   511  0.000000000E+00  0.000000000E+00  1.052158219E+03  1.052158219E+03  0.000000000E+00  0.00000E+00  9.000E+00
      21    -1     0     0   501   502  0.000000000E+00  0.000000000E+00 -3.768460608E+01  3.768460608E+01  0.000000000E+00  0.00000E+00  9.000E+00
      25     1     1     2     0     0  1.280438671E+02  2.908679379E+01  5.513511897E+02  5.803915987E+02  1.250000000E+02  0.00000E+00  9.000E+00
      25     1     1     2     0     0 -1.287792338E+02 -2.108843809E+01  3.312402073E+02  3.773246456E+02  1.250000000E+02  0.00000E+00  9.000E+00
      21     1     1     2   501   511  7.353667095E-01 -7.998355704E+00  1.318822162E+02  1.321265810E+02  1.907348633E-06  0.00000E+00  9.000E+00
#rwgt            1           1 -0.45674227298067810                6      236078           0
</event>
<event>
      5   9999  3.79277E-02  1.19037E+01 -1.00000E+00  1.87397E-01
      21    -1     0     0   502   501  0.000000000E+00  0.000000000E+00  2.276514978E+02  2.276514978E+02  0.000000000E+00  0.00000E+00  9.000E+00
      21    -1     0     0   501   512  0.000000000E+00  0.000000000E+00 -3.780863639E+02  3.780863639E+02  0.000000000E+00  0.00000E+00  9.000E+00
      25     1     1     2     0     0  1.512297092E+02  8.274466558E+01  1.290279630E+02  2.489785530E+02  1.250000000E+02  0.00000E+00  9.000E+00
      25     1     1     2     0     0 -1.411694174E+02 -8.910774586E+01 -2.718414537E+02  3.426248250E+02  1.250000000E+02  0.00000E+00  9.000E+00
      21     1     1     2   502   512 -1.006029185E+01  6.363080281E+00 -7.621375454E+00  1.413448360E+01  1.884864366E-07  0.00000E+00  9.000E+00
#rwgt            1           1   4.3034788066538696E-002           6      236430           0
</event>
<event>
      5   9999  3.79277E-02  8.39995E+01 -1.00000E+00  1.27332E-01
      21    -1     0     0   502   501  0.000000000E+00  0.000000000E+00  6.313821286E+02  6.313821286E+02  0.000000000E+00  0.00000E+00  9.000E+00
      21    -1     0     0   501   511  0.000000000E+00  0.000000000E+00 -2.196680411E+02  2.196680411E+02  0.000000000E+00  0.00000E+00  9.000E+00
      25     1     1     2     0     0  1.903111503E+02 -1.497855955E+02  1.507785366E+02  3.114694618E+02  1.250000000E+02  0.00000E+00  9.000E+00
      25     1     1     2     0     0 -2.664706184E+02  1.852208361E+02  2.877831262E+02  4.513950336E+02  1.250000000E+02  0.00000E+00  9.000E+00
      21     1     1     2   502   511  7.615946817E+01 -3.543524056E+01 -2.684757531E+01  8.818567438E+01  8.920806376E-07  0.00000E+00  9.000E+00
#rwgt            2          11   2.1446599227774817E-003           6      236777           0
</event>
<event>
      5   9999 -3.79277E-02  1.47402E+01 -1.00000E+00  1.78101E-01
      21    -1     0     0   502   501  0.000000000E+00  0.000000000E+00  4.471856676E+02  4.471856676E+02  0.000000000E+00  0.00000E+00  9.000E+00
      21    -1     0     0   501   512  0.000000000E+00  0.000000000E+00 -7.801758715E+01  7.801758715E+01  0.000000000E+00  0.00000E+00  9.000E+00
      25     1     1     2     0     0 -3.892780276E+01 -9.641398223E+01  2.664195944E+02  3.121144503E+02  1.250000000E+02  0.00000E+00  9.000E+00
      25     1     1     2     0     0  4.846158390E+01  1.076559071E+02  9.474779648E+01  1.963172544E+02  1.250000000E+02  0.00000E+00  9.000E+00
      21     1     1     2   502   512 -9.533781148E+00 -1.124192483E+01  8.000689497E+00  1.677155000E+01  1.192092896E-07  0.00000E+00  9.000E+00
#rwgt            1           1 -0.19012165168797604                6      236857           0
</event>
<event>
      5   9999  3.79277E-02  2.59328E+01 -1.00000E+00  1.57568E-01
      21    -1     0     0   511   501  0.000000000E+00  0.000000000E+00  2.954949089E+02  2.954949089E+02  0.000000000E+00  0.00000E+00  9.000E+00
      21    -1     0     0   501   502  0.000000000E+00  0.000000000E+00 -1.847421520E+02  1.847421520E+02  0.000000000E+00  0.00000E+00  9.000E+00
      25     1     1     2     0     0 -1.394266928E+02  5.962246418E+01 -1.030512394E+01  1.967888119E+02  1.250000000E+02  0.00000E+00  9.000E+00
      25     1     1     2     0     0  1.652434492E+02 -5.717172376E+01  6.977494409E+01  2.259812964E+02  1.250000000E+02  0.00000E+00  9.000E+00
      21     1     1     2   511   502 -2.581675642E+01 -2.450740415E+00  5.128293672E+01  5.746695259E+01  6.743495762E-07  0.00000E+00  9.000E+00
#rwgt            1           1   4.2747695234639768E-002           6      237058           0
</event>
<event>
      5   9999  3.79277E-02  7.67900E+01 -1.00000E+00  1.29216E-01
      21    -1     0     0   502   501  0.000000000E+00  0.000000000E+00  4.009155386E+02  4.009155386E+02  0.000000000E+00  0.00000E+00  9.000E+00
      21    -1     0     0   501   512  0.000000000E+00  0.000000000E+00 -8.450767676E+02  8.450767676E+02  0.000000000E+00  0.00000E+00  9.000E+00
      25     1     1     2     0     0  1.295545465E+02 -3.060678014E+02  1.409338674E+02  3.820330281E+02  1.250000000E+02  0.00000E+00  9.000E+00
      25     1     1     2     0     0 -6.016541762E+01  3.389593223E+02 -1.095897218E+02  3.822933518E+02  1.250000000E+02  0.00000E+00  9.000E+00
      21     1     1     2   502   512 -6.938912883E+01 -3.289152091E+01 -4.755053746E+02  4.816659264E+02  5.394796609E-06  0.00000E+00  9.000E+00
#rwgt            1           1   3.0803141116931564E-002           6      237381           0
</event>
<event>
      5   9999  3.79277E-02  8.41096E+01 -1.00000E+00  1.27305E-01
      21    -1     0     0   502   511  0.000000000E+00  0.000000000E+00  1.113920635E+02  1.113920635E+02  0.000000000E+00  0.00000E+00  9.000E+00
      21    -1     0     0   501   502  0.000000000E+00  0.000000000E+00 -5.283476151E+02  5.283476151E+02  0.000000000E+00  0.00000E+00  9.000E+00
      25     1     1     2     0     0  4.452429621E+01  2.699884451E+01 -3.375878518E+02  3.637332928E+02  1.250000000E+02  0.00000E+00  9.000E+00
      25     1     1     2     0     0 -1.283246813E+02 -1.979336452E+01 -5.498201149E+01  1.884330722E+02  1.250000000E+02  0.00000E+00  9.000E+00
      21     1     1     2   501   511  8.380038509E+01 -7.205479989E+00 -2.438568829E+01  8.757331372E+01  3.371747881E-07  0.00000E+00  9.000E+00
#rwgt            1           1   4.1321505733369616E-002           6      237523           0
</event>
<event>
      5   9999  3.79277E-02  5.33995E+01 -1.00000E+00  1.37465E-01
      21    -1     0     0   502   501  0.000000000E+00  0.000000000E+00  2.037922065E+02  2.037922065E+02  0.000000000E+00  0.00000E+00  9.000E+00
      21    -1     0     0   501   512  0.000000000E+00  0.000000000E+00 -2.186297948E+02  2.186297948E+02  0.000000000E+00  0.00000E+00  9.000E+00
      25     1     1     2     0     0  2.947721204E+01  1.029950031E+02 -4.658380955E+01  1.710904089E+02  1.250000000E+02  0.00000E+00  9.000E+00
      25     1     1     2     0     0  1.179726413E+00 -1.467175818E+02  4.119459518E+01  1.971026008E+02  1.250000000E+02  0.00000E+00  9.000E+00
      21     1     1     2   502   512 -3.065693845E+01  4.372257873E+01 -9.448373965E+00  5.422899167E+01  8.172577143E-07  0.00000E+00  9.000E+00
#rwgt            1           1   3.2038206563512237E-002           6      237567           0
</event>
<event>
      5   9999  3.79277E-02  3.43652E+01 -1.00000E+00  1.49052E-01
      21    -1     0     0   502   501  0.000000000E+00  0.000000000E+00  1.069964576E+02  1.069964576E+02  0.000000000E+00  0.00000E+00  9.000E+00
      21    -1     0     0   511   502  0.000000000E+00  0.000000000E+00 -8.266120647E+02  8.266120647E+02  0.000000000E+00  0.00000E+00  9.000E+00
      25     1     1     2     0     0  1.776897163E+02 -8.108247270E+01 -1.116935896E+02  2.573877631E+02  1.250000000E+02  0.00000E+00  9.000E+00
      25     1     1     2     0     0 -2.113916260E+02  8.780177073E+01 -5.533031338E+02  6.116902226E+02  1.250000000E+02  0.00000E+00  9.000E+00
      21     1     1     2   511   501  3.370190973E+01 -6.719298020E+00 -5.461888376E+01  6.453053656E+01  9.536743164E-07  0.00000E+00  9.000E+00
#rwgt            1           1   3.6991555830108817E-002           6      237722           0
</event>
<event>
      5   9999  3.79277E-02  1.70166E+02 -1.00000E+00  1.14263E-01
      21    -1     0     0   502   512  0.000000000E+00  0.000000000E+00  2.745639601E+03  2.745639601E+03  0.000000000E+00  0.00000E+00  9.000E+00
      21    -1     0     0   501   502  0.000000000E+00  0.000000000E+00 -1.013053327E+02  1.013053327E+02  0.000000000E+00  0.00000E+00  9.000E+00
      25     1     1     2     0     0 -2.457280098E+02 -1.221108189E+02  1.903114111E+02  3.565623930E+02  1.250000000E+02  0.00000E+00  9.000E+00
      25     1     1     2     0     0  7.853624388E+01  9.043266323E+01  5.031142148E+02  5.320666512E+02  1.250000000E+02  0.00000E+00  9.000E+00
      21     1     1     2   501   512  1.671917659E+02  3.167815570E+01  1.950908642E+03  1.958315889E+03  3.051757812E-05  0.00000E+00  9.000E+00
#rwgt            1           1   5.7988219054494423E-002           6      238012           0
</event>
<event>
      5   9999  3.79277E-02  4.75527E+01 -1.00000E+00  1.40331E-01
      21    -1     0     0   511   501  0.000000000E+00  0.000000000E+00  2.824893799E+02  2.824893799E+02  0.000000000E+00  0.00000E+00  9.000E+00
      21    -1     0     0   501   502  0.000000000E+00  0.000000000E+00 -1.800122139E+02  1.800122139E+02  0.000000000E+00  0.00000E+00  9.000E+00
      25     1     1     2     0     0  7.983983681E+01  7.310073291E+01 -5.214165016E+01  1.733835874E+02  1.250000000E+02  0.00000E+00  9.000E+00
      25     1     1     2     0     0 -1.258649232E+02 -8.505704218E+01  1.230719247E+02  2.320525328E+02  1.250000000E+02  0.00000E+00  9.000E+00
      21     1     1     2   511   502  4.602508642E+01  1.195630928E+01  3.154689142E+01  5.706547354E+01  3.371747881E-07  0.00000E+00  9.000E+00
#rwgt            1           1   3.8279577605107779E-002           6      238106           0
</event>
<event>
      5   9999  3.79277E-02  1.74205E+02 -1.00000E+00  1.13876E-01
      21    -1     0     0   512   501  0.000000000E+00  0.000000000E+00  1.902121741E+02  1.902121741E+02  0.000000000E+00  0.00000E+00  9.000E+00
      21    -1     0     0   501   502  0.000000000E+00  0.000000000E+00 -1.045198490E+03  1.045198490E+03  0.000000000E+00  0.00000E+00  9.000E+00
      25     1     1     2     0     0  8.992355179E+01  7.767868036E+01 -8.027346379E+02  8.210530564E+02  1.250000000E+02  0.00000E+00  9.000E+00
      25     1     1     2     0     0 -2.953581532E+01  8.572434867E+01 -1.494271623E+02  2.148825381E+02  1.250000000E+02  0.00000E+00  9.000E+00
      21     1     1     2   512   502 -6.038773647E+01 -1.634030290E+02  9.717548431E+01  1.994750695E+02  1.348699152E-06  0.00000E+00  9.000E+00
#rwgt            1           1   4.9894358212271471E-002           6      238177           0
</event>
<event>
      5   9999  3.79277E-02  9.23442E+01 -1.00000E+00  1.25404E-01
      21    -1     0     0   502   511  0.000000000E+00  0.000000000E+00  2.215081911E+02  2.215081911E+02  0.000000000E+00  0.00000E+00  9.000E+00
      21    -1     0     0   501   502  0.000000000E+00  0.000000000E+00 -8.224019685E+02  8.224019685E+02  0.000000000E+00  0.00000E+00  9.000E+00
      25     1     1     2     0     0  1.534449256E+02  6.628803054E+01 -6.870371222E+02  7.180420987E+02  1.250000000E+02  0.00000E+00  9.000E+00
      25     1     1     2     0     0 -6.218987044E+01 -5.214735996E+01 -5.358957213E+01  1.583785635E+02  1.250000000E+02  0.00000E+00  9.000E+00
      21     1     1     2   501   511 -9.125505519E+01 -1.414067058E+01  1.397329169E+02  1.674894974E+02  3.814697266E-06  0.00000E+00  9.000E+00
#rwgt            1           1   4.4012627348815683E-002           6      238227           0
</event>
<event>
      5   9999  3.79277E-02  9.09163E+01 -1.00000E+00  1.25717E-01
      21    -1     0     0   502   512  0.000000000E+00  0.000000000E+00  1.094182128E+02  1.094182128E+02  0.000000000E+00  0.00000E+00  9.000E+00
      21    -1     0     0   501   502  0.000000000E+00  0.000000000E+00 -6.650745812E+02  6.650745812E+02  0.000000000E+00  0.00000E+00  9.000E+00
      25     1     1     2     0     0 -9.512071490E+01 -7.867608204E+01 -1.266039967E+02  2.165443332E+02  1.250000000E+02  0.00000E+00  9.000E+00
      25     1     1     2     0     0  1.827099158E+02  1.030464358E+02 -3.874211866E+02  4.579537718E+02  1.250000000E+02  0.00000E+00  9.000E+00
      21     1     1     2   501   512 -8.758920087E+01 -2.437035374E+01 -4.163118515E+01  9.999468900E+01  1.719260824E-06  0.00000E+00  9.000E+00
#rwgt            1           1   3.7024286494030327E-002           6      238347           0
</event>
<event>
      5   9999  3.79277E-02  4.11818E+01 -1.00000E+00  1.44060E-01
      21    -1     0     0   502   501  0.000000000E+00  0.000000000E+00  1.780004616E+02  1.780004616E+02  0.000000000E+00  0.00000E+00  9.000E+00
      21    -1     0     0   511   502  0.000000000E+00  0.000000000E+00 -2.333604859E+02  2.333604859E+02  0.000000000E+00  0.00000E+00  9.000E+00
      25     1     1     2     0     0  4.328250448E+01  1.515396276E+01 -1.426200139E+02  1.951114710E+02  1.250000000E+02  0.00000E+00  9.000E+00
      25     1     1     2     0     0 -3.610951464E+01 -5.570621210E+01  9.982128345E+01  1.731945950E+02  1.250000000E+02  0.00000E+00  9.000E+00
      21     1     1     2   511   501 -7.172989835E+00  4.055224934E+01 -1.256129396E+01  4.305488144E+01  7.539457465E-07  0.00000E+00  9.000E+00
#rwgt            2          11   2.7715023355384086E-003           6      238464           0
</event>
<event>
      5   9999  3.79277E-02  1.27264E+02 -1.00000E+00  1.19295E-01
      21    -1     0     0   502   512  0.000000000E+00  0.000000000E+00  8.723849849E+02  8.723849849E+02  0.000000000E+00  0.00000E+00  9.000E+00
      21    -1     0     0   501   502  0.000000000E+00  0.000000000E+00 -1.438706501E+02  1.438706501E+02  0.000000000E+00  0.00000E+00  9.000E+00
      25     1     1     2     0     0 -2.041994869E+02  5.358433991E+01  1.655631749E+02  2.959812103E+02  1.250000000E+02  0.00000E+00  9.000E+00
      25     1     1     2     0     0  1.547402279E+02 -1.708439786E+02  1.834881517E+02  3.200392241E+02  1.250000000E+02  0.00000E+00  9.000E+00
      21     1     1     2   501   512  4.945925903E+01  1.172596387E+02  3.794630081E+02  4.002352005E+02  0.000000000E+00  0.00000E+00  9.000E+00
#rwgt            1           1   3.3111922204496255E-002           6      238514           0
</event>
<event>
      5   9999  3.79277E-02  4.69677E+01 -1.00000E+00  1.40644E-01
      21    -1     0     0   511   501  0.000000000E+00  0.000000000E+00  2.433331371E+02  2.433331371E+02  0.000000000E+00  0.00000E+00  9.000E+00
      21    -1     0     0   501   502  0.000000000E+00  0.000000000E+00 -1.385122550E+02  1.385122550E+02  0.000000000E+00  0.00000E+00  9.000E+00
      25     1     1     2     0     0  2.076438062E+01 -4.432497765E+01  1.382280906E+02  1.926859314E+02  1.250000000E+02  0.00000E+00  9.000E+00
      25     1     1     2     0     0 -2.787433604E+01 -2.101408817E+00 -5.253993414E+01  1.384443542E+02  1.250000000E+02  0.00000E+00  9.000E+00
      21     1     1     2   511   502  7.109955425E+00  4.642638646E+01  1.913272562E+01  5.071510639E+01  1.011524364E-06  0.00000E+00  9.000E+00
#rwgt            1           1   5.8697468332631578E-002           6      238631           0
</event>
<event>
      5   9999  3.79277E-02  1.39098E+01 -1.00000E+00  1.80527E-01
      21    -1     0     0   502   501  0.000000000E+00  0.000000000E+00  1.685705064E+02  1.685705064E+02  0.000000000E+00  0.00000E+00  9.000E+00
      21    -1     0     0   501   512  0.000000000E+00  0.000000000E+00 -7.029070756E+02  7.029070756E+02  0.000000000E+00  0.00000E+00  9.000E+00
      25     1     1     2     0     0 -1.119463185E+02  8.332750238E+01 -2.639639056E+02  3.236933647E+02  1.250000000E+02  0.00000E+00  9.000E+00
      25     1     1     2     0     0  1.062860974E+02 -9.603361557E+01  7.335354578E+01  2.037766731E+02  1.250000000E+02  0.00000E+00  9.000E+00
      21     1     1     2   502   512  5.660221037E+00  1.270611319E+01 -3.437262094E+02  3.440075442E+02  3.814697266E-06  0.00000E+00  9.000E+00
#rwgt            1           1   4.6734396327068925E-002           6      238733           0
</event>
<event>
      5   9999  3.79277E-02  6.99662E+01 -1.00000E+00  1.31231E-01
      21    -1     0     0   502   501  0.000000000E+00  0.000000000E+00  4.226460942E+02  4.226460942E+02  0.000000000E+00  0.00000E+00  9.000E+00
      21    -1     0     0   501   511  0.000000000E+00  0.000000000E+00 -1.768738758E+03  1.768738758E+03  0.000000000E+00  0.00000E+00  9.000E+00
      25     1     1     2     0     0 -2.025361133E+02  8.621025526E+01  7.916683919E+01  2.652272116E+02  1.250000000E+02  0.00000E+00  9.000E+00
      25     1     1     2     0     0  2.681737428E+02 -6.198275647E+01  1.581741557E+02  3.411789589E+02  1.250000000E+02  0.00000E+00  9.000E+00
      21     1     1     2   502   511 -6.563762950E+01 -2.422749878E+01 -1.583433659E+03  1.584978682E+03  2.157918644E-05  0.00000E+00  9.000E+00
#rwgt            1           1   3.7447641615571174E-002           6      238954           0
</event>
<event>
      5   9999  3.79277E-02  2.66304E+01 -1.00000E+00  1.56723E-01
       1    -1     0     0   502     0  0.000000000E+00  0.000000000E+00  3.452081114E+02  3.452081114E+02  0.000000000E+00  0.00000E+00  9.000E+00
      21    -1     0     0   501   502  0.000000000E+00  0.000000000E+00 -2.950214202E+02  2.950214202E+02  0.000000000E+00  0.00000E+00  9.000E+00
      25     1     1     2     0     0 -3.484378908E+01 -1.015936543E+02 -2.199527498E+02  2.748446331E+02  1.250000000E+02  0.00000E+00  9.000E+00
      25     1     1     2     0     0  5.639039044E+01  1.172435865E+02  1.290934081E+02  2.218468903E+02  1.250000000E+02  0.00000E+00  9.000E+00
       1     1     1     2   501     0 -2.154660137E+01 -1.564993223E+01  1.410460329E+02  1.435380082E+02  0.000000000E+00  0.00000E+00  9.000E+00
#rwgt            1           1   1.6145249850760594E-002           6      239069           0
</event>
<event>
      5   9999  3.79277E-02  1.40114E+02 -1.00000E+00  1.17579E-01
      21    -1     0     0   502   501  0.000000000E+00  0.000000000E+00  2.062431450E+03  2.062431450E+03  0.000000000E+00  0.00000E+00  9.000E+00
      21    -1     0     0   501   511  0.000000000E+00  0.000000000E+00 -1.504264515E+02  1.504264515E+02  0.000000000E+00  0.00000E+00  9.000E+00
      25     1     1     2     0     0  1.173117015E+01 -4.822427652E+01  2.451880482E+02  2.796522486E+02  1.250000000E+02  0.00000E+00  9.000E+00
      25     1     1     2     0     0 -8.814500886E+01  1.656670752E+02  1.753834760E+03  1.768269348E+03  1.250000000E+02  0.00000E+00  9.000E+00
      21     1     1     2   502   511  7.641383871E+01 -1.174427987E+02 -8.701780901E+01  1.649363052E+02  6.031565972E-06  0.00000E+00  9.000E+00
#rwgt            1           1  0.12585213517777666                6      239146           0
</event>
<event>
      5   9999  3.79277E-02  1.79581E+01 -1.00000E+00  1.70323E-01
      21    -1     0     0   502   501  0.000000000E+00  0.000000000E+00  2.956031653E+02  2.956031653E+02  0.000000000E+00  0.00000E+00  9.000E+00
      21    -1     0     0   512   502  0.000000000E+00  0.000000000E+00 -2.142823192E+02  2.142823192E+02  0.000000000E+00  0.00000E+00  9.000E+00
      25     1     1     2     0     0  1.757613454E+02  2.629010970E+01  1.125716663E+00  2.172774439E+02  1.250000000E+02  0.00000E+00  9.000E+00
      25     1     1     2     0     0 -1.697512698E+02 -9.367613853E+00  1.243570278E+02  2.449345140E+02  1.250000000E+02  0.00000E+00  9.000E+00
      21     1     1     2   512   501 -6.010075596E+00 -1.692249585E+01 -4.416189829E+01  4.767352656E+01  6.743495762E-07  0.00000E+00  9.000E+00
#rwgt            1           1   3.2899435173029332E-002           6      239188           0
</event>
<event>
      5   9999  3.79277E-02  1.21620E+02 -1.00000E+00  1.20122E-01
      21    -1     0     0   502   511  0.000000000E+00  0.000000000E+00  4.047380918E+02  4.047380918E+02  0.000000000E+00  0.00000E+00  9.000E+00
      21    -1     0     0   501   502  0.000000000E+00  0.000000000E+00 -3.236823054E+02  3.236823054E+02  0.000000000E+00  0.00000E+00  9.000E+00
      25     1     1     2     0     0  1.215041751E+02 -6.088557163E+01  2.133736141E+02  2.821765699E+02  1.250000000E+02  0.00000E+00  9.000E+00
      25     1     1     2     0     0 -2.069310269E+02  1.474517421E+02 -1.545570857E+02  3.226071278E+02  1.250000000E+02  0.00000E+00  9.000E+00
      21     1     1     2   501   511  8.542685185E+01 -8.656617050E+01  2.223925797E+01  1.236366996E+02  8.596304120E-07  0.00000E+00  9.000E+00
#rwgt            1           1   4.2339322725665839E-002           6      239467           0
</event>
<event>
      5   9999  3.79277E-02  1.56794E+01 -1.00000E+00  1.75590E-01
      21    -1     0     0   502   501  0.000000000E+00  0.000000000E+00  1.018688177E+03  1.018688177E+03  0.000000000E+00  0.00000E+00  9.000E+00
      21    -1     0     0   501   512  0.000000000E+00  0.000000000E+00 -3.606676022E+02  3.606676022E+02  0.000000000E+00  0.00000E+00  9.000E+00
      25     1     1     2     0     0 -2.038519765E+02 -2.388627301E+01  7.440629848E+02  7.819085034E+02  1.250000000E+02  0.00000E+00  9.000E+00
      25     1     1     2     0     0  2.088757497E+02  9.033463054E+00  1.974241504E+02  3.135474086E+02  1.250000000E+02  0.00000E+00  9.000E+00
      21     1     1     2   502   512 -5.023773183E+00  1.485280995E+01 -2.834665599E+02  2.838998676E+02  0.000000000E+00  0.00000E+00  9.000E+00
#rwgt            1           1   4.0800289133424865E-002           6      239634           0
</event>
<event>
      5   9999  3.79277E-02  8.66321E+01 -1.00000E+00  1.26697E-01
      21    -1     0     0   502   501  0.000000000E+00  0.000000000E+00  8.231197188E+01  8.231197188E+01  0.000000000E+00  0.00000E+00  9.000E+00
      21    -1     0     0   501   511  0.000000000E+00  0.000000000E+00 -1.377110758E+03  1.377110758E+03  0.000000000E+00  0.00000E+00  9.000E+00
      25     1     1     2     0     0 -3.143898646E+01 -1.503791614E+02 -2.200345499E+02  2.960447689E+02  1.250000000E+02  0.00000E+00  9.000E+00
      25     1     1     2     0     0  1.142831590E+02  1.757162865E+02 -3.139689334E+02  3.976661224E+02  1.250000000E+02  0.00000E+00  9.000E+00
      21     1     1     2   502   511 -8.284417257E+01 -2.533712514E+01 -7.607953026E+02  7.657118383E+02  0.000000000E+00  0.00000E+00  9.000E+00
#rwgt            1           1   3.8287521064175246E-002           6      239919           0
</event>
<event>
      5   9999  3.79277E-02  1.20558E+02 -1.00000E+00  1.20283E-01
       2    -1     0     0   502     0  0.000000000E+00  0.000000000E+00  1.208601806E+03  1.208601806E+03  0.000000000E+00  0.00000E+00  9.000E+00
      21    -1     0     0   501   502  0.000000000E+00  0.000000000E+00 -4.277909188E+02  4.277909188E+02  0.000000000E+00  0.00000E+00  9.000E+00
      25     1     1     2     0     0 -2.238233980E+02  1.633109412E+02 -3.189905968E+02  4.406215812E+02  1.250000000E+02  0.00000E+00  9.000E+00
      25     1     1     2     0     0  1.042999528E+02 -1.790682452E+02  2.930525340E+02  3.800640791E+02  1.250000000E+02  0.00000E+00  9.000E+00
       2     1     1     2   501     0  1.195234452E+02  1.575730393E+01  8.067489503E+02  8.157070647E+02  1.078959322E-05  0.00000E+00  9.000E+00
#rwgt            1           1   5.5273765135221836E-002           6      240004           0
</event>
<event>
      5   9999  3.79277E-02  6.18787E+01 -1.00000E+00  1.33992E-01
      21    -1     0     0   502   501  0.000000000E+00  0.000000000E+00  3.566469182E+02  3.566469182E+02  0.000000000E+00  0.00000E+00  9.000E+00
      21    -1     0     0   501   511  0.000000000E+00  0.000000000E+00 -3.085563997E+02  3.085563997E+02  0.000000000E+00  0.00000E+00  9.000E+00
      25     1     1     2     0     0 -5.338209192E+01 -1.762256213E+02  1.839781620E+02  2.887526302E+02  1.250000000E+02  0.00000E+00  9.000E+00
      25     1     1     2     0     0  1.152604389E+02  1.760198341E+02 -2.058666930E+01  2.455947103E+02  1.250000000E+02  0.00000E+00  9.000E+00
      21     1     1     2   502   511 -6.187834696E+01  2.057872108E-01 -1.153009742E+02  1.308559774E+02  2.697398305E-06  0.00000E+00  9.000E+00
#rwgt            1           1   1.3162969961745539E-002           6      240182           0
</event>
<event>
      5   9999  3.79277E-02  3.93897E+01 -1.00000E+00  1.45256E-01
      21    -1     0     0   502   512  0.000000000E+00  0.000000000E+00  1.630722218E+03  1.630722218E+03  0.000000000E+00  0.00000E+00  9.000E+00
      21    -1     0     0   501   502  0.000000000E+00  0.000000000E+00 -5.515358884E+01  5.515358884E+01  0.000000000E+00  0.00000E+00  9.000E+00
      25     1     1     2     0     0  3.993359452E+01 -2.369240691E+02  6.170248903E+02  6.738489606E+02  1.250000000E+02  0.00000E+00  9.000E+00
      25     1     1     2     0     0 -1.577718378E+01  2.058111549E+02  5.379789841E+02  5.896215212E+02  1.250000000E+02  0.00000E+00  9.000E+00
      21     1     1     2   501   512 -2.415641074E+01  3.111291423E+01  4.205647551E+02  4.224053253E+02  5.394796609E-06  0.00000E+00  9.000E+00
#rwgt            1           1   2.8817808869211706E-002           6      240287           0
</event>
<event>
      5   9999  3.79277E-02  2.36463E+01 -1.00000E+00  1.60583E-01
      21    -1     0     0   502   501  0.000000000E+00  0.000000000E+00  3.433082783E+01  3.433082783E+01  0.000000000E+00  0.00000E+00  9.000E+00
      21    -1     0     0   511   502  0.000000000E+00  0.000000000E+00 -1.240452726E+03  1.240452726E+03  0.000000000E+00  0.00000E+00  9.000E+00
      25     1     1     2     0     0  3.595659722E+00  1.340189148E+02 -5.529547433E+02  5.825443729E+02  1.250000000E+02  0.00000E+00  9.000E+00
      25     1     1     2     0     0 -1.332518410E+00 -1.575567067E+02 -5.311857016E+02  5.679869198E+02  1.250000000E+02  0.00000E+00  9.000E+00
      21     1     1     2   511   501 -2.263141312E+00  2.353779193E+01 -1.219814532E+02  1.242522611E+02  2.697398305E-06  0.00000E+00  9.000E+00
#rwgt            1           1   3.7145000651495813E-002           6      240637           0
</event>
<event>
      5   9999  3.79277E-02  7.54028E+01 -1.00000E+00  1.29606E-01
      21    -1     0     0   512   501  0.000000000E+00  0.000000000E+00  1.100856769E+03  1.100856769E+03  0.000000000E+00  0.00000E+00  9.000E+00
      21    -1     0     0   501   502  0.000000000E+00  0.000000000E+00 -1.386881281E+02  1.386881281E+02  0.000000000E+00  0.00000E+00  9.000E+00
      25     1     1     2     0     0 -2.341507764E+02  1.950835223E+02  1.746263494E+02  3.728317699E+02  1.250000000E+02  0.00000E+00  9.000E+00
      25     1     1     2     0     0  2.032430368E+02 -1.263063882E+02  4.866809898E+02  5.565468727E+02  1.250000000E+02  0.00000E+00  9.000E+00
      21     1     1     2   512   502  3.090773963E+01 -6.877713407E+01  3.008613013E+02  3.101662541E+02  3.814697266E-06  0.00000E+00  9.000E+00
#rwgt            1           1   4.0259407378134264E-002           6      240786           0
</event>
<event>
      5   9999  3.79277E-02  6.40375E+01 -1.00000E+00  1.33209E-01
      -5    -1     0     0     0   501  0.000000000E+00  0.000000000E+00  1.544502518E+02  1.544502518E+02  0.000000000E+00  0.00000E+00  9.000E+00
      21    -1     0     0   501   502  0.000000000E+00  0.000000000E+00 -1.883520660E+03  1.883520660E+03  0.000000000E+00  0.00000E+00  9.000E+00
      25     1     1     2     0     0 -1.225235278E+02 -1.219911700E+02 -1.151930036E+03  1.171521092E+03  1.250000000E+02  0.00000E+00  9.000E+00
      25     1     1     2     0     0  5.865288856E+01  1.173715060E+02 -7.025984424E+02  7.255934144E+02  1.250000000E+02  0.00000E+00  9.000E+00
      -5     1     1     2     0   502  6.387063920E+01  4.619664038E+00  1.254580699E+02  1.408564061E+02  3.303624740E-06  0.00000E+00  9.000E+00
#rwgt            1           1   5.6474896054931022E-002           6      240880           0
</event>
<event>
      5   9999  3.79277E-02  1.44165E+02 -1.00000E+00  1.17081E-01
      21    -1     0     0   502   501  0.000000000E+00  0.000000000E+00  1.288013286E+03  1.288013286E+03  0.000000000E+00  0.00000E+00  9.000E+00
      21    -1     0     0   501   511  0.000000000E+00  0.000000000E+00 -2.309563113E+02  2.309563113E+02  0.000000000E+00  0.00000E+00  9.000E+00
      25     1     1     2     0     0 -1.388403837E+02  7.991364027E+01  1.119362240E+03  1.137655338E+03  1.250000000E+02  0.00000E+00  9.000E+00
      25     1     1     2     0     0  6.601743897E+01  4.450612694E+01  8.855661873E+01  1.726452209E+02  1.250000000E+02  0.00000E+00  9.000E+00
      21     1     1     2   502   511  7.282294469E+01 -1.244197672E+02 -1.508618842E+02  2.086690390E+02  4.264961200E-06  0.00000E+00  9.000E+00
#rwgt            1           1   3.2179709618631147E-002           6      241084           0
</event>
<event>
      5   9999  3.79277E-02  2.54834E+01 -1.00000E+00  1.58130E-01
      21    -1     0     0   502   501  0.000000000E+00  0.000000000E+00  5.417149546E+02  5.417149546E+02  0.000000000E+00  0.00000E+00  9.000E+00
      21    -1     0     0   501   512  0.000000000E+00  0.000000000E+00 -5.159046464E+02  5.159046464E+02  0.000000000E+00  0.00000E+00  9.000E+00
      25     1     1     2     0     0 -1.293101498E+02  6.141749507E+01  2.451268644E+02  3.101699585E+02  1.250000000E+02  0.00000E+00  9.000E+00
      25     1     1     2     0     0  1.216232933E+02 -8.571394241E+01  2.279021830E+02  2.995054431E+02  1.250000000E+02  0.00000E+00  9.000E+00
      21     1     1     2   502   512  7.686856464E+00  2.429644733E+01 -4.472187391E+02  4.479441994E+02  5.394796609E-06  0.00000E+00  9.000E+00
#rwgt            1           1   3.1274651086948956E-002           6      241216           0
</event>
<event>
      5   9999  3.79277E-02  4.76254E+01 -1.00000E+00  1.40292E-01
      21    -1     0     0   502   501  0.000000000E+00  0.000000000E+00  7.777331765E+02  7.777331765E+02  0.000000000E+00  0.00000E+00  9.000E+00
      21    -1     0     0   511   502  0.000000000E+00  0.000000000E+00 -1.186408196E+02  1.186408196E+02  0.000000000E+00  0.00000E+00  9.000E+00
      25     1     1     2     0     0  3.075341181E+01  1.248025972E+02  6.638276997E+02  6.876144817E+02  1.250000000E+02  0.00000E+00  9.000E+00
      25     1     1     2     0     0 -3.117889600E+01 -7.717909150E+01  2.552643590E+01  1.523329730E+02  1.250000000E+02  0.00000E+00  9.000E+00
      21     1     1     2   511   501  4.254841880E-01 -4.762350568E+01 -3.026177864E+01  5.642654141E+01  1.469710828E-06  0.00000E+00  9.000E+00
#rwgt            1           1   3.6764898529976262E-002           6      241370           0
</event>
<event>
      5   9999 -3.79277E-02  6.31145E+01 -1.00000E+00  1.33539E-01
      21    -1     0     0   502   501  0.000000000E+00  0.000000000E+00  7.309418704E+02  7.309418704E+02  0.000000000E+00  0.00000E+00  9.000E+00
      21    -1     0     0   501   512  0.000000000E+00  0.000000000E+00 -8.960515814E+01  8.960515814E+01  0.000000000E+00  0.00000E+00  9.000E+00
      25     1     1     2     0     0  4.654751978E+01  3.301374692E+01  8.955285608E+00  1.377017655E+02  1.250000000E+02  0.00000E+00  9.000E+00
      25     1     1     2     0     0 -4.391074841E+01  3.004569080E+01  5.932008080E+02  6.085582108E+02  1.250000000E+02  0.00000E+00  9.000E+00
      21     1     1     2   502   512 -2.636771375E+00 -6.305943772E+01  3.918061870E+01  7.428705224E+01  1.846782373E-06  0.00000E+00  9.000E+00
#rwgt            1           1  -5.3696186492833314E-004           6      241513           0
</event>
<event>
      5   9999  3.79277E-02  2.25498E+01 -1.00000E+00  1.62181E-01
      21    -1     0     0   502   501  0.000000000E+00  0.000000000E+00  7.860897428E+02  7.860897428E+02  0.000000000E+00  0.00000E+00  9.000E+00
       2    -1     0     0   501     0  0.000000000E+00  0.000000000E+00 -9.104784915E+02  9.104784915E+02  0.000000000E+00  0.00000E+00  9.000E+00
      25     1     1     2     0     0 -1.798373794E+02  6.100331889E+01  5.145131747E+02  5.625048399E+02  1.250000000E+02  0.00000E+00  9.000E+00
      25     1     1     2     0     0  1.839744235E+02 -3.883624587E+01  1.959188131E+02  2.989381605E+02  1.250000000E+02  0.00000E+00  9.000E+00
       2     1     1     2   502     0 -4.137044038E+00 -2.216707302E+01 -8.348207365E+02  8.351252339E+02  1.078959322E-05  0.00000E+00  9.000E+00
#rwgt            1           1   2.9676224504565460E-002           6      241580           0
</event>
<event>
      5   9999  3.79277E-02  3.10346E+01 -1.00000E+00  1.52024E-01
      21    -1     0     0   511   501  0.000000000E+00  0.000000000E+00  3.506407861E+02  3.506407861E+02  0.000000000E+00  0.00000E+00  9.000E+00
      21    -1     0     0   501   502  0.000000000E+00  0.000000000E+00 -4.642356949E+02  4.642356949E+02  0.000000000E+00  0.00000E+00  9.000E+00
      25     1     1     2     0     0 -2.394382390E+01 -5.647670705E+01 -4.116305671E+02  4.345430346E+02  1.250000000E+02  0.00000E+00  9.000E+00
      25     1     1     2     0     0  5.451816365E+01  6.180173308E+01  1.003834234E+02  1.802595797E+02  1.250000000E+02  0.00000E+00  9.000E+00
      21     1     1     2   511   502 -3.057433975E+01 -5.325026032E+00  1.976522350E+02  2.000738667E+02  3.814697266E-06  0.00000E+00  9.000E+00
#rwgt            1           1   4.8157821992377642E-002           6      241757           0
</event>
<event>
      5   9999  3.79277E-02  1.97077E+02 -1.00000E+00  1.11881E-01
      21    -1     0     0   502   501  0.000000000E+00  0.000000000E+00  1.710214417E+02  1.710214417E+02  0.000000000E+00  0.00000E+00  9.000E+00
       2    -1     0     0   501     0  0.000000000E+00  0.000000000E+00 -6.096783791E+02  6.096783791E+02  0.000000000E+00  0.00000E+00  9.000E+00
      25     1     1     2     0     0  5.719386085E+01  1.902657551E+02 -1.895547328E+02  3.017087867E+02  1.250000000E+02  0.00000E+00  9.000E+00
      25     1     1     2     0     0  1.240750894E+02 -1.129306318E+02 -1.001376755E+02  2.319493684E+02  1.250000000E+02  0.00000E+00  9.000E+00
       2     1     1     2   502     0 -1.812689503E+02 -7.733512325E+01 -1.489645291E+02  2.470416657E+02  4.672030912E-06  0.00000E+00  9.000E+00
#rwgt            1           1   4.6148454676183524E-002           6      242029           0
</event>
<event>
      5   9999  3.79277E-02  5.43698E+01 -1.00000E+00  1.37031E-01
      21    -1     0     0   502   501  0.000000000E+00  0.000000000E+00  3.584268140E+01  3.584268140E+01  0.000000000E+00  0.00000E+00  9.000E+00
       2    -1     0     0   501     0  0.000000000E+00  0.000000000E+00 -1.334825425E+03  1.334825425E+03  0.000000000E+00  0.00000E+00  9.000E+00
      25     1     1     2     0     0  1.884766141E+01  1.115789865E+02 -4.491296289E+02  4.797369364E+02  1.250000000E+02  0.00000E+00  9.000E+00
      25     1     1     2     0     0 -3.405580592E+01 -1.637784405E+02 -7.308019073E+02  7.600523687E+02  1.250000000E+02  0.00000E+00  9.000E+00
       2     1     1     2   502     0  1.520814452E+01  5.219945393E+01 -1.190512075E+02  1.308788014E+02  0.000000000E+00  0.00000E+00  9.000E+00
#rwgt            1           1   1.4263689772305061E-002           6      242104           0
</event>
<event>
      5   9999  3.79277E-02  3.55017E+01 -1.00000E+00  1.48128E-01
       1    -1     0     0   502     0  0.000000000E+00  0.000000000E+00  1.187415055E+03  1.187415055E+03  0.000000000E+00  0.00000E+00  9.000E+00
      21    -1     0     0   501   502  0.000000000E+00  0.000000000E+00 -4.751905022E+02  4.751905022E+02  0.000000000E+00  0.00000E+00  9.000E+00
      25     1     1     2     0     0 -2.101920833E+02 -3.103048054E+01 -1.556337737E+02  2.915312576E+02  1.250000000E+02  0.00000E+00  9.000E+00
      25     1     1     2     0     0  1.821365333E+02  5.278488065E+01 -1.999975463E+02  3.026284502E+02  1.250000000E+02  0.00000E+00  9.000E+00
       1     1     1     2   501     0  2.805555006E+01 -2.175440010E+01  1.067855873E+03  1.068445850E+03  0.000000000E+00  0.00000E+00  9.000E+00
#rwgt            1           1   2.7100078042254512E-002           6      242294           0
</event>
<event>
      5   9999  3.79277E-02  2.60242E+01 -1.00000E+00  1.57456E-01
      21    -1     0     0   502   501  0.000000000E+00  0.000000000E+00  1.439438775E+02  1.439438775E+02  0.000000000E+00  0.00000E+00  9.000E+00
      21    -1     0     0   501   511  0.000000000E+00  0.000000000E+00 -3.281460582E+02  3.281460582E+02  0.000000000E+00  0.00000E+00  9.000E+00
      25     1     1     2     0     0  1.339257077E+02  1.810441824E+01 -1.004174002E+01  1.843629618E+02  1.250000000E+02  0.00000E+00  9.000E+00
      25     1     1     2     0     0 -1.589990037E+02 -1.113371304E+01 -1.598019673E+02  2.580044796E+02  1.250000000E+02  0.00000E+00  9.000E+00
      21     1     1     2   502   511  2.507329604E+01 -6.970705194E+00 -1.435847347E+01  2.972249426E+01  3.371747881E-07  0.00000E+00  9.000E+00
#rwgt            1           1   3.5878170789584767E-002           6      242574           0
</event>
<event>
      5   9999  3.79277E-02  9.58557E+00 -1.00000E+00  1.97906E-01
      21    -1     0     0   512   501  0.000000000E+00  0.000000000E+00  1.500016553E+02  1.500016553E+02  0.000000000E+00  0.00000E+00  9.000E+00
      21    -1     0     0   501   502  0.000000000E+00  0.000000000E+00 -2.997062373E+02  2.997062373E+02  0.000000000E+00  0.00000E+00  9.000E+00
      25     1     1     2     0     0  1.382179750E+02  7.667441602E+01 -1.329889865E+02  2.414420121E+02  1.250000000E+02  0.00000E+00  9.000E+00
      25     1     1     2     0     0 -1.290084354E+02 -7.933289305E+01 -2.151324339E+01  1.975467134E+02  1.250000000E+02  0.00000E+00  9.000E+00
      21     1     1     2   512   502 -9.209539642E+00  2.658477032E+00  4.797647834E+00  1.071916719E+01  1.032382731E-07  0.00000E+00  9.000E+00
#rwgt            1           1   2.4253270338241123E-002           6      242692           0
</event>
<event>
      5   9999  3.79277E-02  2.35308E+01 -1.00000E+00  1.60747E-01
      21    -1     0     0   502   501  0.000000000E+00  0.000000000E+00  5.231681285E+01  5.231681285E+01  0.000000000E+00  0.00000E+00  9.000E+00
      21    -1     0     0   501   511  0.000000000E+00  0.000000000E+00 -1.125253901E+03  1.125253901E+03  0.000000000E+00  0.00000E+00  9.000E+00
      25     1     1     2     0     0  1.846862777E+02  7.847949021E+01 -5.925219495E+02  6.379461671E+02  1.250000000E+02  0.00000E+00  9.000E+00
      25     1     1     2     0     0 -1.693699170E+02 -6.061586316E+01 -4.026879111E+02  4.584135747E+02  1.250000000E+02  0.00000E+00  9.000E+00
      21     1     1     2   502   511 -1.531636070E+01 -1.786362705E+01 -7.772722747E+01  8.121097196E+01  9.536743164E-07  0.00000E+00  9.000E+00
#rwgt            1           1   3.6196982431789614E-002           6      243010           0
</event>
<event>
      5   9999  3.79277E-02  3.86503E+01 -1.00000E+00  1.45771E-01
      21    -1     0     0   502   512  0.000000000E+00  0.000000000E+00  1.140255366E+03  1.140255366E+03  0.000000000E+00  0.00000E+00  9.000E+00
      21    -1     0     0   501   502  0.000000000E+00  0.000000000E+00 -4.579954823E+01  4.579954823E+01  0.000000000E+00  0.00000E+00  9.000E+00
      25     1     1     2     0     0 -9.281221741E+01  1.047735272E+02  4.703885199E+02  5.064404796E+02  1.250000000E+02  0.00000E+00  9.000E+00
      25     1     1     2     0     0  1.314043110E+02 -1.026532935E+02  3.881939012E+02  4.405953887E+02  1.250000000E+02  0.00000E+00  9.000E+00
      21     1     1     2   501   512 -3.859209354E+01 -2.120233647E+00  2.358733965E+02  2.390190457E+02  2.697398305E-06  0.00000E+00  9.000E+00
#rwgt            1           1   3.8827532016686143E-002           6      243424           0
</event>
<event>
      5   9999  3.79277E-02  2.47639E+01 -1.00000E+00  1.59060E-01
      21    -1     0     0   502   501  0.000000000E+00  0.000000000E+00  9.022592325E+02  9.022592325E+02  0.000000000E+00  0.00000E+00  9.000E+00
      21    -1     0     0   511   502  0.000000000E+00  0.000000000E+00 -7.019035139E+01  7.019035139E+01  0.000000000E+00  0.00000E+00  9.000E+00
      25     1     1     2     0     0  3.630283822E+01 -7.579810095E+01  7.473450841E+02  7.623732176E+02  1.250000000E+02  0.00000E+00  9.000E+00
      25     1     1     2     0     0 -6.057646952E+01  7.089489683E+01  9.571728648E+01  1.829819499E+02  1.250000000E+02  0.00000E+00  9.000E+00
      21     1     1     2   511   501  2.427363130E+01  4.903204123E+00 -1.099348950E+01  2.709441638E+01  9.684608465E-07  0.00000E+00  9.000E+00
#rwgt            1           1   4.4209061369327937E-002           6      243615           0
</event>
<event>
      5   9999  3.79277E-02  5.77536E+01 -1.00000E+00  1.35595E-01
      21    -1     0     0   502   512  0.000000000E+00  0.000000000E+00  5.145208062E+02  5.145208062E+02  0.000000000E+00  0.00000E+00  9.000E+00
      21    -1     0     0   501   502  0.000000000E+00  0.000000000E+00 -1.379566358E+03  1.379566358E+03  0.000000000E+00  0.00000E+00  9.000E+00
      25     1     1     2     0     0 -3.163645017E+02 -4.487868903E+01 -5.115324089E+02  6.159472380E+02  1.250000000E+02  0.00000E+00  9.000E+00
      25     1     1     2     0     0  3.714645811E+02  2.757386887E+01 -7.663946877E+02  8.612386839E+02  1.250000000E+02  0.00000E+00  9.000E+00
      21     1     1     2   501   512 -5.510007944E+01  1.730482017E+01  4.128815449E+02  4.169012421E+02  0.000000000E+00  0.00000E+00  9.000E+00
#rwgt            1           1   3.6755807332947678E-002           6      243750           0
</event>
<event>
      5   9999  3.79277E-02  1.44529E+01 -1.00000E+00  1.78917E-01
      21    -1     0     0   502   501  0.000000000E+00  0.000000000E+00  6.435258821E+02  6.435258821E+02  0.000000000E+00  0.00000E+00  9.000E+00
      -1    -1     0     0     0   502  0.000000000E+00  0.000000000E+00 -1.712801852E+02  1.712801852E+02  0.000000000E+00  0.00000E+00  9.000E+00
      25     1     1     2     0     0 -3.105971083E+01 -1.117490500E+02  5.235110264E+02  5.505827373E+02  1.250000000E+02  0.00000E+00  9.000E+00
      25     1     1     2     0     0  3.587115026E+01  1.253776071E+02  2.874852728E+01  1.829146293E+02  1.250000000E+02  0.00000E+00  9.000E+00
      -1     1     1     2     0   501 -4.811439429E+00 -1.362855716E+01 -8.001385687E+01  8.130870071E+01  2.132480600E-06  0.00000E+00  9.000E+00
#rwgt            1           1   2.2417128837244043E-002           6      243884           0
</event>
<event>
      5   9999  3.79277E-02  1.14328E+01 -1.00000E+00  1.89266E-01
      21    -1     0     0   511   501  0.000000000E+00  0.000000000E+00  1.825058655E+02  1.825058655E+02  0.000000000E+00  0.00000E+00  9.000E+00
      21    -1     0     0   501   502  0.000000000E+00  0.000000000E+00 -6.165040356E+02  6.165040356E+02  0.000000000E+00  0.00000E+00  9.000E+00
      25     1     1     2     0     0 -7.074177012E+01  2.743262605E+02 -3.414997903E+02  4.609841668E+02  1.250000000E+02  0.00000E+00  9.000E+00
      25     1     1     2     0     0  8.175732062E+01 -2.712657661E+02 -9.870283133E+01  3.250178829E+02  1.250000000E+02  0.00000E+00  9.000E+00
      21     1     1     2   511   502 -1.101555050E+01 -3.060494460E+00  6.204451478E+00  1.300785137E+01  1.192092896E-07  0.00000E+00  9.000E+00
#rwgt            1           1   4.0871780231584914E-002           6      244135           0
</event>
<event>
      5   9999  3.79277E-02  4.08708E+01 -1.00000E+00  1.44262E-01
      21    -1     0     0   512   501  0.000000000E+00  0.000000000E+00  7.181124675E+02  7.181124675E+02  0.000000000E+00  0.00000E+00  9.000E+00
      21    -1     0     0   501   502  0.000000000E+00  0.000000000E+00 -8.920864472E+01  8.920864472E+01  0.000000000E+00  0.00000E+00  9.000E+00
      25     1     1     2     0     0 -1.344326682E+00  1.448207829E+02  9.364489292E+01  2.130005454E+02  1.250000000E+02  0.00000E+00  9.000E+00
      25     1     1     2     0     0 -2.543980720E+01 -1.756919644E+02  4.394921792E+02  4.901971295E+02  1.250000000E+02  0.00000E+00  9.000E+00
      21     1     1     2   512   502  2.678413388E+01  3.087118153E+01  9.576675066E+01  1.041234374E+02  1.348699152E-06  0.00000E+00  9.000E+00
#rwgt            1           1  0.36980182260796185                6      244373           0
</event>
<event>
      5   9999  3.79277E-02  2.81950E+01 -1.00000E+00  1.54935E-01
      21    -1     0     0   502   501  0.000000000E+00  0.000000000E+00  2.117840666E+02  2.117840666E+02  0.000000000E+00  0.00000E+00  9.000E+00
       2    -1     0     0   501     0  0.000000000E+00  0.000000000E+00 -2.333793049E+03  2.333793049E+03  0.000000000E+00  0.00000E+00  9.000E+00
      25     1     1     2     0     0 -8.722072155E+01  1.009495659E+02 -1.277803889E+02  2.230495391E+02  1.250000000E+02  0.00000E+00  9.000E+00
      25     1     1     2     0     0  6.141916874E+01 -8.958120822E+01  1.222677685E+02  2.058434219E+02  1.250000000E+02  0.00000E+00  9.000E+00
       2     1     1     2   502     0  2.580155281E+01 -1.136835769E+01 -2.116496362E+03  2.116684155E+03  3.051757812E-05  0.00000E+00  9.000E+00
#rwgt            1           1   5.2916068500863958E-002           6      244522           0
</event>
<event>
      5   9999  3.79277E-02  1.12159E+02 -1.00000E+00  1.21627E-01
      21    -1     0     0   511   501  0.000000000E+00  0.000000000E+00  2.552387993E+02  2.552387993E+02  0.000000000E+00  0.00000E+00  9.000E+00
      21    -1     0     0   501   502  0.000000000E+00  0.000000000E+00 -4.469540630E+02  4.469540630E+02  0.000000000E+00  0.00000E+00  9.000E+00
      25     1     1     2     0     0 -2.158702388E+01 -1.173805715E+02 -2.578114356E+02  3.103803062E+02  1.250000000E+02  0.00000E+00  9.000E+00
      25     1     1     2     0     0  1.261835411E+01  2.291808824E+02  9.131818045E+01  2.768521443E+02  1.250000000E+02  0.00000E+00  9.000E+00
      21     1     1     2   511   502  8.968669764E+00 -1.118003109E+02 -2.522200854E+01  1.149604117E+02  1.752011592E-06  0.00000E+00  9.000E+00
#rwgt            1           1   2.6965679768475387E-002           6      244774           0
</event>
<event>
      5   9999  3.79277E-02  1.39722E+02 -1.00000E+00  1.17629E-01
      21    -1     0     0   502   501  0.000000000E+00  0.000000000E+00  3.780226725E+02  3.780226725E+02  0.000000000E+00  0.00000E+00  9.000E+00
      21    -1     0     0   501   512  0.000000000E+00  0.000000000E+00 -5.228471850E+02  5.228471850E+02  0.000000000E+00  0.00000E+00  9.000E+00
      25     1     1     2     0     0 -2.726815959E+02 -1.231577836E+02  7.316879940E+01  3.324180585E+02  1.250000000E+02  0.00000E+00  9.000E+00
      25     1     1     2     0     0  2.823427671E+02 -1.622939940E+01  3.830792522E-01  3.092021641E+02  1.250000000E+02  0.00000E+00  9.000E+00
      21     1     1     2   502   512 -9.661171202E+00  1.393871830E+02 -2.183763911E+02  2.592496349E+02  3.814697266E-06  0.00000E+00  9.000E+00
#rwgt            1           1   3.5534317361613527E-002           6      244945           0
</event>
<event>
      5   9999  3.79277E-02  4.43074E+01 -1.00000E+00  1.42138E-01
      21    -1     0     0   502   511  0.000000000E+00  0.000000000E+00  6.589356589E+01  6.589356589E+01  0.000000000E+00  0.00000E+00  9.000E+00
      21    -1     0     0   501   502  0.000000000E+00  0.000000000E+00 -8.020216604E+02  8.020216604E+02  0.000000000E+00  0.00000E+00  9.000E+00
      25     1     1     2     0     0 -4.499432058E+00 -5.491420755E+01 -5.949477756E+01  1.489981330E+02  1.250000000E+02  0.00000E+00  9.000E+00
      25     1     1     2     0     0 -3.555494058E+01  3.597237942E+01 -6.565783608E+02  6.702822613E+02  1.250000000E+02  0.00000E+00  9.000E+00
      21     1     1     2   501   511  4.005437264E+01  1.894182813E+01 -2.005495615E+01  4.863483203E+01  1.066240300E-06  0.00000E+00  9.000E+00
#rwgt            1           1   4.9550826381303571E-002           6      245038           0
</event>
<event>
      5   9999  3.79277E-02  4.77240E+01 -1.00000E+00  1.40240E-01
      21    -1     0     0   502   501  0.000000000E+00  0.000000000E+00  3.296969295E+02  3.296969295E+02  0.000000000E+00  0.00000E+00  9.000E+00
      21    -1     0     0   512   502  0.000000000E+00  0.000000000E+00 -3.430207744E+02  3.430207744E+02  0.000000000E+00  0.00000E+00  9.000E+00
      25     1     1     2     0     0 -2.140443220E+02 -6.857168856E+01  1.307415743E+02  2.885054722E+02  1.250000000E+02  0.00000E+00  9.000E+00
      25     1     1     2     0     0  1.774871633E+02  3.789349179E+01  1.231365710E+01  2.207130173E+02  1.250000000E+02  0.00000E+00  9.000E+00
      21     1     1     2   512   501  3.655715869E+01  3.067819677E+01 -1.563790764E+02  1.634992145E+02  1.907348633E-06  0.00000E+00  9.000E+00
#rwgt            1           1   4.2194821409234480E-002           6      245184           0
</event>
<event>
      5   9999  3.79277E-02  2.18260E+01 -1.00000E+00  1.63298E-01
      21    -1     0     0   502   511  0.000000000E+00  0.000000000E+00  6.992699921E+02  6.992699921E+02  0.000000000E+00  0.00000E+00  9.000E+00
      21    -1     0     0   501   502  0.000000000E+00  0.000000000E+00 -1.118709058E+02  1.118709058E+02  0.000000000E+00  0.00000E+00  9.000E+00
      25     1     1     2     0     0 -7.362186577E+01 -1.013773983E+02 -1.019039868E+01  1.772749284E+02  1.250000000E+02  0.00000E+00  9.000E+00
      25     1     1     2     0     0  5.184377635E+01  9.993233012E+01  3.848581817E+02  4.200179375E+02  1.250000000E+02  0.00000E+00  9.000E+00
      21     1     1     2   501   511  2.177808942E+01  1.445068196E+00  2.127313033E+02  2.138480320E+02  3.814697266E-06  0.00000E+00  9.000E+00
#rwgt            1           1   4.1649358998922727E-002           6      245330           0
</event>
<event>
      5   9999  3.79277E-02  2.29637E+01 -1.00000E+00  1.61565E-01
      21    -1     0     0   502   501  0.000000000E+00  0.000000000E+00  3.770331832E+02  3.770331832E+02  0.000000000E+00  0.00000E+00  9.000E+00
      21    -1     0     0   512   502  0.000000000E+00  0.000000000E+00 -4.179357793E+02  4.179357793E+02  0.000000000E+00  0.00000E+00  9.000E+00
      25     1     1     2     0     0 -1.461920225E+02 -1.825545781E+02 -2.606235713E+02  3.718170616E+02  1.250000000E+02  0.00000E+00  9.000E+00
      25     1     1     2     0     0  1.233862930E+02  1.798654798E+02  2.693650575E+02  3.684539352E+02  1.250000000E+02  0.00000E+00  9.000E+00
      21     1     1     2   512   501  2.280572951E+01  2.689098276E+00 -4.964408229E+01  5.469796572E+01  6.743495762E-07  0.00000E+00  9.000E+00
#rwgt            1           1   3.2776359319665403E-002           6      245564           0
</event>
<event>
      5   9999  3.79277E-02  2.06571E+01 -1.00000E+00  1.65219E-01
      21    -1     0     0   502   501  0.000000000E+00  0.000000000E+00  9.338126069E+01  9.338126069E+01  0.000000000E+00  0.00000E+00  9.000E+00
      21    -1     0     0   501   511  0.000000000E+00  0.000000000E+00 -5.273753770E+02  5.273753770E+02  0.000000000E+00  0.00000E+00  9.000E+00
      25     1     1     2     0     0  1.316299350E+02  7.432003363E+01 -2.685861034E+02  3.325859319E+02  1.250000000E+02  0.00000E+00  9.000E+00
      25     1     1     2     0     0 -1.483959620E+02 -8.638718762E+01 -1.358853389E+02  2.521387179E+02  1.250000000E+02  0.00000E+00  9.000E+00
      21     1     1     2   502   511  1.676602705E+01  1.206715399E+01 -2.952267407E+01  3.603198791E+01  3.371747881E-07  0.00000E+00  9.000E+00
#rwgt            1           1   2.1251078571366700E-002           6      245740           0
</event>
<event>
      5   9999  3.79277E-02  6.07710E+01 -1.00000E+00  1.34408E-01
      21    -1     0     0   502   501  0.000000000E+00  0.000000000E+00  1.712255499E+02  1.712255499E+02  0.000000000E+00  0.00000E+00  9.000E+00
      21    -1     0     0   512   502  0.000000000E+00  0.000000000E+00 -6.596515356E+02  6.596515356E+02  0.000000000E+00  0.00000E+00  9.000E+00
      25     1     1     2     0     0 -1.923385301E+01 -1.362716699E+02  5.449502565E+01  1.937385273E+02  1.250000000E+02  0.00000E+00  9.000E+00
      25     1     1     2     0     0 -1.218726074E+01  8.425414212E+01 -8.162597245E+01  1.718577585E+02  1.250000000E+02  0.00000E+00  9.000E+00
      21     1     1     2   512   501  3.142111374E+01  5.201752782E+01 -4.612950390E+02  4.652807997E+02  0.000000000E+00  0.00000E+00  9.000E+00
#rwgt            1           1  0.13847630546128220                6      245905           0
</event>
<event>
      5   9999  3.79277E-02  7.60029E+01 -1.00000E+00  1.29436E-01
      21    -1     0     0   502   511  0.000000000E+00  0.000000000E+00  1.122218730E+02  1.122218730E+02  0.000000000E+00  0.00000E+00  9.000E+00
      21    -1     0     0   501   502  0.000000000E+00  0.000000000E+00 -4.383033439E+02  4.383033439E+02  0.000000000E+00  0.00000E+00  9.000E+00
      25     1     1     2     0     0 -7.979067521E+00  7.360753983E+01  2.713758310E+00  1.453069163E+02  1.250000000E+02  0.00000E+00  9.000E+00
      25     1     1     2     0     0  6.551628383E+01 -2.394965136E+01 -2.812117894E+02  3.155487914E+02  1.250000000E+02  0.00000E+00  9.000E+00
      21     1     1     2   501   511 -5.753721631E+01 -4.965788846E+01 -4.758343984E+01  8.966950928E+01  1.348699152E-06  0.00000E+00  9.000E+00
#rwgt            1           1   4.2836282064200530E-002           6      246030           0
</event>
<event>
      5   9999  3.79277E-02  1.01586E+02 -1.00000E+00  1.23521E-01
      21    -1     0     0   502   501  0.000000000E+00  0.000000000E+00  6.020251647E+02  6.020251647E+02  0.000000000E+00  0.00000E+00  9.000E+00
      21    -1     0     0   501   512  0.000000000E+00  0.000000000E+00 -3.882313482E+02  3.882313482E+02  0.000000000E+00  0.00000E+00  9.000E+00
      25     1     1     2     0     0  7.999591989E+01  3.339547104E+01  5.024923555E+02  5.250125447E+02  1.250000000E+02  0.00000E+00  9.000E+00
      25     1     1     2     0     0  2.010037609E+01 -5.073070172E+01  2.218486701E+01  1.381839265E+02  1.250000000E+02  0.00000E+00  9.000E+00
      21     1     1     2   502   512 -1.000962960E+02  1.733523068E+01 -3.108834060E+02  3.270600416E+02  3.814697266E-06  0.00000E+00  9.000E+00
#rwgt            1           1   5.0728699328349149E-002           6      246185           0
</event>
<event>
      5   9999  3.79277E-02  4.84926E+01 -1.00000E+00  1.39838E-01
      21    -1     0     0   511   501  0.000000000E+00  0.000000000E+00  6.044729686E+01  6.044729686E+01  0.000000000E+00  0.00000E+00  9.000E+00
      21    -1     0     0   501   502  0.000000000E+00  0.000000000E+00 -8.390613950E+02  8.390613950E+02  0.000000000E+00  0.00000E+00  9.000E+00
      25     1     1     2     0     0 -6.443470334E+01 -1.018788098E+02 -2.965835283E+02  3.436828656E+02  1.250000000E+02  0.00000E+00  9.000E+00
      25     1     1     2     0     0  1.119847492E+02  1.113933096E+02 -4.607749287E+02  5.028792981E+02  1.250000000E+02  0.00000E+00  9.000E+00
      21     1     1     2   511   502 -4.755004584E+01 -9.514499864E+00 -2.125564114E+01  5.294652819E+01  1.305872339E-06  0.00000E+00  9.000E+00
#rwgt            1           1   3.6013336586456210E-002           6      246276           0
</event>
<event>
      5   9999  3.79277E-02  6.32511E+01 -1.00000E+00  1.33490E-01
      21    -1     0     0   502   501  0.000000000E+00  0.000000000E+00  1.064571964E+02  1.064571964E+02  0.000000000E+00  0.00000E+00  9.000E+00
       2    -1     0     0   501     0  0.000000000E+00  0.000000000E+00 -2.066383648E+03  2.066383648E+03  0.000000000E+00  0.00000E+00  9.000E+00
      25     1     1     2     0     0  7.248423333E+01 -1.598050749E+02 -2.140303144E+02  3.036866832E+02  1.250000000E+02  0.00000E+00  9.000E+00
      25     1     1     2     0     0 -9.970007858E+01  2.169015232E+02 -2.367843670E+02  3.587174555E+02  1.250000000E+02  0.00000E+00  9.000E+00
       2     1     1     2   502     0  2.721584525E+01 -5.709644828E+01 -1.509111771E+03  1.510436706E+03  2.157918644E-05  0.00000E+00  9.000E+00
#rwgt            1           1   4.6421352023608593E-002           6      246369           0
</event>
<event>
      5   9999  3.79277E-02  5.45235E+01 -1.00000E+00  1.36963E-01
      21    -1     0     0   511   501  0.000000000E+00  0.000000000E+00  3.574743127E+01  3.574743127E+01  0.000000000E+00  0.00000E+00  9.000E+00
      21    -1     0     0   501   502  0.000000000E+00  0.000000000E+00 -2.291061648E+03  2.291061648E+03  0.000000000E+00  0.00000E+00  9.000E+00
      25     1     1     2     0     0  1.914047022E+02 -1.115017429E+02 -8.275459216E+02  8.657514949E+02  1.250000000E+02  0.00000E+00  9.000E+00
      25     1     1     2     0     0 -1.533750851E+02  7.243048903E+01 -1.348416923E+03  1.364779575E+03  1.250000000E+02  0.00000E+00  9.000E+00
      21     1     1     2   511   502 -3.802961713E+01  3.907125388E+01 -7.935137241E+01  9.627800871E+01  9.536743164E-07  0.00000E+00  9.000E+00
#rwgt            1           1   8.4038411745389716E-002           6      246420           0
</event>
<event>
      5   9999  3.79277E-02  9.79042E+00 -1.00000E+00  1.96827E-01
      21    -1     0     0   502   501  0.000000000E+00  0.000000000E+00  6.212388221E+01  6.212388221E+01  0.000000000E+00  0.00000E+00  9.000E+00
      21    -1     0     0   501   512  0.000000000E+00  0.000000000E+00 -6.964307928E+02  6.964307928E+02  0.000000000E+00  0.00000E+00  9.000E+00
      25     1     1     2     0     0 -8.523510980E+01 -2.936382454E+01 -3.916215968E+02  4.208559530E+02  1.250000000E+02  0.00000E+00  9.000E+00
      25     1     1     2     0     0  7.936190155E+01  2.153070594E+01 -7.078809213E+01  1.655229190E+02  1.250000000E+02  0.00000E+00  9.000E+00
      21     1     1     2   502   512  5.873208246E+00  7.833118595E+00 -1.718972217E+02  1.721758030E+02  1.907348633E-06  0.00000E+00  9.000E+00
#rwgt            1           1   1.3449581549739673E-002           6      246555           0
</event>
<event>
      5   9999  3.79277E-02  1.62837E+01 -1.00000E+00  1.74089E-01
      21    -1     0     0   502   501  0.000000000E+00  0.000000000E+00  1.983093426E+02  1.983093426E+02  0.000000000E+00  0.00000E+00  9.000E+00
      21    -1     0     0   511   502  0.000000000E+00  0.000000000E+00 -2.394550253E+02  2.394550253E+02  0.000000000E+00  0.00000E+00  9.000E+00
      25     1     1     2     0     0 -3.151536792E+01 -1.453401521E+02  3.362645161E+01  1.971616506E+02  1.250000000E+02  0.00000E+00  9.000E+00
      25     1     1     2     0     0  3.706790831E+01  1.606479336E+02 -5.329774582E+01  2.136526108E+02  1.250000000E+02  0.00000E+00  9.000E+00
      21     1     1     2   511   501 -5.552540390E+00 -1.530778152E+01 -2.147438848E+01  2.695010650E+01  0.000000000E+00  0.00000E+00  9.000E+00
#rwgt            1           1   4.1755508309665568E-002           6      246891           0
</event>
<event>
      5   9999  3.79277E-02  3.87166E+01 -1.00000E+00  1.45724E-01
      21    -1     0     0   512   501  0.000000000E+00  0.000000000E+00  6.294358539E+02  6.294358539E+02  0.000000000E+00  0.00000E+00  9.000E+00
      21    -1     0     0   501   502  0.000000000E+00  0.000000000E+00 -1.294063991E+02  1.294063991E+02  0.000000000E+00  0.00000E+00  9.000E+00
      25     1     1     2     0     0 -3.575099472E-01 -1.243579772E+02  4.489570937E+02  4.823406537E+02  1.250000000E+02  0.00000E+00  9.000E+00
      25     1     1     2     0     0 -1.388762774E+01  1.603586483E+02 -1.016776576E+01  2.040493709E+02  1.250000000E+02  0.00000E+00  9.000E+00
      21     1     1     2   512   502  1.424513768E+01 -3.600067112E+01  6.124012690E+01  7.245222848E+01  1.507891493E-06  0.00000E+00  9.000E+00
#rwgt            1           1   4.5156479812285995E-002           6      247188           0
</event>
<event>
      5   9999  3.79277E-02  1.36959E+02 -1.00000E+00  1.17981E-01
       2    -1     0     0   502     0  0.000000000E+00  0.000000000E+00  3.147000176E+03  3.147000176E+03  0.000000000E+00  0.00000E+00  9.000E+00
      21    -1     0     0   501   502  0.000000000E+00  0.000000000E+00 -2.556853619E+02  2.556853619E+02  0.000000000E+00  0.00000E+00  9.000E+00
      25     1     1     2     0     0 -2.128311079E+02 -5.746208664E+01 -2.434259940E+01  2.545909151E+02  1.250000000E+02  0.00000E+00  9.000E+00
      25     1     1     2     0     0  1.660109723E+02  1.861695947E+02  5.526561439E+01  2.844258235E+02  1.250000000E+02  0.00000E+00  9.000E+00
       2     1     1     2   501     0  4.682013557E+01 -1.287075080E+02  2.860391799E+03  2.863668799E+03  0.000000000E+00  0.00000E+00  9.000E+00
#rwgt            1           1   3.0266614861807404E-002           6      247305           0
</event>
<event>
      5   9999  3.79277E-02  1.53297E+01 -1.00000E+00  1.76499E-01
      21    -1     0     0   511   501  0.000000000E+00  0.000000000E+00  1.677996527E+01  1.677996527E+01  0.000000000E+00  0.00000E+00  9.000E+00
      21    -1     0     0   501   502  0.000000000E+00  0.000000000E+00 -1.574542110E+03  1.574542110E+03  0.000000000E+00  0.00000E+00  9.000E+00
      25     1     1     2     0     0  4.877497544E+01 -5.748293474E+01 -5.179461209E+02  5.381230995E+02  1.250000000E+02  0.00000E+00  9.000E+00
      25     1     1     2     0     0 -6.238749172E+01  5.043324877E+01 -9.899352127E+02  1.001015703E+03  1.250000000E+02  0.00000E+00  9.000E+00
      21     1     1     2   511   502  1.361251628E+01  7.049685970E+00 -4.988081078E+01  5.218327276E+01  0.000000000E+00  0.00000E+00  9.000E+00
#rwgt            1           1   2.9842194808155524E-002           6      247452           0
</event>
<event>
      5   9999  3.79277E-02  1.33561E+01 -1.00000E+00  1.82268E-01
      21    -1     0     0   502   512  0.000000000E+00  0.000000000E+00  7.002185915E+01  7.002185915E+01  0.000000000E+00  0.00000E+00  9.000E+00
      21    -1     0     0   501   502  0.000000000E+00  0.000000000E+00 -1.161843146E+03  1.161843146E+03  0.000000000E+00  0.00000E+00  9.000E+00
      25     1     1     2     0     0  5.349725344E+00  2.284244568E+02 -5.736968181E+02  6.300471341E+02  1.250000000E+02  0.00000E+00  9.000E+00
      25     1     1     2     0     0 -1.201104921E+01 -2.168480640E+02 -5.285053627E+02  5.849019290E+02  1.250000000E+02  0.00000E+00  9.000E+00
      21     1     1     2   501   512  6.661323866E+00 -1.157639282E+01  1.038089452E+01  1.691594151E+01  4.616955931E-07  0.00000E+00  9.000E+00
#rwgt            1           1   3.7375380149258598E-002           6      247615           0
</event>
<event>
      5   9999  3.79277E-02  4.13441E+01 -1.00000E+00  1.43956E-01
      21    -1     0     0   502   511  0.000000000E+00  0.000000000E+00  2.947029724E+02  2.947029724E+02  0.000000000E+00  0.00000E+00  9.000E+00
      21    -1     0     0   501   502  0.000000000E+00  0.000000000E+00 -2.398320630E+02  2.398320630E+02  0.000000000E+00  0.00000E+00  9.000E+00
      25     1     1     2     0     0 -1.115041967E+02 -8.776256992E+01 -7.184451658E+01  2.022920886E+02  1.250000000E+02  0.00000E+00  9.000E+00
      25     1     1     2     0     0  7.377591214E+01  1.046713590E+02 -1.976406524E+01  1.800405423E+02  1.250000000E+02  0.00000E+00  9.000E+00
      21     1     1     2   501   511  3.772828456E+01 -1.690878903E+01  1.464794912E+02  1.522024045E+02  0.000000000E+00  0.00000E+00  9.000E+00
#rwgt            1           1   2.9127622718228344E-002           6      247934           0
</event>
<event>
      5   9999  3.79277E-02  1.79662E+02 -1.00000E+00  1.13370E-01
      -1    -1     0     0     0   501  0.000000000E+00  0.000000000E+00  1.748976639E+02  1.748976639E+02  0.000000000E+00  0.00000E+00  9.000E+00
      21    -1     0     0   501   502  0.000000000E+00  0.000000000E+00 -1.645892781E+03  1.645892781E+03  0.000000000E+00  0.00000E+00  9.000E+00
      25     1     1     2     0     0  1.064522290E+02 -1.927273438E+02 -1.174082841E+03  1.201070948E+03  1.250000000E+02  0.00000E+00  9.000E+00
      25     1     1     2     0     0  6.937085151E+01  2.296679648E+02 -3.404616206E+02  4.348549231E+02  1.250000000E+02  0.00000E+00  9.000E+00
      -1     1     1     2     0   502 -1.758230805E+02 -3.694062099E+01  4.354934425E+01  1.848645734E+02  2.977847099E-06  0.00000E+00  9.000E+00
#rwgt            1           1   4.5979468857244396E-002           6      248023           0
</event>
<event>
      5   9999  3.79277E-02  3.31252E+02 -1.00000E+00  1.04212E-01
       2    -1     0     0   502     0  0.000000000E+00  0.000000000E+00  2.310688111E+03  2.310688111E+03  0.000000000E+00  0.00000E+00  9.000E+00
      21    -1     0     0   501   502  0.000000000E+00  0.000000000E+00 -1.487335885E+02  1.487335885E+02  0.000000000E+00  0.00000E+00  9.000E+00
      25     1     1     2     0     0 -2.160395957E+02  2.295726469E+02  1.221148268E+02  3.604354839E+02  1.250000000E+02  0.00000E+00  9.000E+00
      25     1     1     2     0     0  5.277310076E-01  2.198788945E+01  2.690976672E+02  2.975269740E+02  1.250000000E+02  0.00000E+00  9.000E+00
       2     1     1     2   501     0  2.155118647E+02 -2.515605363E+02  1.770742029E+03  1.801459242E+03  3.051757812E-05  0.00000E+00  9.000E+00
#rwgt            2          18   4.6369014517131871E-004           6      248093           0
</event>
<event>
      5   9999  3.79277E-02  1.52078E+01 -1.00000E+00  1.76823E-01
      21    -1     0     0   502   511  0.000000000E+00  0.000000000E+00  1.090449648E+03  1.090449648E+03  0.000000000E+00  0.00000E+00  9.000E+00
      21    -1     0     0   501   502  0.000000000E+00  0.000000000E+00 -7.973774144E+01  7.973774144E+01  0.000000000E+00  0.00000E+00  9.000E+00
      25     1     1     2     0     0 -1.013723645E+02 -1.980809849E+02  3.428038943E+02  4.273779858E+02  1.250000000E+02  0.00000E+00  9.000E+00
      25     1     1     2     0     0  9.172407889E+01  2.098362952E+02  4.200220370E+02  4.944573683E+02  1.250000000E+02  0.00000E+00  9.000E+00
      21     1     1     2   501   511  9.648285603E+00 -1.175531034E+01  2.478859752E+02  2.483520353E+02  2.697398305E-06  0.00000E+00  9.000E+00
#rwgt            1           1   3.3213598897298774E-002           6      248202           0
</event>
<event>
      5   9999 -3.79277E-02  7.52235E+01 -1.00000E+00  1.29657E-01
      21    -1     0     0   502   501  0.000000000E+00  0.000000000E+00  3.400995915E+02  3.400995915E+02  0.000000000E+00  0.00000E+00  9.000E+00
      21    -1     0     0   512   502  0.000000000E+00  0.000000000E+00 -3.144458131E+02  3.144458131E+02  0.000000000E+00  0.00000E+00  9.000E+00
      25     1     1     2     0     0  1.258134830E+00  7.927885189E+01 -2.011013302E+02  2.497067565E+02  1.250000000E+02  0.00000E+00  9.000E+00
      25     1     1     2     0     0  6.652220652E+01 -1.119041141E+02  2.648672957E+02  3.205111840E+02  1.250000000E+02  0.00000E+00  9.000E+00
      21     1     1     2   512   501 -6.778034135E+01  3.262526218E+01 -3.811218714E+01  8.432746418E+01  4.768371582E-07  0.00000E+00  9.000E+00
#rwgt            1           1  -3.2574154222675435E-002           6      248454           0
</event>
<event>
      5   9999  3.79277E-02  2.73146E+01 -1.00000E+00  1.55923E-01
      21    -1     0     0   502   501  0.000000000E+00  0.000000000E+00  6.839051747E+01  6.839051747E+01  0.000000000E+00  0.00000E+00  9.000E+00
      21    -1     0     0   501   511  0.000000000E+00  0.000000000E+00 -2.091922844E+03  2.091922844E+03  0.000000000E+00  0.00000E+00  9.000E+00
      25     1     1     2     0     0 -9.931219374E+01 -1.747109428E+02 -1.088045751E+03  1.113487935E+03  1.250000000E+02  0.00000E+00  9.000E+00
      25     1     1     2     0     0  1.064821766E+02  1.483541802E+02 -1.654586413E+02  2.763131895E+02  1.250000000E+02  0.00000E+00  9.000E+00
      21     1     1     2   502   511 -7.169982889E+00  2.635676255E+01 -7.700279344E+02  7.705122370E+02  1.078959322E-05  0.00000E+00  9.000E+00
#rwgt            1           1   4.6962963952315889E-002           6      248682           0
</event>
<event>
      5   9999  3.79277E-02  3.24053E+01 -1.00000E+00  1.50749E-01
      21    -1     0     0   502   512  0.000000000E+00  0.000000000E+00  5.851252817E+01  5.851252817E+01  0.000000000E+00  0.00000E+00  9.000E+00
      21    -1     0     0   501   502  0.000000000E+00  0.000000000E+00 -1.100880353E+03  1.100880353E+03  0.000000000E+00  0.00000E+00  9.000E+00
      25     1     1     2     0     0 -1.399566253E+02  9.023036084E+01 -7.822325304E+02  8.094702629E+02  1.250000000E+02  0.00000E+00  9.000E+00
      25     1     1     2     0     0  1.136027832E+02 -1.090871488E+02 -2.151731297E+02  2.944997014E+02  1.250000000E+02  0.00000E+00  9.000E+00
      21     1     1     2   501   512  2.635384214E+01  1.885678796E+01 -4.496216449E+01  5.542291659E+01  4.768371582E-07  0.00000E+00  9.000E+00
#rwgt            1           1   4.8899141086087415E-002           6      248851           0
</event>
<event>
      5   9999  3.79277E-02  8.53748E+01 -1.00000E+00  1.26997E-01
      21    -1     0     0   502   511  0.000000000E+00  0.000000000E+00  1.302641807E+02  1.302641807E+02  0.000000000E+00  0.00000E+00  9.000E+00
      21    -1     0     0   501   502  0.000000000E+00  0.000000000E+00 -5.869725652E+02  5.869725652E+02  0.000000000E+00  0.00000E+00  9.000E+00
      25     1     1     2     0     0  2.218056049E+02  6.751011326E+01 -2.897880457E+02  3.916088012E+02  1.250000000E+02  0.00000E+00  9.000E+00
      25     1     1     2     0     0 -1.377356335E+02 -5.264055224E+01 -1.276842317E+02  2.316687192E+02  1.250000000E+02  0.00000E+00  9.000E+00
      21     1     1     2   501   511 -8.406997144E+01 -1.486956103E+01 -3.923610711E+01  9.395922544E+01  6.743495762E-07  0.00000E+00  9.000E+00
#rwgt            1           1   3.4730467638733060E-002           6      249043           0
</event>
<event>
      5   9999  3.79277E-02  8.54359E+00 -1.00000E+00  2.04006E-01
      21    -1     0     0   502   501  0.000000000E+00  0.000000000E+00  2.678577861E+02  2.678577861E+02  0.000000000E+00  0.00000E+00  9.000E+00
      21    -1     0     0   501   512  0.000000000E+00  0.000000000E+00 -2.436332416E+02  2.436332416E+02  0.000000000E+00  0.00000E+00  9.000E+00
      25     1     1     2     0     0 -1.252203148E+02  4.336043348E+01  1.783708457E+02  2.549537468E+02  1.250000000E+02  0.00000E+00  9.000E+00
      25     1     1     2     0     0  1.326714809E+02 -3.918034536E+01 -1.209053349E+02  2.222159340E+02  1.250000000E+02  0.00000E+00  9.000E+00
      21     1     1     2   502   512 -7.451166096E+00 -4.180088115E+00 -3.324096627E+01  3.432134688E+01  0.000000000E+00  0.00000E+00  9.000E+00
#rwgt            1           1   4.9384497440013872E-002           6      249153           0
</event>
<event>
      5   9999  3.79277E-02  1.08152E+01 -1.00000E+00  1.91903E-01
      21    -1     0     0   502   501  0.000000000E+00  0.000000000E+00  3.564989432E+01  3.564989432E+01  0.000000000E+00  0.00000E+00  9.000E+00
      21    -1     0     0   511   502  0.000000000E+00  0.000000000E+00 -2.382311787E+03  2.382311787E+03  0.000000000E+00  0.00000E+00  9.000E+00
      25     1     1     2     0     0  5.568797008E+01 -2.492874848E+02 -9.235665713E+02  9.663568760E+02  1.250000000E+02  0.00000E+00  9.000E+00
      25     1     1     2     0     0 -5.208525297E+01  2.390899628E+02 -1.346566546E+03  1.374315592E+03  1.250000000E+02  0.00000E+00  9.000E+00
      21     1     1     2   511   501 -3.602717109E+00  1.019752199E+01 -7.652877532E+01  7.728921320E+01  0.000000000E+00  0.00000E+00  9.000E+00
#rwgt            1           1  0.14956285445523068                6      249427           0
</event>
<event>
      5   9999  3.79277E-02  8.54814E+01 -1.00000E+00  1.26972E-01
      21    -1     0     0   502   501  0.000000000E+00  0.000000000E+00  4.193238554E+02  4.193238554E+02  0.000000000E+00  0.00000E+00  9.000E+00
      21    -1     0     0   512   502  0.000000000E+00  0.000000000E+00 -4.336994940E+02  4.336994940E+02  0.000000000E+00  0.00000E+00  9.000E+00
      25     1     1     2     0     0 -1.456950205E+02  1.517309222E+02  2.636432291E+02  3.596971838E+02  1.250000000E+02  0.00000E+00  9.000E+00
      25     1     1     2     0     0  2.003943410E+02 -2.174200154E+02 -2.049033834E+02  3.808408481E+02  1.250000000E+02  0.00000E+00  9.000E+00
      21     1     1     2   512   501 -5.469932050E+01  6.568909323E+01 -7.311548427E+01  1.124853176E+02  2.132480600E-06  0.00000E+00  9.000E+00
#rwgt            2          11   2.2733960578487644E-003           6      249728           0
</event>
<event>
      5   9999  3.79277E-02  4.08096E+01 -1.00000E+00  1.44303E-01
      21    -1     0     0   502   501  0.000000000E+00  0.000000000E+00  1.909037491E+02  1.909037491E+02  0.000000000E+00  0.00000E+00  9.000E+00
      21    -1     0     0   501   511  0.000000000E+00  0.000000000E+00 -1.255274071E+03  1.255274071E+03  0.000000000E+00  0.00000E+00  9.000E+00
      25     1     1     2     0     0 -4.490346098E+01  1.169255140E+02  7.240496254E+01  1.911946004E+02  1.250000000E+02  0.00000E+00  9.000E+00
      25     1     1     2     0     0  5.498318152E+01 -1.564706980E+02 -1.250239798E+02  2.424092100E+02  1.250000000E+02  0.00000E+00  9.000E+00
      21     1     1     2   502   511 -1.007972054E+01  3.954518396E+01 -1.011751304E+03  1.012574009E+03  1.525878906E-05  0.00000E+00  9.000E+00
#rwgt            1           1   3.3120491648794527E-002           6      249838           0
</event>
<event>
      5   9999  3.79277E-02  1.37548E+02 -1.00000E+00  1.17905E-01
      21    -1     0     0   502   501  0.000000000E+00  0.000000000E+00  3.158880640E+02  3.158880640E+02  0.000000000E+00  0.00000E+00  9.000E+00
      21    -1     0     0   501   512  0.000000000E+00  0.000000000E+00 -8.649168978E+02  8.649168978E+02  0.000000000E+00  0.00000E+00  9.000E+00
      25     1     1     2     0     0 -9.371593745E+01  3.288882198E+02 -3.647070285E+02  5.153507104E+02  1.250000000E+02  0.00000E+00  9.000E+00
      25     1     1     2     0     0  2.300849046E+02 -3.468610544E+02  1.079965151E+00  4.346007601E+02  1.250000000E+02  0.00000E+00  9.000E+00
      21     1     1     2   502   512 -1.363689672E+02  1.797283457E+01 -1.854017704E+02  2.308534913E+02  2.697398305E-06  0.00000E+00  9.000E+00
#rwgt            1           1   3.2838484073312420E-002           6      249969           0
</event>
<event>
      5   9999  3.79277E-02  6.74194E+01 -1.00000E+00  1.32052E-01
      21    -1     0     0   502   501  0.000000000E+00  0.000000000E+00  7.618030658E+02  7.618030658E+02  0.000000000E+00  0.00000E+00  9.000E+00
      21    -1     0     0   501   511  0.000000000E+00  0.000000000E+00 -6.458484234E+01  6.458484234E+01  0.000000000E+00  0.00000E+00  9.000E+00
      25     1     1     2     0     0 -7.164372843E+01 -5.028544715E+01  1.636359589E+02  2.237480214E+02  1.250000000E+02  0.00000E+00  9.000E+00
      25     1     1     2     0     0  1.185522965E+02  9.871018533E+01  4.689178434E+02  5.092222418E+02  1.250000000E+02  0.00000E+00  9.000E+00
      21     1     1     2   502   511 -4.690856808E+01 -4.842473818E+01  6.466442117E+01  9.341764497E+01  0.000000000E+00  0.00000E+00  9.000E+00
#rwgt            1           1   3.9210559907258864E-002           6      250124           0
</event>
<event>
      5   9999  3.79277E-02  1.94896E+02 -1.00000E+00  1.12058E-01
      21    -1     0     0   512   501  0.000000000E+00  0.000000000E+00  3.011249579E+02  3.011249579E+02  0.000000000E+00  0.00000E+00  9.000E+00
      21    -1     0     0   501   502  0.000000000E+00  0.000000000E+00 -1.148481033E+03  1.148481033E+03  0.000000000E+00  0.00000E+00  9.000E+00
      25     1     1     2     0     0  1.857280524E+02  3.861358920E+02 -7.623094621E+02  8.833666014E+02  1.250000000E+02  0.00000E+00  9.000E+00
      25     1     1     2     0     0 -2.479784854E+02 -2.014485273E+02 -1.288653333E+02  3.664779837E+02  1.250000000E+02  0.00000E+00  9.000E+00
      21     1     1     2   512   502  6.225043295E+01 -1.846873647E+02  4.381872020E+01  1.997614060E+02  3.631483605E-06  0.00000E+00  9.000E+00
#rwgt            1           1   3.1541501883531040E-002           6      250215           0
</event>
<event>
      5   9999  3.79277E-02  1.00303E+02 -1.00000E+00  1.23769E-01
      21    -1     0     0   511   501  0.000000000E+00  0.000000000E+00  4.891926634E+02  4.891926634E+02  0.000000000E+00  0.00000E+00  9.000E+00
      21    -1     0     0   501   502  0.000000000E+00  0.000000000E+00 -1.192925375E+02  1.192925375E+02  0.000000000E+00  0.00000E+00  9.000E+00
      25     1     1     2     0     0 -3.166569941E+01 -6.325864809E+01  2.766934101E+02  3.117508882E+02  1.250000000E+02  0.00000E+00  9.000E+00
      25     1     1     2     0     0 -6.671101047E+01  4.369594059E+01 -1.519242854E+01  1.490486633E+02  1.250000000E+02  0.00000E+00  9.000E+00
      21     1     1     2   511   502  9.837670988E+01  1.956270750E+01  1.083991442E+02  1.476856494E+02  2.336015456E-06  0.00000E+00  9.000E+00
#rwgt            1           1   4.6318160407511501E-002           6      250297           0
</event>
<event>
      5   9999  3.79277E-02  2.12215E+01 -1.00000E+00  1.64272E-01
      21    -1     0     0   512   501  0.000000000E+00  0.000000000E+00  7.107068343E+02  7.107068343E+02  0.000000000E+00  0.00000E+00  9.000E+00
      21    -1     0     0   501   502  0.000000000E+00  0.000000000E+00 -7.052145527E+01  7.052145527E+01  0.000000000E+00  0.00000E+00  9.000E+00
      25     1     1     2     0     0 -1.550022790E+02  4.802161685E+01  2.078471143E+02  2.918170747E+02  1.250000000E+02  0.00000E+00  9.000E+00
      25     1     1     2     0     0  1.355716674E+02 -3.948911040E+01  2.928484644E+02  3.483163648E+02  1.250000000E+02  0.00000E+00  9.000E+00
      21     1     1     2   512   502  1.943061154E+01 -8.532506443E+00  1.394898003E+02  1.410948500E+02  1.907348633E-06  0.00000E+00  9.000E+00
#rwgt            1           1   3.0016399026990589E-002           6      250388           0
</event>
<event>
      5   9999  3.79277E-02  1.00578E+02 -1.00000E+00  1.23715E-01
      21    -1     0     0   511   501  0.000000000E+00  0.000000000E+00  2.028004255E+02  2.028004255E+02  0.000000000E+00  0.00000E+00  9.000E+00
      21    -1     0     0   501   502  0.000000000E+00  0.000000000E+00 -3.678264100E+02  3.678264100E+02  0.000000000E+00  0.00000E+00  9.000E+00
      25     1     1     2     0     0  1.070940226E+02  2.054197068E+01 -2.728456099E+02  3.193130581E+02  1.250000000E+02  0.00000E+00  9.000E+00
      25     1     1     2     0     0 -1.093004565E+01  8.926497240E+00  5.052459385E+01  1.355613619E+02  1.250000000E+02  0.00000E+00  9.000E+00
      21     1     1     2   511   502 -9.616397697E+01 -2.946846792E+01  5.729503155E+01  1.157524156E+02  2.861022949E-06  0.00000E+00  9.000E+00
#rwgt            1           1   3.4426301692654440E-002           6      250612           0
</event>
<event>
      5   9999  3.79277E-02  5.46574E+01 -1.00000E+00  1.36904E-01
      21    -1     0     0   502   501  0.000000000E+00  0.000000000E+00  2.085375079E+02  2.085375079E+02  0.000000000E+00  0.00000E+00  9.000E+00
      21    -1     0     0   501   512  0.000000000E+00  0.000000000E+00 -3.563984403E+02  3.563984403E+02  0.000000000E+00  0.00000E+00  9.000E+00
      25     1     1     2     0     0  1.362260233E+02 -4.432171879E+01  9.887263396E+01  2.142959214E+02  1.250000000E+02  0.00000E+00  9.000E+00
      25     1     1     2     0     0 -9.637179183E+01  8.172588114E+01 -1.252819572E+02  2.174562271E+02  1.250000000E+02  0.00000E+00  9.000E+00
      21     1     1     2   502   512 -3.985423151E+01 -3.740416235E+01 -1.214516091E+02  1.331837996E+02  1.907348633E-06  0.00000E+00  9.000E+00
#rwgt            1           1   2.5816389775898459E-002           6      250710           0
</event>
<event>
      5   9999  3.79277E-02  9.99349E+01 -1.00000E+00  1.23841E-01
      21    -1     0     0   511   501  0.000000000E+00  0.000000000E+00  9.275535100E+01  9.275535100E+01  0.000000000E+00  0.00000E+00  9.000E+00
      21    -1     0     0   501   502  0.000000000E+00  0.000000000E+00 -7.200952337E+02  7.200952337E+02  0.000000000E+00  0.00000E+00  9.000E+00
      25     1     1     2     0     0  1.321844848E+02  4.242069671E+01 -1.180047482E+02  2.209578560E+02  1.250000000E+02  0.00000E+00  9.000E+00
      25     1     1     2     0     0 -9.956665424E+01  5.204124144E+01 -4.379185338E+02  4.690623111E+02  1.250000000E+02  0.00000E+00  9.000E+00
      21     1     1     2   511   502 -3.261783054E+01 -9.446193815E+01 -7.141660067E+01  1.228304176E+02  0.000000000E+00  0.00000E+00  9.000E+00
#rwgt            2          11   2.9329126153329189E-003           6      251055           0
</event>
<event>
      5   9999 -3.79277E-02  3.31379E+01 -1.00000E+00  1.50098E-01
      21    -1     0     0   502   501  0.000000000E+00  0.000000000E+00  2.127216798E+02  2.127216798E+02  0.000000000E+00  0.00000E+00  9.000E+00
      21    -1     0     0   501   512  0.000000000E+00  0.000000000E+00 -1.334863811E+03  1.334863811E+03  0.000000000E+00  0.00000E+00  9.000E+00
      25     1     1     2     0     0  1.507060055E+02 -2.721432550E+02 -3.039243026E+02  4.525143457E+02  1.250000000E+02  0.00000E+00  9.000E+00
      25     1     1     2     0     0 -1.695775708E+02  2.449038540E+02 -5.089337775E+01  3.270314757E+02  1.250000000E+02  0.00000E+00  9.000E+00
      21     1     1     2   502   512  1.887156529E+01  2.723940109E+01 -7.673244505E+02  7.680396691E+02  1.078959322E-05  0.00000E+00  9.000E+00
#rwgt            1           1 -0.23620238894263149                6      251105           0
</event>
<event>
      5   9999  3.79277E-02  8.88813E+00 -1.00000E+00  2.01867E-01
      21    -1     0     0   502   501  0.000000000E+00  0.000000000E+00  3.531540780E+02  3.531540780E+02  0.000000000E+00  0.00000E+00  9.000E+00
      21    -1     0     0   511   502  0.000000000E+00  0.000000000E+00 -5.060827047E+02  5.060827047E+02  0.000000000E+00  0.00000E+00  9.000E+00
      25     1     1     2     0     0  1.146780265E+02  7.422265539E+00  1.706608162E+02  2.407410517E+02  1.250000000E+02  0.00000E+00  9.000E+00
      25     1     1     2     0     0 -1.206104272E+02 -1.404083714E+01  9.590035344E+01  1.989117846E+02  1.250000000E+02  0.00000E+00  9.000E+00
      21     1     1     2   511   501  5.932400734E+00  6.618571600E+00 -4.194897963E+02  4.195839464E+02  7.629394531E-06  0.00000E+00  9.000E+00
#rwgt            1           1   4.6229227651345406E-002           6      251312           0
</event>
<event>
      5   9999  3.79277E-02  6.63375E+01 -1.00000E+00  1.32414E-01
      21    -1     0     0   502   512  0.000000000E+00  0.000000000E+00  1.106291627E+03  1.106291627E+03  0.000000000E+00  0.00000E+00  9.000E+00
      21    -1     0     0   501   502  0.000000000E+00  0.000000000E+00 -2.293503834E+02  2.293503834E+02  0.000000000E+00  0.00000E+00  9.000E+00
      25     1     1     2     0     0 -1.232896363E+02  8.890792786E+01 -1.844276938E+00  1.968079150E+02  1.250000000E+02  0.00000E+00  9.000E+00
      25     1     1     2     0     0  1.348763366E+02 -1.542257024E+02 -1.699038294E+01  2.406052090E+02  1.250000000E+02  0.00000E+00  9.000E+00
      21     1     1     2   501   512 -1.158670031E+01  6.531777458E+01  8.957759039E+02  8.982288869E+02  1.078959322E-05  0.00000E+00  9.000E+00
#rwgt            1           1   3.7641332171488524E-002           6      251517           0
</event>
<event>
      5   9999  3.79277E-02  5.75675E+01 -1.00000E+00  1.35671E-01
      21    -1     0     0   502   501  0.000000000E+00  0.000000000E+00  2.798199684E+02  2.798199684E+02  0.000000000E+00  0.00000E+00  9.000E+00
      21    -1     0     0   511   502  0.000000000E+00  0.000000000E+00 -5.123619493E+02  5.123619493E+02  0.000000000E+00  0.00000E+00  9.000E+00
      25     1     1     2     0     0 -1.158035428E+02 -2.005762303E+02 -1.064791506E+02  2.839086018E+02  1.250000000E+02  0.00000E+00  9.000E+00
      25     1     1     2     0     0  1.640102784E+02  2.320425147E+02  5.766081336E+01  3.157417765E+02  1.250000000E+02  0.00000E+00  9.000E+00
      21     1     1     2   511   501 -4.820673560E+01 -3.146628438E+01 -1.837236437E+02  1.925315394E+02  2.697398305E-06  0.00000E+00  9.000E+00
#rwgt            1           1   3.3524082519711708E-002           6      251678           0
</event>
<event>
      5   9999  3.79277E-02  1.71207E+02 -1.00000E+00  1.14162E-01
      21    -1     0     0   502   501  0.000000000E+00  0.000000000E+00  3.205816435E+02  3.205816435E+02  0.000000000E+00  0.00000E+00  9.000E+00
      21    -1     0     0   512   502  0.000000000E+00  0.000000000E+00 -7.117775049E+02  7.117775049E+02  0.000000000E+00  0.00000E+00  9.000E+00
      25     1     1     2     0     0 -4.673295020E+01  2.138000526E+02  1.045270311E+02  2.728467177E+02  1.250000000E+02  0.00000E+00  9.000E+00
      25     1     1     2     0     0  1.730865236E+02 -3.293269396E+02 -4.116859400E+02  5.687930124E+02  1.250000000E+02  0.00000E+00  9.000E+00
      21     1     1     2   512   501 -1.263535734E+02  1.155268870E+02 -8.403695242E+01  1.907194183E+02  3.932099939E-06  0.00000E+00  9.000E+00
#rwgt            2          11   3.6328984810376596E-003           6      251812           0
</event>
<event>
      5   9999  3.79277E-02  2.88305E+01 -1.00000E+00  1.54249E-01
      21    -1     0     0   511   501  0.000000000E+00  0.000000000E+00  3.553817578E+02  3.553817578E+02  0.000000000E+00  0.00000E+00  9.000E+00
      21    -1     0     0   501   502  0.000000000E+00  0.000000000E+00 -2.893019766E+02  2.893019766E+02  0.000000000E+00  0.00000E+00  9.000E+00
      25     1     1     2     0     0  8.588605763E+00 -2.261913668E+02  1.747947755E+02  3.121129797E+02  1.250000000E+02  0.00000E+00  9.000E+00
      25     1     1     2     0     0  1.380362212E+01  2.443513480E+02 -1.221800603E+02  3.007508743E+02  1.250000000E+02  0.00000E+00  9.000E+00
      21     1     1     2   511   502 -2.239222789E+01 -1.815998115E+01  1.346506607E+01  3.181988041E+01  6.743495762E-07  0.00000E+00  9.000E+00
#rwgt            1           1   3.2688612692563353E-002           6      251922           0
</event>
<event>
      5   9999  3.79277E-02  8.11095E+01 -1.00000E+00  1.28061E-01
      21    -1     0     0   502   501  0.000000000E+00  0.000000000E+00  8.037568505E+02  8.037568505E+02  0.000000000E+00  0.00000E+00  9.000E+00
      21    -1     0     0   512   502  0.000000000E+00  0.000000000E+00 -1.254214295E+02  1.254214295E+02  0.000000000E+00  0.00000E+00  9.000E+00
      25     1     1     2     0     0 -1.602232337E+02 -1.091052640E+02  2.494364126E+02  3.397336709E+02  1.250000000E+02  0.00000E+00  9.000E+00
      25     1     1     2     0     0  1.617174471E+02  2.800948896E+01  4.587593675E+02  5.030131424E+02  1.250000000E+02  0.00000E+00  9.000E+00
      21     1     1     2   512   501 -1.494213389E+00  8.109577499E+01 -2.986035905E+01  8.643146671E+01  8.920806376E-07  0.00000E+00  9.000E+00
#rwgt            1           1   5.2565895318220965E-002           6      252102           0
</event>
<event>
      5   9999  3.79277E-02  9.87834E+01 -1.00000E+00  1.24067E-01
      21    -1     0     0   511   501  0.000000000E+00  0.000000000E+00  7.232150909E+02  7.232150909E+02  0.000000000E+00  0.00000E+00  9.000E+00
      21    -1     0     0   501   502  0.000000000E+00  0.000000000E+00 -9.806969147E+01  9.806969147E+01  0.000000000E+00  0.00000E+00  9.000E+00
      25     1     1     2     0     0  1.082056308E+02  7.727306167E+01  9.347468500E+01  2.050417063E+02  1.250000000E+02  0.00000E+00  9.000E+00
      25     1     1     2     0     0 -1.483936918E+02  1.296593032E+01  2.435433833E+02  3.116523427E+02  1.250000000E+02  0.00000E+00  9.000E+00
      21     1     1     2   511   502  4.018806098E+01 -9.023899200E+01  2.881273311E+02  3.045907334E+02  0.000000000E+00  0.00000E+00  9.000E+00
#rwgt            1           1   4.7572020580688906E-002           6      252256           0
</event>
<event>
      5   9999  3.79277E-02  1.41499E+02 -1.00000E+00  1.17407E-01
      21    -1     0     0   502   512  0.000000000E+00  0.000000000E+00  4.871077314E+02  4.871077314E+02  0.000000000E+00  0.00000E+00  9.000E+00
      21    -1     0     0   501   502  0.000000000E+00  0.000000000E+00 -8.172560464E+02  8.172560464E+02  0.000000000E+00  0.00000E+00  9.000E+00
      25     1     1     2     0     0  1.745743301E+01  1.284545352E+02 -4.383847080E+02  4.739319379E+02  1.250000000E+02  0.00000E+00  9.000E+00
      25     1     1     2     0     0 -1.587347493E+02 -1.205404795E+02 -3.098507090E+02  3.890490839E+02  1.250000000E+02  0.00000E+00  9.000E+00
      21     1     1     2   501   512  1.412773163E+02 -7.914055619E+00  4.180871020E+02  4.413827560E+02  9.344061824E-06  0.00000E+00  9.000E+00
#rwgt            1           1   3.7458302590923712E-002           6      252317           0
</event>
<event>
      5   9999  3.79277E-02  1.36256E+02 -1.00000E+00  1.18072E-01
      21    -1     0     0   502   511  0.000000000E+00  0.000000000E+00  1.291703271E+03  1.291703271E+03  0.000000000E+00  0.00000E+00  9.000E+00
      21    -1     0     0   501   502  0.000000000E+00  0.000000000E+00 -1.395278713E+02  1.395278713E+02  0.000000000E+00  0.00000E+00  9.000E+00
      25     1     1     2     0     0  1.165644363E+02  3.010096087E+01  5.761858808E+02  6.017545221E+02  1.250000000E+02  0.00000E+00  9.000E+00
      25     1     1     2     0     0 -2.384821486E+02  3.074100606E+01  3.698566795E+01  2.735172468E+02  1.250000000E+02  0.00000E+00  9.000E+00
      21     1     1     2   501   511  1.219177123E+02 -6.084196692E+01  5.390038514E+02  5.559593738E+02  7.629394531E-06  0.00000E+00  9.000E+00
#rwgt            2          11   1.2717617437036427E-003           6      252592           0
</event>
<event>
      5   9999 -3.79277E-02  4.04516E+01 -1.00000E+00  1.44538E-01
      21    -1     0     0   502   512  0.000000000E+00  0.000000000E+00  1.935768049E+02  1.935768049E+02  0.000000000E+00  0.00000E+00  9.000E+00
      21    -1     0     0   501   502  0.000000000E+00  0.000000000E+00 -6.794823440E+02  6.794823440E+02  0.000000000E+00  0.00000E+00  9.000E+00
      25     1     1     2     0     0  2.028138683E+02 -2.495498405E+02 -1.756312080E+02  3.871432671E+02  1.250000000E+02  0.00000E+00  9.000E+00
      25     1     1     2     0     0 -1.631158080E+02  2.573211055E+02 -2.966727925E+02  4.432388340E+02  1.250000000E+02  0.00000E+00  9.000E+00
      21     1     1     2   501   512 -3.969806025E+01 -7.771264966E+00 -1.360153863E+01  4.267704770E+01  8.429369702E-07  0.00000E+00  9.000E+00
#rwgt            1           1 -0.38294857869952981                6      252657           0
</event>
<event>
      5   9999  3.79277E-02  4.77349E+01 -1.00000E+00  1.40234E-01
      21    -1     0     0   502   501  0.000000000E+00  0.000000000E+00  5.718713730E+02  5.718713730E+02  0.000000000E+00  0.00000E+00  9.000E+00
      21    -1     0     0   511   502  0.000000000E+00  0.000000000E+00 -1.326169085E+02  1.326169085E+02  0.000000000E+00  0.00000E+00  9.000E+00
      25     1     1     2     0     0 -1.595511741E+02 -1.492891237E+01  4.305062719E+02  4.760673269E+02  1.250000000E+02  0.00000E+00  9.000E+00
      25     1     1     2     0     0  1.185178556E+02  3.931925445E+01 -1.039580033E+01  1.769902781E+02  1.250000000E+02  0.00000E+00  9.000E+00
      21     1     1     2   511   501  4.103331853E+01 -2.439034207E+01  1.914399293E+01  5.143067646E+01  6.743495762E-07  0.00000E+00  9.000E+00
#rwgt            1           1   3.6466516717757372E-002           6      252825           0
</event>
<event>
      5   9999 -3.79277E-02  7.29405E+01 -1.00000E+00  1.30322E-01
      21    -1     0     0   512   501  0.000000000E+00  0.000000000E+00  8.466714739E+02  8.466714739E+02  0.000000000E+00  0.00000E+00  9.000E+00
      21    -1     0     0   501   502  0.000000000E+00  0.000000000E+00 -2.604378216E+02  2.604378216E+02  0.000000000E+00  0.00000E+00  9.000E+00
      25     1     1     2     0     0  2.967076540E+02 -6.512022823E+01  2.046896804E+01  3.291201220E+02  1.250000000E+02  0.00000E+00  9.000E+00
      25     1     1     2     0     0 -2.887075199E+02 -7.380223694E+00  1.372665250E+02  3.433272472E+02  1.250000000E+02  0.00000E+00  9.000E+00
      21     1     1     2   512   502 -8.000134093E+00  7.250045193E+01  4.284981593E+02  4.346619263E+02  0.000000000E+00  0.00000E+00  9.000E+00
#rwgt            1           1 -0.12638633082065917                6      252979           0
</event>
<event>
      5   9999  3.79277E-02  5.61493E+01 -1.00000E+00  1.36261E-01
      21    -1     0     0   502   501  0.000000000E+00  0.000000000E+00  1.222504719E+03  1.222504719E+03  0.000000000E+00  0.00000E+00  9.000E+00
      21    -1     0     0   511   502  0.000000000E+00  0.000000000E+00 -4.984563735E+01  4.984563735E+01  0.000000000E+00  0.00000E+00  9.000E+00
      25     1     1     2     0     0 -1.299284716E+02  4.129160472E+01  8.400048974E+02  8.601276835E+02  1.250000000E+02  0.00000E+00  9.000E+00
      25     1     1     2     0     0  8.269556605E+01 -7.165278618E+01  3.099382152E+02  3.516523505E+02  1.250000000E+02  0.00000E+00  9.000E+00
      21     1     1     2   511   501  4.723290555E+01  3.036118146E+01  2.271596930E+01  6.057032250E+01  4.768371582E-07  0.00000E+00  9.000E+00
#rwgt            1           1   9.4091485746170239E-002           6      253117           0
</event>
<event>
      5   9999  3.79277E-02  6.73413E+01 -1.00000E+00  1.32078E-01
       4    -1     0     0   502     0  0.000000000E+00  0.000000000E+00  2.159798044E+02  2.159798044E+02  0.000000000E+00  0.00000E+00  9.000E+00
      21    -1     0     0   501   502  0.000000000E+00  0.000000000E+00 -4.593007953E+02  4.593007953E+02  0.000000000E+00  0.00000E+00  9.000E+00
      25     1     1     2     0     0 -7.004868725E+01 -5.951577263E+01 -2.911373339E+02  3.299013382E+02  1.250000000E+02  0.00000E+00  9.000E+00
      25     1     1     2     0     0  1.307380718E+02  8.869891675E+01 -6.697059144E+01  2.122969650E+02  1.250000000E+02  0.00000E+00  9.000E+00
       4     1     1     2   501     0 -6.068938453E+01 -2.918314411E+01  1.147869345E+02  1.330822964E+02  1.348699152E-06  0.00000E+00  9.000E+00
#rwgt            1           1   3.6290437215264440E-002           6      253272           0
</event>
<event>
      5   9999  3.79277E-02  5.59300E+01 -1.00000E+00  1.36354E-01
      21    -1     0     0   502   511  0.000000000E+00  0.000000000E+00  1.349417220E+02  1.349417220E+02  0.000000000E+00  0.00000E+00  9.000E+00
      21    -1     0     0   501   502  0.000000000E+00  0.000000000E+00 -5.029417206E+02  5.029417206E+02  0.000000000E+00  0.00000E+00  9.000E+00
      25     1     1     2     0     0 -4.214942756E+01 -6.811708091E+01 -4.418398465E+01  1.548991138E+02  1.250000000E+02  0.00000E+00  9.000E+00
      25     1     1     2     0     0  8.775029089E+01  1.005011177E+02 -3.685233538E+02  4.113818791E+02  1.250000000E+02  0.00000E+00  9.000E+00
      21     1     1     2   501   511 -4.560086333E+01 -3.238403678E+01  4.470733979E+01  7.160244972E+01  1.066240300E-06  0.00000E+00  9.000E+00
#rwgt            1           1   4.2649153615152216E-002           6      253335           0
</event>
<event>
      5   9999  3.79277E-02  5.32395E+01 -1.00000E+00  1.37538E-01
      21    -1     0     0   502   512  0.000000000E+00  0.000000000E+00  6.938918765E+01  6.938918765E+01  0.000000000E+00  0.00000E+00  9.000E+00
      21    -1     0     0   501   502  0.000000000E+00  0.000000000E+00 -6.930064466E+02  6.930064466E+02  0.000000000E+00  0.00000E+00  9.000E+00
      25     1     1     2     0     0  5.436893968E+01 -1.462627694E+01 -7.931555052E+01  1.583851828E+02  1.250000000E+02  0.00000E+00  9.000E+00
      25     1     1     2     0     0 -1.064988274E+02  2.543929064E+01 -5.192101518E+02  5.451544180E+02  1.250000000E+02  0.00000E+00  9.000E+00
      21     1     1     2   501   512  5.212988770E+01 -1.081301371E+01 -2.509155662E+01  5.885603343E+01  1.469710828E-06  0.00000E+00  9.000E+00
#rwgt            1           1   4.7743098465153351E-002           6      253483           0
</event>
<event>
      5   9999  3.79277E-02  2.65712E+01 -1.00000E+00  1.56793E-01
      21    -1     0     0   502   501  0.000000000E+00  0.000000000E+00  5.029110139E+02  5.029110139E+02  0.000000000E+00  0.00000E+00  9.000E+00
      21    -1     0     0   511   502  0.000000000E+00  0.000000000E+00 -2.153323910E+02  2.153323910E+02  0.000000000E+00  0.00000E+00  9.000E+00
      25     1     1     2     0     0 -1.739073037E+02  2.229343346E+02  1.936653073E+02  3.647940777E+02  1.250000000E+02  0.00000E+00  9.000E+00
      25     1     1     2     0     0  1.530723300E+02 -2.394247842E+02  1.000561745E+02  3.261772578E+02  1.250000000E+02  0.00000E+00  9.000E+00
      21     1     1     2   511   501  2.083497371E+01  1.649044955E+01 -6.142858932E+00  2.727206944E+01  4.842304232E-07  0.00000E+00  9.000E+00
#rwgt            1           1   3.2943834819491306E-002           6      253657           0
</event>
<event>
      5   9999  3.79277E-02  1.61784E+01 -1.00000E+00  1.74344E-01
      21    -1     0     0   512   501  0.000000000E+00  0.000000000E+00  5.446075335E+02  5.446075335E+02  0.000000000E+00  0.00000E+00  9.000E+00
      21    -1     0     0   501   502  0.000000000E+00  0.000000000E+00 -1.733508962E+02  1.733508962E+02  0.000000000E+00  0.00000E+00  9.000E+00
      25     1     1     2     0     0 -3.996025798E+01  2.218484461E+02  6.013235338E+00  2.578269075E+02  1.250000000E+02  0.00000E+00  9.000E+00
      25     1     1     2     0     0  5.584652693E+01 -2.249087683E+02  3.492488948E+02  4.373815030E+02  1.250000000E+02  0.00000E+00  9.000E+00
      21     1     1     2   512   502 -1.588626895E+01  3.060322243E+00  1.599450710E+01  2.275001914E+01  2.920019320E-07  0.00000E+00  9.000E+00
#rwgt            1           1   3.3297865623434952E-002           6      253827           0
</event>
<event>
      5   9999  3.79277E-02  5.73948E+01 -1.00000E+00  1.35742E-01
      21    -1     0     0   502   501  0.000000000E+00  0.000000000E+00  1.257596807E+03  1.257596807E+03  0.000000000E+00  0.00000E+00  9.000E+00
      21    -1     0     0   511   502  0.000000000E+00  0.000000000E+00 -6.708501324E+01  6.708501324E+01  0.000000000E+00  0.00000E+00  9.000E+00
      25     1     1     2     0     0  3.766217016E+01 -1.087262994E+02  1.106428692E+02  2.027478526E+02  1.250000000E+02  0.00000E+00  9.000E+00
      25     1     1     2     0     0 -3.200705702E+00  1.546237287E+02  1.019199919E+03  1.038418132E+03  1.250000000E+02  0.00000E+00  9.000E+00
      21     1     1     2   511   501 -3.446146446E+01 -4.589742925E+01  6.066900533E+01  8.351583534E+01  1.651812370E-06  0.00000E+00  9.000E+00
#rwgt            1           1   2.9345507203360460E-002           6      254021           0
</event>
<event>
      5   9999  3.79277E-02  1.10673E+02 -1.00000E+00  1.21879E-01
      21    -1     0     0   502   512  0.000000000E+00  0.000000000E+00  1.023434986E+02  1.023434986E+02  0.000000000E+00  0.00000E+00  9.000E+00
      21    -1     0     0   501   502  0.000000000E+00  0.000000000E+00 -6.638407027E+02  6.638407027E+02  0.000000000E+00  0.00000E+00  9.000E+00
      25     1     1     2     0     0 -1.187340331E+02 -2.102945267E+01 -3.355566382E+02  3.778402651E+02  1.250000000E+02  0.00000E+00  9.000E+00
      25     1     1     2     0     0  9.677725660E+01  1.295023557E+02 -1.330261185E+02  2.438393851E+02  1.250000000E+02  0.00000E+00  9.000E+00
      21     1     1     2   501   512  2.195677649E+01 -1.084729031E+02 -9.291444747E+01  1.445045511E+02  1.907348633E-06  0.00000E+00  9.000E+00
#rwgt            1           1   4.3055894467017138E-002           6      254091           0
</event>
<event>
      5   9999  3.79277E-02  2.03056E+01 -1.00000E+00  1.65827E-01
      21    -1     0     0   502   501  0.000000000E+00  0.000000000E+00  4.133715620E+02  4.133715620E+02  0.000000000E+00  0.00000E+00  9.000E+00
      21    -1     0     0   511   502  0.000000000E+00  0.000000000E+00 -2.058010566E+02  2.058010566E+02  0.000000000E+00  0.00000E+00  9.000E+00
      25     1     1     2     0     0  2.145043919E+01  1.213347206E+02  3.359286589E+02  3.790188645E+02  1.250000000E+02  0.00000E+00  9.000E+00
      25     1     1     2     0     0 -1.343516371E+01 -1.026779900E+02 -6.714541103E+01  1.756609788E+02  1.250000000E+02  0.00000E+00  9.000E+00
      21     1     1     2   511   501 -8.015275485E+00 -1.865673058E+01 -6.121274240E+01  6.449277533E+01  1.348699152E-06  0.00000E+00  9.000E+00
#rwgt            1           1   3.2292085712999921E-002           6      254292           0
</event>
<event>
      5   9999  3.79277E-02  6.54334E+01 -1.00000E+00  1.32722E-01
      21    -1     0     0   502   501  0.000000000E+00  0.000000000E+00  3.098381064E+02  3.098381064E+02  0.000000000E+00  0.00000E+00  9.000E+00
       2    -1     0     0   501     0  0.000000000E+00  0.000000000E+00 -1.428323887E+03  1.428323887E+03  0.000000000E+00  0.00000E+00  9.000E+00
      25     1     1     2     0     0  9.714307868E+01  9.530345776E+01  2.366743817E+02  3.002653656E+02  1.250000000E+02  0.00000E+00  9.000E+00
      25     1     1     2     0     0 -4.486462077E+01 -1.346543038E+02 -1.805735419E+02  2.614888521E+02  1.250000000E+02  0.00000E+00  9.000E+00
       2     1     1     2   502     0 -5.227845791E+01  3.935084606E+01 -1.174586620E+03  1.176407776E+03  0.000000000E+00  0.00000E+00  9.000E+00
#rwgt            1           1   4.3216694459877192E-002           6      254386           0
</event>
<event>
      5   9999  3.79277E-02  3.17539E+01 -1.00000E+00  1.51346E-01
      21    -1     0     0   502   511  0.000000000E+00  0.000000000E+00  1.842756735E+01  1.842756735E+01  0.000000000E+00  0.00000E+00  9.000E+00
      21    -1     0     0   501   502  0.000000000E+00  0.000000000E+00 -1.405740037E+03  1.405740037E+03  0.000000000E+00  0.00000E+00  9.000E+00
      25     1     1     2     0     0  1.353076066E+01 -5.847949368E+01 -6.518689087E+02  6.664540545E+02  1.250000000E+02  0.00000E+00  9.000E+00
      25     1     1     2     0     0  1.040628496E+01  7.934395461E+01 -6.450450449E+02  6.619001918E+02  1.250000000E+02  0.00000E+00  9.000E+00
      21     1     1     2   501   511 -2.393704562E+01 -2.086446094E+01 -9.039851622E+01  9.581335824E+01  9.536743164E-07  0.00000E+00  9.000E+00
#rwgt            1           1   6.0107498438640591E-002           6      254564           0
</event>
<event>
      5   9999  3.79277E-02  1.66398E+02 -1.00000E+00  1.14635E-01
      21    -1     0     0   502   501  0.000000000E+00  0.000000000E+00  8.068680303E+01  8.068680303E+01  0.000000000E+00  0.00000E+00  9.000E+00
       1    -1     0     0   501     0  0.000000000E+00  0.000000000E+00 -2.198990814E+03  2.198990814E+03  0.000000000E+00  0.00000E+00  9.000E+00
      25     1     1     2     0     0  1.049806228E+02  1.134894781E+02 -6.594734060E+02  6.887894933E+02  1.250000000E+02  0.00000E+00  9.000E+00
      25     1     1     2     0     0 -1.464297631E+02  4.766338153E+01 -1.003978404E+02  2.223020463E+02  1.250000000E+02  0.00000E+00  9.000E+00
       1     1     1     2   502     0  4.144914023E+01 -1.611528597E+02 -1.358432765E+03  1.368586078E+03  1.525878906E-05  0.00000E+00  9.000E+00
#rwgt            1           1   5.0118640097193516E-002           6      254722           0
</event>
<event>
      5   9999  3.79277E-02  1.34259E+01 -1.00000E+00  1.82043E-01
      21    -1     0     0   502   511  0.000000000E+00  0.000000000E+00  1.136152994E+03  1.136152994E+03  0.000000000E+00  0.00000E+00  9.000E+00
      21    -1     0     0   501   502  0.000000000E+00  0.000000000E+00 -9.521940178E+01  9.521940178E+01  0.000000000E+00  0.00000E+00  9.000E+00
      25     1     1     2     0     0 -2.431397556E+02 -9.613334567E+01  3.321504169E+02  4.408031992E+02  1.250000000E+02  0.00000E+00  9.000E+00
      25     1     1     2     0     0  2.559831792E+02  1.000449771E+02  5.199286713E+02  6.012380633E+02  1.250000000E+02  0.00000E+00  9.000E+00
      21     1     1     2   501   511 -1.284342354E+01 -3.911631448E+00  1.888545042E+02  1.893311336E+02  4.672030912E-06  0.00000E+00  9.000E+00
#rwgt            1           1   3.4398353468284334E-002           6      254793           0
</event>
<event>
      5   9999  3.79277E-02  1.14784E+02 -1.00000E+00  1.21193E-01
      21    -1     0     0   502   512  0.000000000E+00  0.000000000E+00  4.544634825E+02  4.544634825E+02  0.000000000E+00  0.00000E+00  9.000E+00
      21    -1     0     0   501   502  0.000000000E+00  0.000000000E+00 -2.383740485E+02  2.383740485E+02  0.000000000E+00  0.00000E+00  9.000E+00
      25     1     1     2     0     0  1.891064759E+02 -4.235163750E+01 -4.858316161E+01  2.356697775E+02  1.250000000E+02  0.00000E+00  9.000E+00
      25     1     1     2     0     0 -7.867218597E+01  1.105351874E+01 -2.072486451E+01  1.495527102E+02  1.250000000E+02  0.00000E+00  9.000E+00
      21     1     1     2   501   512 -1.104342899E+02  3.129811875E+01  2.853974601E+02  3.076150433E+02  5.394796609E-06  0.00000E+00  9.000E+00
#rwgt            1           1   5.1274715263423018E-002           6      255181           0
</event>
<event>
      5   9999  3.79277E-02  1.46609E+01 -1.00000E+00  1.78324E-01
      21    -1     0     0   502   501  0.000000000E+00  0.000000000E+00  3.585760340E+01  3.585760340E+01  0.000000000E+00  0.00000E+00  9.000E+00
      21    -1     0     0   501   511  0.000000000E+00  0.000000000E+00 -1.468550158E+03  1.468550158E+03  0.000000000E+00  0.00000E+00  9.000E+00
      25     1     1     2     0     0  9.143042229E+01 -1.568650086E+02 -5.450826257E+02  5.879678748E+02  1.250000000E+02  0.00000E+00  9.000E+00
      25     1     1     2     0     0 -9.278196621E+01  1.422665518E+02 -7.869062379E+02  8.146745928E+02  1.250000000E+02  0.00000E+00  9.000E+00
      21     1     1     2   502   511  1.351543926E+00  1.459845676E+01 -1.007036912E+02  1.017652938E+02  1.907348633E-06  0.00000E+00  9.000E+00
#rwgt            1           1   2.9176628467091556E-002           6      255291           0
</event>
<event>
      5   9999  3.79277E-02  2.81997E+01 -1.00000E+00  1.54930E-01
       2    -1     0     0   502     0  0.000000000E+00  0.000000000E+00  1.698315125E+02  1.698315125E+02  0.000000000E+00  0.00000E+00  9.000E+00
      21    -1     0     0   501   502  0.000000000E+00  0.000000000E+00 -1.079371497E+03  1.079371497E+03  0.000000000E+00  0.00000E+00  9.000E+00
      25     1     1     2     0     0  1.279529204E+02 -3.791880310E+01  4.335074746E+01  1.879203895E+02  1.250000000E+02  0.00000E+00  9.000E+00
      25     1     1     2     0     0 -1.038899266E+02  5.262231047E+01 -9.955734816E+02  1.010125627E+03  1.250000000E+02  0.00000E+00  9.000E+00
       2     1     1     2   501     0 -2.406299382E+01 -1.470350737E+01  4.268274989E+01  5.115699306E+01  6.743495762E-07  0.00000E+00  9.000E+00
#rwgt            1           1   3.5093661757201938E-002           6      255468           0
</event>
<event>
      5   9999  3.79277E-02  2.13005E+02 -1.00000E+00  1.10661E-01
      21    -1     0     0   511   501  0.000000000E+00  0.000000000E+00  4.977135766E+02  4.977135766E+02  0.000000000E+00  0.00000E+00  9.000E+00
      21    -1     0     0   501   502  0.000000000E+00  0.000000000E+00 -2.876917929E+02  2.876917929E+02  0.000000000E+00  0.00000E+00  9.000E+00
      25     1     1     2     0     0 -1.274494631E+01  1.562814139E+02 -6.122840075E+01  2.096669527E+02  1.250000000E+02  0.00000E+00  9.000E+00
      25     1     1     2     0     0  2.064283057E+02 -6.763584801E+01  2.764810975E+01  2.521441479E+02  1.250000000E+02  0.00000E+00  9.000E+00
      21     1     1     2   511   502 -1.936833594E+02 -8.864556587E+01  2.436020747E+02  3.235942689E+02  0.000000000E+00  0.00000E+00  9.000E+00
#rwgt            1           1   3.4996848993987556E-002           6      255705           0
</event>
<event>
      5   9999  3.79277E-02  3.30490E+01 -1.00000E+00  1.50176E-01
      21    -1     0     0   502   501  0.000000000E+00  0.000000000E+00  1.112010818E+02  1.112010818E+02  0.000000000E+00  0.00000E+00  9.000E+00
      21    -1     0     0   512   502  0.000000000E+00  0.000000000E+00 -3.723354269E+02  3.723354269E+02  0.000000000E+00  0.00000E+00  9.000E+00
      25     1     1     2     0     0  1.192502450E+02 -1.362768762E-01 -1.160719647E+02  2.081305852E+02  1.250000000E+02  0.00000E+00  9.000E+00
      25     1     1     2     0     0 -1.503228875E+02  1.139348093E+01 -1.010595199E+02  2.203742464E+02  1.250000000E+02  0.00000E+00  9.000E+00
      21     1     1     2   512   501  3.107264245E+01 -1.125720405E+01 -4.400286048E+01  5.503167708E+01  6.743495762E-07  0.00000E+00  9.000E+00
#rwgt            1           1   4.3326225890565152E-002           6      255756           0
</event>
<event>
      5   9999  3.79277E-02  1.05406E+02 -1.00000E+00  1.22808E-01
      21    -1     0     0   502   501  0.000000000E+00  0.000000000E+00  2.017821381E+02  2.017821381E+02  0.000000000E+00  0.00000E+00  9.000E+00
      21    -1     0     0   501   511  0.000000000E+00  0.000000000E+00 -1.087526266E+03  1.087526266E+03  0.000000000E+00  0.00000E+00  9.000E+00
      25     1     1     2     0     0 -1.430847110E+02  1.221463385E+00 -3.966812199E+02  4.398360112E+02  1.250000000E+02  0.00000E+00  9.000E+00
      25     1     1     2     0     0  2.275475777E+02  6.183780080E+01  7.374043882E+01  2.768834882E+02  1.250000000E+02  0.00000E+00  9.000E+00
      21     1     1     2   502   511 -8.446286666E+01 -6.305926419E+01 -5.628033468E+02  5.725889047E+02  0.000000000E+00  0.00000E+00  9.000E+00
#rwgt            1           1   5.5757374242959214E-002           6      255882           0
</event>
<event>
      5   9999  3.79277E-02  9.77291E+01 -1.00000E+00  1.24278E-01
      21    -1     0     0   512   501  0.000000000E+00  0.000000000E+00  1.140730158E+02  1.140730158E+02  0.000000000E+00  0.00000E+00  9.000E+00
      21    -1     0     0   501   502  0.000000000E+00  0.000000000E+00 -7.611868022E+02  7.611868022E+02  0.000000000E+00  0.00000E+00  9.000E+00
      25     1     1     2     0     0  7.617137862E+01  1.634253298E+02 -1.105989610E+02  2.456970645E+02  1.250000000E+02  0.00000E+00  9.000E+00
      25     1     1     2     0     0  2.146829373E+01 -1.676052461E+02 -4.589648859E+02  5.048031029E+02  1.250000000E+02  0.00000E+00  9.000E+00
      21     1     1     2   512   502 -9.763967235E+01  4.179916260E+00 -7.754993941E+01  1.247596506E+02  1.651812370E-06  0.00000E+00  9.000E+00
#rwgt            2          11   3.1610032661689240E-003           6      255983           0
</event>
<event>
      5   9999  3.79277E-02  1.23440E+01 -1.00000E+00  1.85747E-01
      21    -1     0     0   511   501  0.000000000E+00  0.000000000E+00  2.758496371E+02  2.758496371E+02  0.000000000E+00  0.00000E+00  9.000E+00
      21    -1     0     0   501   502  0.000000000E+00  0.000000000E+00 -9.727380550E+02  9.727380550E+02  0.000000000E+00  0.00000E+00  9.000E+00
      25     1     1     2     0     0  9.029744822E+01 -7.078689967E+01 -7.336580489E+02  7.530229392E+02  1.250000000E+02  0.00000E+00  9.000E+00
      25     1     1     2     0     0 -9.154896354E+01  5.850655315E+01 -1.993226184E+02  2.591500254E+02  1.250000000E+02  0.00000E+00  9.000E+00
      21     1     1     2   511   502  1.251515313E+00  1.228034651E+01  2.360922493E+02  2.364147275E+02  0.000000000E+00  0.00000E+00  9.000E+00
#rwgt            1           1   4.5770445825267063E-002           6      256003           0
</event>
<event>
      5   9999  3.79277E-02  5.84412E+01 -1.00000E+00  1.35317E-01
      21    -1     0     0   502   501  0.000000000E+00  0.000000000E+00  1.130378868E+02  1.130378868E+02  0.000000000E+00  0.00000E+00  9.000E+00
       1    -1     0     0   501     0  0.000000000E+00  0.000000000E+00 -6.088892463E+02  6.088892463E+02  0.000000000E+00  0.00000E+00  9.000E+00
      25     1     1     2     0     0  1.368953722E+02 -6.214715337E+01 -2.518534025E+01  1.971342511E+02  1.250000000E+02  0.00000E+00  9.000E+00
      25     1     1     2     0     0 -8.291047896E+01  8.453026747E+01 -3.238789442E+02  3.667997875E+02  1.250000000E+02  0.00000E+00  9.000E+00
       1     1     1     2   502     0 -5.398489324E+01 -2.238311410E+01 -1.467870751E+02  1.579930945E+02  2.697398305E-06  0.00000E+00  9.000E+00
#rwgt            1           1   3.1496112017210455E-002           6      256183           0
</event>
<event>
      5   9999  3.79277E-02  9.37729E+01 -1.00000E+00  1.25097E-01
      21    -1     0     0   502   511  0.000000000E+00  0.000000000E+00  3.189050919E+02  3.189050919E+02  0.000000000E+00  0.00000E+00  9.000E+00
      21    -1     0     0   501   502  0.000000000E+00  0.000000000E+00 -3.798927319E+02  3.798927319E+02  0.000000000E+00  0.00000E+00  9.000E+00
      25     1     1     2     0     0  6.688787210E+01  9.257468707E+01  1.779901051E+02  2.456614289E+02  1.250000000E+02  0.00000E+00  9.000E+00
      25     1     1     2     0     0 -1.496603487E+02 -1.366436953E+02 -2.645657309E+02  3.559350298E+02  1.250000000E+02  0.00000E+00  9.000E+00
      21     1     1     2   501   511  8.277247655E+01  4.406900824E+01  2.558798588E+01  9.720136513E+01  9.536743164E-07  0.00000E+00  9.000E+00
#rwgt            1           1   2.8038290518836932E-002           6      256297           0
</event>
<event>
      5   9999  3.79277E-02  4.72602E+01 -1.00000E+00  1.40486E-01
      21    -1     0     0   502   501  0.000000000E+00  0.000000000E+00  1.548206225E+03  1.548206225E+03  0.000000000E+00  0.00000E+00  9.000E+00
      21    -1     0     0   512   502  0.000000000E+00  0.000000000E+00 -6.306984621E+01  6.306984621E+01  0.000000000E+00  0.00000E+00  9.000E+00
      25     1     1     2     0     0  2.535765154E+00 -5.354517986E+01  1.413383436E+03  1.419912410E+03  1.250000000E+02  0.00000E+00  9.000E+00
      25     1     1     2     0     0  2.994102084E+01  1.921171758E+01  4.878986391E+01  1.388200477E+02  1.250000000E+02  0.00000E+00  9.000E+00
      21     1     1     2   512   501 -3.247678600E+01  3.433346228E+01  2.296307864E+01  5.254361276E+01  3.371747881E-07  0.00000E+00  9.000E+00
#rwgt            1           1   4.2678132240698462E-002           6      256337           0
</event>
<event>
      5   9999  3.79277E-02  9.55297E+00 -1.00000E+00  1.98081E-01
      21    -1     0     0   502   501  0.000000000E+00  0.000000000E+00  2.027212970E+02  2.027212970E+02  0.000000000E+00  0.00000E+00  9.000E+00
      21    -1     0     0   501   511  0.000000000E+00  0.000000000E+00 -3.340365428E+02  3.340365428E+02  0.000000000E+00  0.00000E+00  9.000E+00
      25     1     1     2     0     0  1.107996278E+02 -1.040545069E+02  3.568765660E+01  2.000062668E+02  1.250000000E+02  0.00000E+00  9.000E+00
      25     1     1     2     0     0 -1.022561796E+02  1.083286969E+02 -2.689165650E+01  1.963150377E+02  1.250000000E+02  0.00000E+00  9.000E+00
      21     1     1     2   502   511 -8.543448135E+00 -4.274190001E+00 -1.401112459E+02  1.404365353E+02  0.000000000E+00  0.00000E+00  9.000E+00
#rwgt            1           1   4.3593723410513506E-002           6      256561           0
</event>
<event>
      5   9999  3.79277E-02  8.94767E+01 -1.00000E+00  1.26040E-01
      21    -1     0     0   502   501  0.000000000E+00  0.000000000E+00  2.615208407E+02  2.615208407E+02  0.000000000E+00  0.00000E+00  9.000E+00
      21    -1     0     0   512   502  0.000000000E+00  0.000000000E+00 -3.926351859E+02  3.926351859E+02  0.000000000E+00  0.00000E+00  9.000E+00
      25     1     1     2     0     0 -2.061373826E+02 -1.240983780E+02  4.877024993E+01  2.754933125E+02  1.250000000E+02  0.00000E+00  9.000E+00
      25     1     1     2     0     0  2.061955485E+02  3.462168413E+01 -1.268063835E+02  2.746272458E+02  1.250000000E+02  0.00000E+00  9.000E+00
      21     1     1     2   512   501 -5.816586387E-02  8.947669388E+01 -5.307821167E+01  1.040354684E+02  1.348699152E-06  0.00000E+00  9.000E+00
#rwgt            1           1  0.15601333169554715                6      256773           0
</event>
<event>
      5   9999  3.79277E-02  8.50640E+00 -1.00000E+00  2.04245E-01
      21    -1     0     0   502   511  0.000000000E+00  0.000000000E+00  1.196984393E+02  1.196984393E+02  0.000000000E+00  0.00000E+00  9.000E+00
      21    -1     0     0   501   502  0.000000000E+00  0.000000000E+00 -7.498946383E+02  7.498946383E+02  0.000000000E+00  0.00000E+00  9.000E+00
      25     1     1     2     0     0  1.709623338E+02 -1.930423086E+01 -2.478938961E+01  2.141034487E+02  1.250000000E+02  0.00000E+00  9.000E+00
      25     1     1     2     0     0 -1.628826172E+02  2.196448627E+01 -6.112393213E+02  6.451757075E+02  1.250000000E+02  0.00000E+00  9.000E+00
      21     1     1     2   501   511 -8.079716567E+00 -2.660255414E+00  5.832511917E+00  1.031392137E+01  2.064765462E-07  0.00000E+00  9.000E+00
#rwgt            1           1   3.7852270384379813E-002           6      256898           0
</event>
<event>
      5   9999  3.79277E-02  1.05693E+01 -1.00000E+00  1.93018E-01
      21    -1     0     0   502   501  0.000000000E+00  0.000000000E+00  4.820253918E+02  4.820253918E+02  0.000000000E+00  0.00000E+00  9.000E+00
      21    -1     0     0   501   512  0.000000000E+00  0.000000000E+00 -7.577038140E+01  7.577038140E+01  0.000000000E+00  0.00000E+00  9.000E+00
      25     1     1     2     0     0 -4.301752849E+01  6.900439660E+01  3.553192585E+01  1.532958977E+02  1.250000000E+02  0.00000E+00  9.000E+00
      25     1     1     2     0     0  4.550036496E+01 -5.873085797E+01  3.640085620E+02  3.919780990E+02  1.250000000E+02  0.00000E+00  9.000E+00
      21     1     1     2   502   512 -2.482836471E+00 -1.027353863E+01  6.714522600E+00  1.252177650E+01  3.153981341E-07  0.00000E+00  9.000E+00
#rwgt            1           1   2.6079492617345715E-002           6      257402           0
</event>
<event>
      5   9999  3.79277E-02  1.67000E+02 -1.00000E+00  1.14575E-01
      21    -1     0     0   502   501  0.000000000E+00  0.000000000E+00  2.744183209E+02  2.744183209E+02  0.000000000E+00  0.00000E+00  9.000E+00
      21    -1     0     0   501   511  0.000000000E+00  0.000000000E+00 -1.961189680E+03  1.961189680E+03  0.000000000E+00  0.00000E+00  9.000E+00
      25     1     1     2     0     0 -6.602662935E+01 -3.790283239E+01  1.603321733E+02  2.170887982E+02  1.250000000E+02  0.00000E+00  9.000E+00
      25     1     1     2     0     0  2.284984597E+02  7.652720804E+01 -1.440861866E+02  3.073333513E+02  1.250000000E+02  0.00000E+00  9.000E+00
      21     1     1     2   502   511 -1.624718304E+02 -3.862437565E+01 -1.703017346E+03  1.711185851E+03  2.157918644E-05  0.00000E+00  9.000E+00
#rwgt            1           1   4.5938523475800373E-002           6      257675           0
</event>
<event>
      5   9999  3.79277E-02  7.35691E+01 -1.00000E+00  1.30136E-01
      21    -1     0     0   502   501  0.000000000E+00  0.000000000E+00  1.209757656E+02  1.209757656E+02  0.000000000E+00  0.00000E+00  9.000E+00
      21    -1     0     0   512   502  0.000000000E+00  0.000000000E+00 -5.710371479E+02  5.710371479E+02  0.000000000E+00  0.00000E+00  9.000E+00
      25     1     1     2     0     0 -4.839722979E+01 -3.667317603E+01  3.858815841E+01  1.442264180E+02  1.250000000E+02  0.00000E+00  9.000E+00
      25     1     1     2     0     0  1.195966293E+02  1.815152559E+01 -3.486283184E+02  3.896145993E+02  1.250000000E+02  0.00000E+00  9.000E+00
      21     1     1     2   512   501 -7.119939955E+01  1.852165044E+01 -1.400212223E+02  1.581718962E+02  1.907348633E-06  0.00000E+00  9.000E+00
#rwgt            1           1   4.3202186643851427E-002           6      257807           0
</event>
<event>
      5   9999  3.79277E-02  8.72239E+01 -1.00000E+00  1.26558E-01
      21    -1     0     0   502   511  0.000000000E+00  0.000000000E+00  7.251787016E+02  7.251787016E+02  0.000000000E+00  0.00000E+00  9.000E+00
      21    -1     0     0   501   502  0.000000000E+00  0.000000000E+00 -2.466857503E+02  2.466857503E+02  0.000000000E+00  0.00000E+00  9.000E+00
      25     1     1     2     0     0 -9.831156567E+01 -1.437161394E+02  1.726203590E+02  2.752131556E+02  1.250000000E+02  0.00000E+00  9.000E+00
      25     1     1     2     0     0  2.915265180E+01  9.056482772E+01 -1.590909012E+02  2.235772349E+02  1.250000000E+02  0.00000E+00  9.000E+00
      21     1     1     2   501   511  6.915891387E+01  5.315131173E+01  4.649634934E+02  4.730740613E+02  5.394796609E-06  0.00000E+00  9.000E+00
#rwgt            1           1  0.11688925895627457                6      257953           0
</event>
<event>
      5   9999  3.79277E-02  3.57583E+01 -1.00000E+00  1.47925E-01
      -2    -1     0     0     0   501  0.000000000E+00  0.000000000E+00  6.316495012E+02  6.316495012E+02  0.000000000E+00  0.00000E+00  9.000E+00
      21    -1     0     0   501   502  0.000000000E+00  0.000000000E+00 -5.958042653E+01  5.958042653E+01  0.000000000E+00  0.00000E+00  9.000E+00
      25     1     1     2     0     0  5.349420563E+01  1.381439603E+01  5.219072717E+01  1.462919669E+02  1.250000000E+02  0.00000E+00  9.000E+00
      25     1     1     2     0     0 -2.456051302E+01  7.197483240E+00  4.055089593E+02  4.251088550E+02  1.250000000E+02  0.00000E+00  9.000E+00
      -2     1     1     2     0   502 -2.893369261E+01 -2.101187927E+01  1.143693882E+02  1.198291058E+02  2.336015456E-06  0.00000E+00  9.000E+00
#rwgt            1           1   5.0238903272570572E-002           6      258051           0
</event>
<event>
      5   9999  3.79277E-02  1.32794E+02 -1.00000E+00  1.18530E-01
      21    -1     0     0   502   501  0.000000000E+00  0.000000000E+00  2.481960659E+02  2.481960659E+02  0.000000000E+00  0.00000E+00  9.000E+00
      21    -1     0     0   501   511  0.000000000E+00  0.000000000E+00 -7.892156696E+02  7.892156696E+02  0.000000000E+00  0.00000E+00  9.000E+00
      25     1     1     2     0     0  9.990600002E+01  9.416704902E+00  1.858378116E+02  2.454191830E+02  1.250000000E+02  0.00000E+00  9.000E+00
      25     1     1     2     0     0 -4.050630991E+01  1.093518253E+02 -3.039352515E+02  3.487122308E+02  1.250000000E+02  0.00000E+00  9.000E+00
      21     1     1     2   502   511 -5.939969011E+01 -1.187685302E+02 -4.229221638E+02  4.432803217E+02  5.394796609E-06  0.00000E+00  9.000E+00
#rwgt            1           1   5.0773170788142065E-002           6      258162           0
</event>
<event>
      5   9999  3.79277E-02  6.53812E+01 -1.00000E+00  1.32740E-01
      21    -1     0     0   502   512  0.000000000E+00  0.000000000E+00  2.013952677E+02  2.013952677E+02  0.000000000E+00  0.00000E+00  9.000E+00
      21    -1     0     0   501   502  0.000000000E+00  0.000000000E+00 -2.702456074E+02  2.702456074E+02  0.000000000E+00  0.00000E+00  9.000E+00
      25     1     1     2     0     0  2.678072571E+01 -1.072657688E+02  7.096061052E+01  1.813382493E+02  1.250000000E+02  0.00000E+00  9.000E+00
      25     1     1     2     0     0  3.796741105E+01  1.163422276E+02 -1.413487487E+02  2.249033281E+02  1.250000000E+02  0.00000E+00  9.000E+00
      21     1     1     2   501   512 -6.474813676E+01 -9.076458814E+00  1.537798428E+00  6.539929772E+01  6.607115053E-07  0.00000E+00  9.000E+00
#rwgt            1           1   4.4245651804001807E-002           6      258406           0
</event>
<event>
      5   9999  3.79277E-02  4.56230E+01 -1.00000E+00  1.41384E-01
      21    -1     0     0   502   501  0.000000000E+00  0.000000000E+00  1.073605760E+02  1.073605760E+02  0.000000000E+00  0.00000E+00  9.000E+00
       2    -1     0     0   501     0  0.000000000E+00  0.000000000E+00 -1.633216986E+03  1.633216986E+03  0.000000000E+00  0.00000E+00  9.000E+00
      25     1     1     2     0     0  1.173472007E+00  4.848559552E+01  2.649929319E+01  1.366727572E+02  1.250000000E+02  0.00000E+00  9.000E+00
      25     1     1     2     0     0  2.614799479E+01 -8.502320775E+01 -2.063909040E+02  2.571670056E+02  1.250000000E+02  0.00000E+00  9.000E+00
       2     1     1     2   502     0 -2.732146680E+01  3.653761223E+01 -1.345964799E+03  1.346737799E+03  1.525878906E-05  0.00000E+00  9.000E+00
#rwgt            1           1   4.7668231973496192E-002           6      258504           0
</event>
<event>
      5   9999  3.79277E-02  5.31359E+01 -1.00000E+00  1.37585E-01
      21    -1     0     0   502   501  0.000000000E+00  0.000000000E+00  2.435499816E+02  2.435499816E+02  0.000000000E+00  0.00000E+00  9.000E+00
      21    -1     0     0   511   502  0.000000000E+00  0.000000000E+00 -2.028282220E+02  2.028282220E+02  0.000000000E+00  0.00000E+00  9.000E+00
      25     1     1     2     0     0 -9.082643660E+01  6.182299113E+01 -6.516617435E+01  1.787264784E+02  1.250000000E+02  0.00000E+00  9.000E+00
      25     1     1     2     0     0  3.823145747E+01 -5.426079947E+01  1.442719329E+02  2.021021260E+02  1.250000000E+02  0.00000E+00  9.000E+00
      21     1     1     2   511   501  5.259497913E+01 -7.562191656E+00 -3.838399900E+01  6.554959917E+01  1.066240300E-06  0.00000E+00  9.000E+00
#rwgt            1           1   3.5955806884083542E-002           6      258687           0
</event>
<event>
      5   9999  3.79277E-02  5.34817E+01 -1.00000E+00  1.37428E-01
       2    -1     0     0   502     0  0.000000000E+00  0.000000000E+00  4.526844023E+02  4.526844023E+02  0.000000000E+00  0.00000E+00  9.000E+00
      21    -1     0     0   501   502  0.000000000E+00  0.000000000E+00 -2.208446927E+02  2.208446927E+02  0.000000000E+00  0.00000E+00  9.000E+00
      25     1     1     2     0     0 -1.239879967E+02  1.382589721E+02 -2.806199823E+01  2.256125937E+02  1.250000000E+02  0.00000E+00  9.000E+00
      25     1     1     2     0     0  9.056029228E+01 -1.800067854E+02  6.508999937E+01  2.458969649E+02  1.250000000E+02  0.00000E+00  9.000E+00
       2     1     1     2   501     0  3.342770444E+01  4.174781334E+01  1.948117085E+02  2.020195364E+02  0.000000000E+00  0.00000E+00  9.000E+00
#rwgt            1           1   3.6617126431518814E-002           6      258840           0
</event>
<event>
      5   9999  3.79277E-02  1.53109E+02 -1.00000E+00  1.16042E-01
      21    -1     0     0   502   511  0.000000000E+00  0.000000000E+00  2.489572434E+02  2.489572434E+02  0.000000000E+00  0.00000E+00  9.000E+00
      21    -1     0     0   501   502  0.000000000E+00  0.000000000E+00 -1.775213143E+03  1.775213143E+03  0.000000000E+00  0.00000E+00  9.000E+00
      25     1     1     2     0     0  1.101613750E+02  4.264616628E+01 -1.426084333E+03  1.436417680E+03  1.250000000E+02  0.00000E+00  9.000E+00
      25     1     1     2     0     0  3.598075778E+01 -8.830665178E+01 -2.983974381E+02  3.372813525E+02  1.250000000E+02  0.00000E+00  9.000E+00
      21     1     1     2   501   511 -1.461421327E+02  4.566048550E+01  1.982258721E+02  2.504713542E+02  1.009274029E-05  0.00000E+00  9.000E+00
#rwgt            1           1   5.1887337663106575E-002           6      258933           0
</event>
<event>
      5   9999  3.79277E-02  7.38853E+01 -1.00000E+00  1.30043E-01
      -2    -1     0     0     0   501  0.000000000E+00  0.000000000E+00  5.484775019E+02  5.484775019E+02  0.000000000E+00  0.00000E+00  9.000E+00
      21    -1     0     0   501   502  0.000000000E+00  0.000000000E+00 -3.341497239E+02  3.341497239E+02  0.000000000E+00  0.00000E+00  9.000E+00
      25     1     1     2     0     0  1.224175337E+02 -2.054931833E+01 -2.229767066E+01  1.775683338E+02  1.250000000E+02  0.00000E+00  9.000E+00
      25     1     1     2     0     0 -7.368154373E+01  7.608169390E+01 -2.020935256E+02  2.601618480E+02  1.250000000E+02  0.00000E+00  9.000E+00
      -2     1     1     2     0   502 -4.873598997E+01 -5.553237557E+01  4.387189743E+02  4.448970441E+02  0.000000000E+00  0.00000E+00  9.000E+00
#rwgt            1           1   4.1985575819660260E-002           6      259071           0
</event>
<event>
      5   9999  3.79277E-02  1.89440E+01 -1.00000E+00  1.68337E-01
      21    -1     0     0   511   501  0.000000000E+00  0.000000000E+00  1.033682012E+02  1.033682012E+02  0.000000000E+00  0.00000E+00  9.000E+00
      21    -1     0     0   501   502  0.000000000E+00  0.000000000E+00 -5.838867299E+02  5.838867299E+02  0.000000000E+00  0.00000E+00  9.000E+00
      25     1     1     2     0     0 -9.249239547E+01 -1.126634115E+02 -4.394841177E+02  4.796031455E+02  1.250000000E+02  0.00000E+00  9.000E+00
      25     1     1     2     0     0  9.112778280E+01  9.376863414E+01 -2.456966029E+01  1.825527260E+02  1.250000000E+02  0.00000E+00  9.000E+00
      21     1     1     2   511   502  1.364612669E+00  1.889477733E+01 -1.646475070E+01  2.509905962E+01  0.000000000E+00  0.00000E+00  9.000E+00
#rwgt            1           1   4.1500928194124369E-002           6      259194           0
</event>
<event>
      5   9999  3.79277E-02  3.53891E+01 -1.00000E+00  1.48218E-01
      21    -1     0     0   502   501  0.000000000E+00  0.000000000E+00  3.921498946E+02  3.921498946E+02  0.000000000E+00  0.00000E+00  9.000E+00
      21    -1     0     0   501   512  0.000000000E+00  0.000000000E+00 -2.172888071E+02  2.172888071E+02  0.000000000E+00  0.00000E+00  9.000E+00
      25     1     1     2     0     0 -5.920686123E+01 -8.639123436E+01  2.533013454E+02  3.012564844E+02  1.250000000E+02  0.00000E+00  9.000E+00
      25     1     1     2     0     0  8.797907728E+01  1.069958706E+02  3.457119930E+01  1.897593270E+02  1.250000000E+02  0.00000E+00  9.000E+00
      21     1     1     2   502   512 -2.877221605E+01 -2.060463627E+01 -1.130114572E+02  1.184228902E+02  0.000000000E+00  0.00000E+00  9.000E+00
#rwgt            1           1   3.7481723011059238E-002           6      259422           0
</event>
<event>
      5   9999  3.79277E-02  2.41385E+01 -1.00000E+00  1.59900E-01
      21    -1     0     0   502   501  0.000000000E+00  0.000000000E+00  5.771125586E+02  5.771125586E+02  0.000000000E+00  0.00000E+00  9.000E+00
      21    -1     0     0   511   502  0.000000000E+00  0.000000000E+00 -2.117033958E+02  2.117033958E+02  0.000000000E+00  0.00000E+00  9.000E+00
      25     1     1     2     0     0 -3.496211076E+01 -2.972799073E+02  2.311270066E+02  3.982993669E+02  1.250000000E+02  0.00000E+00  9.000E+00
      25     1     1     2     0     0  5.179415322E+01  3.145816563E+02  1.278725745E+02  3.655415819E+02  1.250000000E+02  0.00000E+00  9.000E+00
      21     1     1     2   511   501 -1.683204246E+01 -1.730174895E+01  6.409581786E+00  2.497500568E+01  2.920019320E-07  0.00000E+00  9.000E+00
#rwgt            1           1   4.4143738001762474E-002           6      259528           0
</event>
<event>
      5   9999  3.79277E-02  2.10702E+01 -1.00000E+00  1.64523E-01
      21    -1     0     0   502   512  0.000000000E+00  0.000000000E+00  4.179945707E+01  4.179945707E+01  0.000000000E+00  0.00000E+00  9.000E+00
      21    -1     0     0   501   502  0.000000000E+00  0.000000000E+00 -1.046197910E+03  1.046197910E+03  0.000000000E+00  0.00000E+00  9.000E+00
      25     1     1     2     0     0 -9.231876460E+01  7.741847699E+01 -4.373597050E+02  4.705580585E+02  1.250000000E+02  0.00000E+00  9.000E+00
      25     1     1     2     0     0  1.089516123E+02 -9.035302293E+01 -5.656333905E+02  5.963222745E+02  1.250000000E+02  0.00000E+00  9.000E+00
      21     1     1     2   501   512 -1.663284768E+01  1.293454594E+01 -1.405357467E+00  2.111703413E+01  5.557553827E-07  0.00000E+00  9.000E+00
#rwgt            1           1   3.5565971235182209E-002           6      259685           0
</event>
<event>
      5   9999  4.37310E-02  5.55904E+02 -1.00000E+00  9.75617E-02
      21    -1     0     0   502   501  0.000000000E+00  0.000000000E+00  8.888979797E+02  8.888979797E+02  0.000000000E+00  0.00000E+00  9.000E+00
      21    -1     0     0   511   502  0.000000000E+00  0.000000000E+00 -1.630298590E+03  1.630298590E+03  0.000000000E+00  0.00000E+00  9.000E+00
      25     1     1     2     0     0 -4.985441531E+02 -1.169304087E+02  1.546267498E+02  5.493208760E+02  1.250000000E+02  0.00000E+00  9.000E+00
      25     1     1     2     0     0  3.317223011E+00  3.694776119E+02  4.005830394E+02  5.591211685E+02  1.250000000E+02  0.00000E+00  9.000E+00
      21     1     1     2   511   501  4.952269301E+02 -2.525472032E+02 -1.296610400E+03  1.410754526E+03  0.000000000E+00  0.00000E+00  9.000E+00
#rwgt            1           1  0.40925489796423548                6      259813           0
</event>
<event>
      5   9999  3.79277E-02  2.10623E+02 -1.00000E+00  1.10836E-01
       1    -1     0     0   502     0  0.000000000E+00  0.000000000E+00  9.551811351E+02  9.551811351E+02  0.000000000E+00  0.00000E+00  9.000E+00
      21    -1     0     0   501   502  0.000000000E+00  0.000000000E+00 -3.437550532E+02  3.437550532E+02  0.000000000E+00  0.00000E+00  9.000E+00
      25     1     1     2     0     0 -2.582282758E+02 -6.971737311E+01  4.089499343E+02  5.043881475E+02  1.250000000E+02  0.00000E+00  9.000E+00
      25     1     1     2     0     0  2.825654688E+02 -1.394947425E+02 -1.603499141E+02  3.750188292E+02  1.250000000E+02  0.00000E+00  9.000E+00
       1     1     1     2   501     0 -2.433719295E+01  2.092121156E+02  3.628260617E+02  4.195292115E+02  0.000000000E+00  0.00000E+00  9.000E+00
#rwgt            1           1   4.4755311923379039E-002           6      259996           0
</event>
<event>
      5   9999  3.79277E-02  7.76850E+01 -1.00000E+00  1.28970E-01
      21    -1     0     0   502   501  0.000000000E+00  0.000000000E+00  7.682606513E+02  7.682606513E+02  0.000000000E+00  0.00000E+00  9.000E+00
      21    -1     0     0   501   511  0.000000000E+00  0.000000000E+00 -4.187424823E+02  4.187424823E+02  0.000000000E+00  0.00000E+00  9.000E+00
      25     1     1     2     0     0  1.404084067E+02 -3.400028226E+02  4.939417184E+02  6.284264963E+02  1.250000000E+02  0.00000E+00  9.000E+00
      25     1     1     2     0     0 -1.918920556E+02  3.981783687E+02 -1.038467108E+02  4.709328122E+02  1.250000000E+02  0.00000E+00  9.000E+00
      21     1     1     2   502   511  5.148364894E+01 -5.817554603E+01 -4.057683849E+01  8.764382514E+01  8.259061849E-07  0.00000E+00  9.000E+00
#rwgt            1           1   7.6571068459387964E-002           6      260232           0
</event>
<event>
      5   9999  3.79277E-02  3.23265E+01 -1.00000E+00  1.50820E-01
      21    -1     0     0   512   501  0.000000000E+00  0.000000000E+00  1.987633224E+02  1.987633224E+02  0.000000000E+00  0.00000E+00  9.000E+00
      21    -1     0     0   501   502  0.000000000E+00  0.000000000E+00 -2.609267117E+02  2.609267117E+02  0.000000000E+00  0.00000E+00  9.000E+00
      25     1     1     2     0     0  9.705121775E+01  1.257590492E+00  1.110716628E+02  1.933453767E+02  1.250000000E+02  0.00000E+00  9.000E+00
      25     1     1     2     0     0 -6.749199347E+01  1.182895718E+01 -1.835594204E+02  2.324094538E+02  1.250000000E+02  0.00000E+00  9.000E+00
      21     1     1     2   512   502 -2.955922428E+01 -1.308654767E+01  1.032436829E+01  3.393520371E+01  7.052516679E-07  0.00000E+00  9.000E+00
#rwgt            1           1   4.2251615199408676E-002           6      260453           0
</event>
<event>
      5   9999  3.79277E-02  1.74280E+01 -1.00000E+00  1.71457E-01
      21    -1     0     0   511   501  0.000000000E+00  0.000000000E+00  6.808937851E+02  6.808937851E+02  0.000000000E+00  0.00000E+00  9.000E+00
      21    -1     0     0   501   502  0.000000000E+00  0.000000000E+00 -6.469418726E+01  6.469418726E+01  0.000000000E+00  0.00000E+00  9.000E+00
      25     1     1     2     0     0  2.359199294E+01 -5.998271588E+01  3.512523286E+01  1.449596162E+02  1.250000000E+02  0.00000E+00  9.000E+00
      25     1     1     2     0     0 -1.301427470E+01  4.613177778E+01  5.306620754E+02  5.472885441E+02  1.250000000E+02  0.00000E+00  9.000E+00
      21     1     1     2   511   502 -1.057771824E+01  1.385093810E+01  5.041228957E+01  5.333981205E+01  6.743495762E-07  0.00000E+00  9.000E+00
#rwgt            1           1   4.9395428753987426E-002           6      260583           0
</event>
<event>
      5   9999  3.79277E-02  1.50076E+01 -1.00000E+00  1.77363E-01
      21    -1     0     0   502   501  0.000000000E+00  0.000000000E+00  9.295220639E+02  9.295220639E+02  0.000000000E+00  0.00000E+00  9.000E+00
      21    -1     0     0   512   502  0.000000000E+00  0.000000000E+00 -5.605560598E+01  5.605560598E+01  0.000000000E+00  0.00000E+00  9.000E+00
      25     1     1     2     0     0 -4.747517880E+01  1.683125959E+02  4.211339360E+02  4.728232382E+02  1.250000000E+02  0.00000E+00  9.000E+00
      25     1     1     2     0     0  4.564748280E+01 -1.832084592E+02  4.262488041E+02  4.826614499E+02  1.250000000E+02  0.00000E+00  9.000E+00
      21     1     1     2   512   501  1.827696001E+00  1.489586333E+01  2.608371779E+01  3.009298175E+01  0.000000000E+00  0.00000E+00  9.000E+00
#rwgt            1           1   3.3700081500875265E-002           6      260777           0
</event>
<event>
      5   9999  3.79277E-02  2.68517E+01 -1.00000E+00  1.56461E-01
      21    -1     0     0   502   511  0.000000000E+00  0.000000000E+00  2.264488902E+03  2.264488902E+03  0.000000000E+00  0.00000E+00  9.000E+00
      21    -1     0     0   501   502  0.000000000E+00  0.000000000E+00 -4.263398074E+01  4.263398074E+01  0.000000000E+00  0.00000E+00  9.000E+00
      25     1     1     2     0     0 -1.478025043E+02  7.164652593E+01  6.648938059E+02  6.961950719E+02  1.250000000E+02  0.00000E+00  9.000E+00
      25     1     1     2     0     0  1.279323226E+02 -8.970729913E+01  3.461843036E+02  3.998532866E+02  1.250000000E+02  0.00000E+00  9.000E+00
      21     1     1     2   501   511  1.987018171E+01  1.806077320E+01  1.210776811E+03  1.211074524E+03  0.000000000E+00  0.00000E+00  9.000E+00
#rwgt            1           1   2.1387629249115560E-002           6      261052           0
</event>
<event>
      5   9999  3.79277E-02  2.46596E+02 -1.00000E+00  1.08434E-01
      21    -1     0     0   512   501  0.000000000E+00  0.000000000E+00  1.747285608E+03  1.747285608E+03  0.000000000E+00  0.00000E+00  9.000E+00
      21    -1     0     0   501   502  0.000000000E+00  0.000000000E+00 -2.969356649E+02  2.969356649E+02  0.000000000E+00  0.00000E+00  9.000E+00
      25     1     1     2     0     0  1.295271102E+02  1.719979296E+01 -4.113884623E+01  1.854467844E+02  1.250000000E+02  0.00000E+00  9.000E+00
      25     1     1     2     0     0 -3.675151774E+02  4.738588220E+01  4.757618506E+01  3.939559885E+02  1.250000000E+02  0.00000E+00  9.000E+00
      21     1     1     2   512   502  2.379880672E+02 -6.458567516E+01  1.443912604E+03  1.464818500E+03  1.525878906E-05  0.00000E+00  9.000E+00
#rwgt            2          11   7.3198934973435915E-004           6      261224           0
</event>
<event>
      5   9999  3.79277E-02  4.97107E+01 -1.00000E+00  1.39219E-01
      21    -1     0     0   502   501  0.000000000E+00  0.000000000E+00  1.089761550E+03  1.089761550E+03  0.000000000E+00  0.00000E+00  9.000E+00
      21    -1     0     0   501   511  0.000000000E+00  0.000000000E+00 -1.325408232E+02  1.325408232E+02  0.000000000E+00  0.00000E+00  9.000E+00
      25     1     1     2     0     0 -4.499781968E+01  8.491190189E+01  8.107463119E+02  8.259354800E+02  1.250000000E+02  0.00000E+00  9.000E+00
      25     1     1     2     0     0  7.081393550E+01 -1.273934885E+02  2.297254324E+02  2.994035549E+02  1.250000000E+02  0.00000E+00  9.000E+00
      21     1     1     2   502   511 -2.581611582E+01  4.248158658E+01 -8.325101757E+01  9.696333823E+01  3.438521648E-06  0.00000E+00  9.000E+00
#rwgt            1           1   2.6934954684366890E-002           6      261259           0
</event>
<event>
      5   9999  3.79277E-02  1.61858E+01 -1.00000E+00  1.74326E-01
      21    -1     0     0   502   501  0.000000000E+00  0.000000000E+00  1.274453874E+02  1.274453874E+02  0.000000000E+00  0.00000E+00  9.000E+00
      21    -1     0     0   501   512  0.000000000E+00  0.000000000E+00 -7.063848176E+02  7.063848176E+02  0.000000000E+00  0.00000E+00  9.000E+00
      25     1     1     2     0     0 -1.964826747E+02  6.527643546E+01 -5.567701006E+01  2.481761148E+02  1.250000000E+02  0.00000E+00  9.000E+00
      25     1     1     2     0     0  2.049407209E+02 -5.147641403E+01 -4.741246402E+02  5.339191837E+02  1.250000000E+02  0.00000E+00  9.000E+00
      21     1     1     2   502   512 -8.458046215E+00 -1.380002142E+01 -4.913777990E+01  5.173490650E+01  6.743495762E-07  0.00000E+00  9.000E+00
#rwgt            1           1   3.8245756586790164E-002           6      261376           0
</event>
<event>
      5   9999  3.79277E-02  6.61292E+00 -1.00000E+00  2.19106E-01
      21    -1     0     0   502   501  0.000000000E+00  0.000000000E+00  9.060490265E+01  9.060490265E+01  0.000000000E+00  0.00000E+00  9.000E+00
      21    -1     0     0   511   502  0.000000000E+00  0.000000000E+00 -1.123316575E+03  1.123316575E+03  0.000000000E+00  0.00000E+00  9.000E+00
      25     1     1     2     0     0 -1.987188517E+02 -8.728756046E+01 -3.157216562E+02  4.030055389E+02  1.250000000E+02  0.00000E+00  9.000E+00
      25     1     1     2     0     0  2.053244474E+02  8.759866048E+01 -3.017070773E+02  3.955803515E+02  1.250000000E+02  0.00000E+00  9.000E+00
      21     1     1     2   511   501 -6.605595725E+00 -3.111000225E-01 -4.152829391E+02  4.153355875E+02  9.344061824E-06  0.00000E+00  9.000E+00
#rwgt            1           1   4.5477765958341389E-002           6      261617           0
</event>
<event>
      5   9999  3.79277E-02  4.56086E+01 -1.00000E+00  1.41392E-01
      21    -1     0     0   512   501  0.000000000E+00  0.000000000E+00  1.717691389E+02  1.717691389E+02  0.000000000E+00  0.00000E+00  9.000E+00
      21    -1     0     0   501   502  0.000000000E+00  0.000000000E+00 -4.305685107E+02  4.305685107E+02  0.000000000E+00  0.00000E+00  9.000E+00
      25     1     1     2     0     0  1.235328180E+01  8.527730458E+01 -2.839876373E+02  3.220229811E+02  1.250000000E+02  0.00000E+00  9.000E+00
      25     1     1     2     0     0 -4.148604489E+01 -1.203690497E+02 -5.616040934E+01  1.870529113E+02  1.250000000E+02  0.00000E+00  9.000E+00
      21     1     1     2   512   502  2.913276309E+01  3.509174514E+01  8.134867475E+01  9.326175715E+01  9.536743164E-07  0.00000E+00  9.000E+00
#rwgt            1           1   3.9411909923214548E-002           6      262141           0
</event>
<event>
      5   9999  3.79277E-02  3.71328E+01 -1.00000E+00  1.46872E-01
      21    -1     0     0   502   511  0.000000000E+00  0.000000000E+00  1.509449592E+02  1.509449592E+02  0.000000000E+00  0.00000E+00  9.000E+00
      21    -1     0     0   501   502  0.000000000E+00  0.000000000E+00 -4.655141178E+02  4.655141178E+02  0.000000000E+00  0.00000E+00  9.000E+00
      25     1     1     2     0     0  9.732933373E+01  2.806310404E+01  5.634958619E+01  1.704723229E+02  1.250000000E+02  0.00000E+00  9.000E+00
      25     1     1     2     0     0 -1.316054770E+02 -4.234572614E+01 -3.629501211E+02  4.080085202E+02  1.250000000E+02  0.00000E+00  9.000E+00
      21     1     1     2   501   511  3.427614323E+01  1.428262211E+01 -7.968623693E+00  3.797823393E+01  4.129530925E-07  0.00000E+00  9.000E+00
#rwgt            1           1   2.6173050951509201E-002           6      262234           0
</event>
<event>
      5   9999  3.79277E-02  1.58678E+01 -1.00000E+00  1.75113E-01
      21    -1     0     0   502   501  0.000000000E+00  0.000000000E+00  1.262400277E+02  1.262400277E+02  0.000000000E+00  0.00000E+00  9.000E+00
      21    -1     0     0   501   512  0.000000000E+00  0.000000000E+00 -6.056109565E+02  6.056109565E+02  0.000000000E+00  0.00000E+00  9.000E+00
      25     1     1     2     0     0 -1.895027287E+02 -1.442173424E+01 -3.406100233E+01  2.300096139E+02  1.250000000E+02  0.00000E+00  9.000E+00
      25     1     1     2     0     0  1.750352602E+02  7.904000400E+00 -4.078078109E+02  4.611204031E+02  1.250000000E+02  0.00000E+00  9.000E+00
      21     1     1     2   502   512  1.446746850E+01  6.517733841E+00 -3.750211555E+01  4.072096720E+01  0.000000000E+00  0.00000E+00  9.000E+00
#rwgt            1           1   4.5662434534617345E-002           6      262447           0
</event>
<event>
      5   9999  3.79277E-02  4.41744E+01 -1.00000E+00  1.42216E-01
      21    -1     0     0   511   501  0.000000000E+00  0.000000000E+00  3.279115625E+02  3.279115625E+02  0.000000000E+00  0.00000E+00  9.000E+00
      21    -1     0     0   501   502  0.000000000E+00  0.000000000E+00 -3.069823198E+02  3.069823198E+02  0.000000000E+00  0.00000E+00  9.000E+00
      25     1     1     2     0     0 -1.742279054E+02 -3.046034415E+01  9.623629483E+01  2.370013081E+02  1.250000000E+02  0.00000E+00  9.000E+00
      25     1     1     2     0     0  1.359479733E+02  8.414450280E+00 -1.959624809E+02  2.694048038E+02  1.250000000E+02  0.00000E+00  9.000E+00
      21     1     1     2   511   502  3.827993218E+01  2.204589387E+01  1.206554287E+02  1.284877704E+02  1.348699152E-06  0.00000E+00  9.000E+00
#rwgt            1           1   4.3507065802532087E-002           6      262715           0
</event>
<event>
      5   9999  3.79277E-02  3.56821E+01 -1.00000E+00  1.47986E-01
      21    -1     0     0   502   501  0.000000000E+00  0.000000000E+00  3.535749857E+02  3.535749857E+02  0.000000000E+00  0.00000E+00  9.000E+00
      21    -1     0     0   512   502  0.000000000E+00  0.000000000E+00 -1.748474881E+02  1.748474881E+02  0.000000000E+00  0.00000E+00  9.000E+00
      25     1     1     2     0     0  1.182243015E+02 -5.409685398E+01  2.047344526E+02  2.728454712E+02  1.250000000E+02  0.00000E+00  9.000E+00
      25     1     1     2     0     0 -1.355447752E+02  2.290051345E+01  3.095542084E+01  1.883615080E+02  1.250000000E+02  0.00000E+00  9.000E+00
      21     1     1     2   512   501  1.732047371E+01  3.119634053E+01 -5.696237577E+01  6.721549469E+01  1.507891493E-06  0.00000E+00  9.000E+00
#rwgt            1           1   3.8056989518892720E-002           6      262918           0
</event>
<event>
      5   9999  3.79277E-02  1.61858E+01 -1.00000E+00  1.74326E-01
      21    -1     0     0   502   501  0.000000000E+00  0.000000000E+00  3.388606702E+02  3.388606702E+02  0.000000000E+00  0.00000E+00  9.000E+00
      21    -1     0     0   511   502  0.000000000E+00  0.000000000E+00 -2.976796290E+02  2.976796290E+02  0.000000000E+00  0.00000E+00  9.000E+00
      25     1     1     2     0     0 -2.680398603E+01 -2.184340002E+02 -1.593950615E+02  2.991047505E+02  1.250000000E+02  0.00000E+00  9.000E+00
      25     1     1     2     0     0  1.063028718E+01  2.178072113E+02  2.000444527E+02  3.212409802E+02  1.250000000E+02  0.00000E+00  9.000E+00
      21     1     1     2   511   501  1.617369885E+01  6.267888368E-01  5.316501097E-01  1.619456855E+01  2.770774660E-07  0.00000E+00  9.000E+00
#rwgt            1           1   3.8586376160974330E-002           6      263088           0
</event>
<event>
      5   9999  3.79277E-02  4.99797E+01 -1.00000E+00  1.39086E-01
      21    -1     0     0   502   501  0.000000000E+00  0.000000000E+00  6.763101428E+02  6.763101428E+02  0.000000000E+00  0.00000E+00  9.000E+00
      21    -1     0     0   512   502  0.000000000E+00  0.000000000E+00 -6.868127633E+02  6.868127633E+02  0.000000000E+00  0.00000E+00  9.000E+00
      25     1     1     2     0     0 -4.006349956E+02  3.718914113E+02 -3.156880298E+02  6.435025670E+02  1.250000000E+02  0.00000E+00  9.000E+00
      25     1     1     2     0     0  3.817277296E+02 -4.181568425E+02  3.263347947E+02  6.653499851E+02  1.250000000E+02  0.00000E+00  9.000E+00
      21     1     1     2   512   501  1.890726598E+01  4.626543115E+01 -2.114938543E+01  5.427035407E+01  4.129530925E-07  0.00000E+00  9.000E+00
#rwgt            1           1   3.3311284076776665E-002           6      263256           0
</event>
<event>
      5   9999  3.79277E-02  3.30907E+02 -1.00000E+00  1.04227E-01
       2    -1     0     0   502     0  0.000000000E+00  0.000000000E+00  1.383509082E+03  1.383509082E+03  0.000000000E+00  0.00000E+00  9.000E+00
      21    -1     0     0   501   502  0.000000000E+00  0.000000000E+00 -2.068754270E+02  2.068754270E+02  0.000000000E+00  0.00000E+00  9.000E+00
      25     1     1     2     0     0 -1.456187414E+02 -1.515220248E+02  3.981933315E+02  4.672757977E+02  1.250000000E+02  0.00000E+00  9.000E+00
      25     1     1     2     0     0 -1.836649569E+02  1.842614457E+02  1.268443461E+01  2.889134674E+02  1.250000000E+02  0.00000E+00  9.000E+00
       2     1     1     2   501     0  3.292836982E+02 -3.273942091E+01  7.657558892E+02  8.341952442E+02  1.078959322E-05  0.00000E+00  9.000E+00
#rwgt            2          18   3.9210367838025533E-004           6      263343           0
</event>
<event>
      5   9999  3.79277E-02  2.00933E+02 -1.00000E+00  1.11575E-01
      21    -1     0     0   502   501  0.000000000E+00  0.000000000E+00  4.424091146E+02  4.424091146E+02  0.000000000E+00  0.00000E+00  9.000E+00
      21    -1     0     0   511   502  0.000000000E+00  0.000000000E+00 -3.591138629E+02  3.591138629E+02  0.000000000E+00  0.00000E+00  9.000E+00
      25     1     1     2     0     0 -4.655316477E+01  2.922134937E+02 -2.021237134E+00  3.212242339E+02  1.250000000E+02  0.00000E+00  9.000E+00
      25     1     1     2     0     0 -1.320983796E+02 -2.002472685E+02  6.597992344E+01  2.784372474E+02  1.250000000E+02  0.00000E+00  9.000E+00
      21     1     1     2   511   501  1.786515443E+02 -9.196622524E+01  1.933656538E+01  2.018614962E+02  1.039242493E-06  0.00000E+00  9.000E+00
#rwgt            1           1   2.2253522192876674E-002           6      263437           0
</event>
<event>
      5   9999  3.79277E-02  1.18334E+02 -1.00000E+00  1.20627E-01
      21    -1     0     0   502   512  0.000000000E+00  0.000000000E+00  7.087686043E+02  7.087686043E+02  0.000000000E+00  0.00000E+00  9.000E+00
      21    -1     0     0   501   502  0.000000000E+00  0.000000000E+00 -7.226736335E+02  7.226736335E+02  0.000000000E+00  0.00000E+00  9.000E+00
      25     1     1     2     0     0 -2.669208769E+02 -2.825035314E-01 -3.474003310E+02  4.555862424E+02  1.250000000E+02  0.00000E+00  9.000E+00
      25     1     1     2     0     0  2.001754980E+02 -9.743167063E+01 -2.636996427E+02  3.670499448E+02  1.250000000E+02  0.00000E+00  9.000E+00
      21     1     1     2   501   512  6.674537890E+01  9.771417416E+01  5.971949445E+02  6.088060505E+02  0.000000000E+00  0.00000E+00  9.000E+00
#rwgt            1           1   3.4414673083726734E-002           6      263556           0
</event>
<event>
      5   9999  3.79277E-02  6.84369E+01 -1.00000E+00  1.31719E-01
      21    -1     0     0   502   501  0.000000000E+00  0.000000000E+00  2.405118601E+02  2.405118601E+02  0.000000000E+00  0.00000E+00  9.000E+00
      21    -1     0     0   501   511  0.000000000E+00  0.000000000E+00 -2.497011378E+02  2.497011378E+02  0.000000000E+00  0.00000E+00  9.000E+00
      25     1     1     2     0     0  6.338258426E+01  2.900150759E+01  1.520989722E+02  2.088481189E+02  1.250000000E+02  0.00000E+00  9.000E+00
      25     1     1     2     0     0 -9.848627880E+01  2.974655912E+01 -1.188919674E+02  2.008599134E+02  1.250000000E+02  0.00000E+00  9.000E+00
      21     1     1     2   502   511  3.510369454E+01 -5.874806671E+01 -4.239628254E+01  8.050496559E+01  6.743495762E-07  0.00000E+00  9.000E+00
#rwgt            1           1   4.6797164921152719E-002           6      263635           0
</event>
<event>
      5   9999  3.79277E-02  6.62753E+00 -1.00000E+00  2.18966E-01
      21    -1     0     0   512   501  0.000000000E+00  0.000000000E+00  5.098735087E+01  5.098735087E+01  0.000000000E+00  0.00000E+00  9.000E+00
      21    -1     0     0   501   502  0.000000000E+00  0.000000000E+00 -1.371987552E+03  1.371987552E+03  0.000000000E+00  0.00000E+00  9.000E+00
      25     1     1     2     0     0 -1.449152910E+01  1.769528436E+02 -1.042040125E+03  1.064422348E+03  1.250000000E+02  0.00000E+00  9.000E+00
      25     1     1     2     0     0  7.995198631E+00 -1.782650116E+02 -2.647287967E+02  3.428537201E+02  1.250000000E+02  0.00000E+00  9.000E+00
      21     1     1     2   512   502  6.496330473E+00  1.312168014E+00 -1.423127997E+01  1.569883512E+01  1.685873940E-07  0.00000E+00  9.000E+00
#rwgt            1           1   4.1917568093692445E-002           6      263709           0
</event>
<event>
      5   9999  3.79277E-02  2.95803E+01 -1.00000E+00  1.53466E-01
      21    -1     0     0   511   501  0.000000000E+00  0.000000000E+00  4.824421889E+02  4.824421889E+02  0.000000000E+00  0.00000E+00  9.000E+00
      21    -1     0     0   501   502  0.000000000E+00  0.000000000E+00 -2.485779330E+02  2.485779330E+02  0.000000000E+00  0.00000E+00  9.000E+00
      25     1     1     2     0     0 -1.804839414E+02 -1.400276992E+02 -1.054297288E+02  2.809317308E+02  1.250000000E+02  0.00000E+00  9.000E+00
      25     1     1     2     0     0  1.971159513E+02  1.155660819E+02  2.720459043E+02  3.766220805E+02  1.250000000E+02  0.00000E+00  9.000E+00
      21     1     1     2   511   502 -1.663200981E+01  2.446161729E+01  6.724808040E+01  7.346631057E+01  9.536743164E-07  0.00000E+00  9.000E+00
#rwgt            1           1   3.2719971605497299E-002           6      264030           0
</event>
<event>
      5   9999 -4.17903E-02  2.12988E+01 -1.00000E+00  1.64146E-01
      21    -1     0     0   502   501  0.000000000E+00  0.000000000E+00  3.224654025E+02  3.224654025E+02  0.000000000E+00  0.00000E+00  9.000E+00
      21    -1     0     0   512   502  0.000000000E+00  0.000000000E+00 -3.044187894E+02  3.044187894E+02  0.000000000E+00  0.00000E+00  9.000E+00
      25     1     1     2     0     0 -8.143101051E+00  1.888012284E+02 -1.153922270E+01  2.268708170E+02  1.250000000E+02  0.00000E+00  9.000E+00
      25     1     1     2     0     0  1.965076028E+01 -1.708788759E+02  1.611125563E+02  2.667733091E+02  1.250000000E+02  0.00000E+00  9.000E+00
      21     1     1     2   512   501 -1.150765923E+01 -1.792235251E+01 -1.315267205E+02  1.332400659E+02  1.907348633E-06  0.00000E+00  9.000E+00
#rwgt            1           1 -0.27558944911744049                6      264361           0
</event>
<event>
      5   9999  3.79277E-02  3.78277E+01 -1.00000E+00  1.46360E-01
      21    -1     0     0   502   511  0.000000000E+00  0.000000000E+00  1.656804488E+03  1.656804488E+03  0.000000000E+00  0.00000E+00  9.000E+00
      21    -1     0     0   501   502  0.000000000E+00  0.000000000E+00 -6.569397309E+01  6.569397309E+01  0.000000000E+00  0.00000E+00  9.000E+00
      25     1     1     2     0     0 -5.871390203E+01 -1.164174686E+02  4.924170906E+02  5.244997048E+02  1.250000000E+02  0.00000E+00  9.000E+00
      25     1     1     2     0     0  9.491536656E+01  1.273895970E+02  1.580542299E+02  2.565992514E+02  1.250000000E+02  0.00000E+00  9.000E+00
      21     1     1     2   501   511 -3.620146452E+01 -1.097212840E+01  9.406391947E+02  9.413995051E+02  1.078959322E-05  0.00000E+00  9.000E+00
#rwgt            1           1   4.4712756031453957E-002           6      264520           0
</event>
<event>
      5   9999  3.79277E-02  3.57215E+01 -1.00000E+00  1.47954E-01
      -3    -1     0     0     0   501  0.000000000E+00  0.000000000E+00  1.095068564E+03  1.095068564E+03  0.000000000E+00  0.00000E+00  9.000E+00
      21    -1     0     0   501   502  0.000000000E+00  0.000000000E+00 -5.340097409E+01  5.340097409E+01  0.000000000E+00  0.00000E+00  9.000E+00
      25     1     1     2     0     0  1.699268815E+02 -6.080239893E+01  3.549236242E+02  4.173342255E+02  1.250000000E+02  0.00000E+00  9.000E+00
      25     1     1     2     0     0 -1.486245687E+02  8.947711262E+01  5.592914370E+02  5.987715153E+02  1.250000000E+02  0.00000E+00  9.000E+00
      -3     1     1     2     0   502 -2.130231281E+01 -2.867471368E+01  1.274525287E+02  1.323637972E+02  2.336015456E-06  0.00000E+00  9.000E+00
#rwgt            1           1   2.2444405456734238E-002           6      264673           0
</event>
<event>
      5   9999  3.79277E-02  9.86613E+01 -1.00000E+00  1.24092E-01
      21    -1     0     0   511   501  0.000000000E+00  0.000000000E+00  4.006991928E+01  4.006991928E+01  0.000000000E+00  0.00000E+00  9.000E+00
      21    -1     0     0   501   502  0.000000000E+00  0.000000000E+00 -1.436923634E+03  1.436923634E+03  0.000000000E+00  0.00000E+00  9.000E+00
      25     1     1     2     0     0 -2.247336036E+01 -1.641077537E+02 -5.637253338E+02  6.007059670E+02  1.250000000E+02  0.00000E+00  9.000E+00
      25     1     1     2     0     0 -5.585359333E+01  1.041166524E+02 -5.640000878E+02  5.896448085E+02  1.250000000E+02  0.00000E+00  9.000E+00
      21     1     1     2   511   502  7.832695368E+01  5.999110131E+01 -2.691282930E+02  2.866427777E+02  0.000000000E+00  0.00000E+00  9.000E+00
#rwgt            1           1   3.5494034987567924E-002           6      264806           0
</event>
<event>
      5   9999  3.79277E-02  2.59073E+01 -1.00000E+00  1.57600E-01
      -3    -1     0     0     0   501  0.000000000E+00  0.000000000E+00  1.400478962E+03  1.400478962E+03  0.000000000E+00  0.00000E+00  9.000E+00
      21    -1     0     0   501   502  0.000000000E+00  0.000000000E+00 -1.317583593E+02  1.317583593E+02  0.000000000E+00  0.00000E+00  9.000E+00
      25     1     1     2     0     0 -4.560551421E+00  8.917936796E+01  1.670490750E+02  2.269452616E+02  1.250000000E+02  0.00000E+00  9.000E+00
      25     1     1     2     0     0  2.504252438E+01 -7.331496512E+01 -4.848153437E+01  1.548472515E+02  1.250000000E+02  0.00000E+00  9.000E+00
      -3     1     1     2     0   502 -2.048197295E+01 -1.586440284E+01  1.150153062E+03  1.150444808E+03  1.525878906E-05  0.00000E+00  9.000E+00
#rwgt            1           1   4.4402281099457590E-002           6      264890           0
</event>
<event>
      5   9999  3.79277E-02  1.75431E+02 -1.00000E+00  1.13760E-01
      21    -1     0     0   511   501  0.000000000E+00  0.000000000E+00  7.160477503E+02  7.160477503E+02  0.000000000E+00  0.00000E+00  9.000E+00
      21    -1     0     0   501   502  0.000000000E+00  0.000000000E+00 -4.061050258E+02  4.061050258E+02  0.000000000E+00  0.00000E+00  9.000E+00
      25     1     1     2     0     0  9.323830140E+01  5.176306420E+01 -3.503921572E+02  3.870044696E+02  1.250000000E+02  0.00000E+00  9.000E+00
      25     1     1     2     0     0  3.069591563E+01  7.239970385E+01  3.029440526E+02  3.370223366E+02  1.250000000E+02  0.00000E+00  9.000E+00
      21     1     1     2   511   502 -1.239342170E+02 -1.241627681E+02  3.573908292E+02  3.981259699E+02  3.814697266E-06  0.00000E+00  9.000E+00
#rwgt            1           1   4.3626157358984820E-002           6      265002           0
</event>
<event>
      5   9999  3.79277E-02  1.22977E+02 -1.00000E+00  1.19918E-01
      21    -1     0     0   512   501  0.000000000E+00  0.000000000E+00  1.287103540E+02  1.287103540E+02  0.000000000E+00  0.00000E+00  9.000E+00
      21    -1     0     0   501   502  0.000000000E+00  0.000000000E+00 -7.968248280E+02  7.968248280E+02  0.000000000E+00  0.00000E+00  9.000E+00
      25     1     1     2     0     0  1.102062216E+02  4.585688389E+01 -3.223597655E+02  3.657719009E+02  1.250000000E+02  0.00000E+00  9.000E+00
      25     1     1     2     0     0 -1.531970305E+02 -1.610747007E+02 -3.542419585E+02  4.364937050E+02  1.250000000E+02  0.00000E+00  9.000E+00
      21     1     1     2   512   502  4.299080889E+01  1.152178169E+02  8.487250034E+00  1.232695761E+02  9.684608465E-07  0.00000E+00  9.000E+00
#rwgt            2          11   2.1904713020835104E-003           6      265108           0
</event>
<event>
      5   9999  3.79277E-02  5.30413E+01 -1.00000E+00  1.37628E-01
      21    -1     0     0   502   501  0.000000000E+00  0.000000000E+00  6.541089444E+02  6.541089444E+02  0.000000000E+00  0.00000E+00  9.000E+00
      21    -1     0     0   501   511  0.000000000E+00  0.000000000E+00 -2.624460697E+02  2.624460697E+02  0.000000000E+00  0.00000E+00  9.000E+00
      25     1     1     2     0     0 -1.677341560E+02  1.348963886E+02  1.744007580E+02  3.039282927E+02  1.250000000E+02  0.00000E+00  9.000E+00
      25     1     1     2     0     0  2.207749793E+02 -1.346683637E+02  3.598876342E+02  4.604576733E+02  1.250000000E+02  0.00000E+00  9.000E+00
      21     1     1     2   502   511 -5.304082329E+01 -2.280248606E-01 -1.426255175E+02  1.521690481E+02  2.697398305E-06  0.00000E+00  9.000E+00
#rwgt            1           1   3.6015934773544547E-002           6      265203           0
</event>
<event>
      5   9999  3.79277E-02  9.63957E+00 -1.00000E+00  1.97618E-01
       1    -1     0     0   502     0  0.000000000E+00  0.000000000E+00  5.717986310E+01  5.717986310E+01  0.000000000E+00  0.00000E+00  9.000E+00
      21    -1     0     0   501   502  0.000000000E+00  0.000000000E+00 -8.637519966E+02  8.637519966E+02  0.000000000E+00  0.00000E+00  9.000E+00
      25     1     1     2     0     0  4.846542615E+01  4.024042245E+01 -3.898893284E+02  4.142546047E+02  1.250000000E+02  0.00000E+00  9.000E+00
      25     1     1     2     0     0 -5.522100956E+01 -4.711671606E+01 -4.496587711E+02  4.723212416E+02  1.250000000E+02  0.00000E+00  9.000E+00
       1     1     1     2   501     0  6.755583405E+00  6.876293609E+00  3.297596601E+01  3.435601338E+01  1.784161275E-06  0.00000E+00  9.000E+00
#rwgt            1           1   5.2545625511260345E-002           6      265294           0
</event>
<event>
      5   9999  3.79277E-02  5.62672E+01 -1.00000E+00  1.36211E-01
      21    -1     0     0   502   501  0.000000000E+00  0.000000000E+00  5.898261368E+01  5.898261368E+01  0.000000000E+00  0.00000E+00  9.000E+00
      21    -1     0     0   511   502  0.000000000E+00  0.000000000E+00 -7.705246687E+02  7.705246687E+02  0.000000000E+00  0.00000E+00  9.000E+00
      25     1     1     2     0     0 -2.508520694E+01  1.854972607E+01 -5.330164635E+01  1.394253401E+02  1.250000000E+02  0.00000E+00  9.000E+00
      25     1     1     2     0     0  8.070021904E+01 -1.000785509E+01 -5.160242204E+02  5.371393475E+02  1.250000000E+02  0.00000E+00  9.000E+00
      21     1     1     2   511   501 -5.561501210E+01 -8.541870981E+00 -1.422161882E+02  1.529425949E+02  2.697398305E-06  0.00000E+00  9.000E+00
#rwgt            1           1   4.8683532151631369E-002           6      265573           0
</event>
<event>
      5   9999  3.79277E-02  5.59951E+01 -1.00000E+00  1.36326E-01
      21    -1     0     0   502   501  0.000000000E+00  0.000000000E+00  3.962379935E+02  3.962379935E+02  0.000000000E+00  0.00000E+00  9.000E+00
      21    -1     0     0   501   512  0.000000000E+00  0.000000000E+00 -1.393097910E+02  1.393097910E+02  0.000000000E+00  0.00000E+00  9.000E+00
      25     1     1     2     0     0  2.670376342E+01  1.126872205E+02  2.210513383E+02  2.791060638E+02  1.250000000E+02  0.00000E+00  9.000E+00
      25     1     1     2     0     0 -8.121541267E+01 -1.254908798E+02  1.099162103E+01  1.951658779E+02  1.250000000E+02  0.00000E+00  9.000E+00
      21     1     1     2   502   512  5.451164925E+01  1.280365927E+01  2.488524316E+01  6.127584289E+01  6.743495762E-07  0.00000E+00  9.000E+00
#rwgt            1           1   4.0124703195636206E-002           6      265693           0
</event>
<event>
      5   9999  3.79277E-02  2.18238E+01 -1.00000E+00  1.63302E-01
      21    -1     0     0   502   501  0.000000000E+00  0.000000000E+00  4.475654172E+02  4.475654172E+02  0.000000000E+00  0.00000E+00  9.000E+00
      21    -1     0     0   511   502  0.000000000E+00  0.000000000E+00 -1.318284965E+02  1.318284965E+02  0.000000000E+00  0.00000E+00  9.000E+00
      25     1     1     2     0     0  1.009883255E+02 -7.631808783E+01  1.174986093E-01  1.778991462E+02  1.250000000E+02  0.00000E+00  9.000E+00
      25     1     1     2     0     0 -1.209972247E+02  8.503134859E+01  3.245403310E+02  3.779180931E+02  1.250000000E+02  0.00000E+00  9.000E+00
      21     1     1     2   511   501  2.000889927E+01 -8.713260766E+00 -8.920908952E+00  2.357667448E+01  4.460403188E-07  0.00000E+00  9.000E+00
#rwgt            1           1   4.7935586739379747E-002           6      265785           0
</event>
<event>
      5   9999  3.79277E-02  1.26462E+02 -1.00000E+00  1.19409E-01
      21    -1     0     0   502   501  0.000000000E+00  0.000000000E+00  1.098388696E+02  1.098388696E+02  0.000000000E+00  0.00000E+00  9.000E+00
      21    -1     0     0   501   512  0.000000000E+00  0.000000000E+00 -7.401991673E+02  7.401991673E+02  0.000000000E+00  0.00000E+00  9.000E+00
      25     1     1     2     0     0 -1.203798425E+01 -8.014992688E+01 -2.600336719E+02  2.996855591E+02  1.250000000E+02  0.00000E+00  9.000E+00
      25     1     1     2     0     0  5.216544566E+01  2.000768643E+02 -1.197246556E+02  2.696497330E+02  1.250000000E+02  0.00000E+00  9.000E+00
      21     1     1     2   502   512 -4.012746141E+01 -1.199269374E+02 -2.506019702E+02  2.807027448E+02  4.672030912E-06  0.00000E+00  9.000E+00
#rwgt            1           1   4.7482719950966604E-002           6      265969           0
</event>
<event>
      5   9999  3.79277E-02  6.65970E+01 -1.00000E+00  1.32326E-01
      21    -1     0     0   502   511  0.000000000E+00  0.000000000E+00  3.442582580E+02  3.442582580E+02  0.000000000E+00  0.00000E+00  9.000E+00
      21    -1     0     0   501   502  0.000000000E+00  0.000000000E+00 -1.279342194E+02  1.279342194E+02  0.000000000E+00  0.00000E+00  9.000E+00
      25     1     1     2     0     0  1.384184871E-01 -2.225611295E+01 -1.215281729E+01  1.275462453E+02  1.250000000E+02  0.00000E+00  9.000E+00
      25     1     1     2     0     0 -4.280694417E+01  7.338890186E+01  5.846163290E+01  1.620528553E+02  1.250000000E+02  0.00000E+00  9.000E+00
      21     1     1     2   501   511  4.266852568E+01 -5.113278891E+01  1.700152230E+02  1.825933768E+02  0.000000000E+00  0.00000E+00  9.000E+00
#rwgt            1           1   3.5626002409484658E-002           6      266068           0
</event>
<event>
      5   9999  3.79277E-02  2.03116E+01 -1.00000E+00  1.65817E-01
      21    -1     0     0   502   501  0.000000000E+00  0.000000000E+00  3.396953512E+02  3.396953512E+02  0.000000000E+00  0.00000E+00  9.000E+00
      21    -1     0     0   501   512  0.000000000E+00  0.000000000E+00 -1.502211989E+02  1.502211989E+02  0.000000000E+00  0.00000E+00  9.000E+00
      25     1     1     2     0     0 -1.102815331E+02  2.213080355E+01  2.141234723E+02  2.722602623E+02  1.250000000E+02  0.00000E+00  9.000E+00
      25     1     1     2     0     0  1.305916783E+02 -2.237152773E+01  4.404997571E+00  1.822061352E+02  1.250000000E+02  0.00000E+00  9.000E+00
      21     1     1     2   502   512 -2.031014518E+01  2.407241845E-01 -2.905431760E+01  3.545015256E+01  0.000000000E+00  0.00000E+00  9.000E+00
#rwgt            1           1  0.11585410303113748                6      266196           0
</event>
<event>
      5   9999 -3.79277E-02  6.42387E+01 -1.00000E+00  1.33138E-01
      21    -1     0     0   511   501  0.000000000E+00  0.000000000E+00  1.928867345E+02  1.928867345E+02  0.000000000E+00  0.00000E+00  9.000E+00
      21    -1     0     0   501   502  0.000000000E+00  0.000000000E+00 -5.487283746E+02  5.487283746E+02  0.000000000E+00  0.00000E+00  9.000E+00
      25     1     1     2     0     0 -2.852236057E+01 -1.999404417E+02  1.338742933E+01  2.378947846E+02  1.250000000E+02  0.00000E+00  9.000E+00
      25     1     1     2     0     0  8.943333998E+01  1.795330380E+02 -3.705097197E+02  4.394688685E+02  1.250000000E+02  0.00000E+00  9.000E+00
      21     1     1     2   511   502 -6.091097940E+01  2.040740372E+01  1.280650250E+00  6.425145604E+01  7.767207938E-07  0.00000E+00  9.000E+00
#rwgt            1           1  -5.8172082336068014E-002           6      266380           0
</event>
<event>
      5   9999  3.79277E-02  1.62041E+02 -1.00000E+00  1.15080E-01
      21    -1     0     0   502   512  0.000000000E+00  0.000000000E+00  1.009416688E+03  1.009416688E+03  0.000000000E+00  0.00000E+00  9.000E+00
      21    -1     0     0   501   502  0.000000000E+00  0.000000000E+00 -2.039575966E+02  2.039575966E+02  0.000000000E+00  0.00000E+00  9.000E+00
      25     1     1     2     0     0 -1.235301919E+02 -2.585239211E+02  2.624538834E+01  3.137007276E+02  1.250000000E+02  0.00000E+00  9.000E+00
      25     1     1     2     0     0  1.718423157E+02  1.038527839E+02  2.413048436E+02  3.378878656E+02  1.250000000E+02  0.00000E+00  9.000E+00
      21     1     1     2   501   512 -4.831212382E+01  1.546711372E+02  5.379088592E+02  5.617856912E+02  1.078959322E-05  0.00000E+00  9.000E+00
#rwgt            1           1   3.0940537363720537E-002           6      266509           0
</event>
<event>
      5   9999  3.79277E-02  5.35553E+01 -1.00000E+00  1.37395E-01
      21    -1     0     0   511   501  0.000000000E+00  0.000000000E+00  2.155867897E+03  2.155867897E+03  0.000000000E+00  0.00000E+00  9.000E+00
      21    -1     0     0   501   502  0.000000000E+00  0.000000000E+00 -1.603803143E+01  1.603803143E+01  0.000000000E+00  0.00000E+00  9.000E+00
      25     1     1     2     0     0  5.678313017E+01  1.047938639E+02  9.018509813E+02  9.182408563E+02  1.250000000E+02  0.00000E+00  9.000E+00
      25     1     1     2     0     0 -4.730220726E+01 -5.208447640E+01  8.524292662E+02  8.644136425E+02  1.250000000E+02  0.00000E+00  9.000E+00
      21     1     1     2   511   502 -9.480922904E+00 -5.270938751E+01  3.855496183E+02  3.892514298E+02  5.394796609E-06  0.00000E+00  9.000E+00
#rwgt            1           1  0.33839280816470735                6      266632           0
</event>
<event>
      5   9999  3.79277E-02  6.54236E+01 -1.00000E+00  1.32725E-01
      21    -1     0     0   502   512  0.000000000E+00  0.000000000E+00  2.252738758E+03  2.252738758E+03  0.000000000E+00  0.00000E+00  9.000E+00
      21    -1     0     0   501   502  0.000000000E+00  0.000000000E+00 -7.466678368E+01  7.466678368E+01  0.000000000E+00  0.00000E+00  9.000E+00
      25     1     1     2     0     0 -1.987196363E+02  1.604315339E+02  3.857536266E+02  4.792271187E+02  1.250000000E+02  0.00000E+00  9.000E+00
      25     1     1     2     0     0  1.550344978E+02 -1.117298243E+02  4.533484014E+02  5.076110935E+02  1.250000000E+02  0.00000E+00  9.000E+00
      21     1     1     2   501   512  4.368513850E+01 -4.870170959E+01  1.338969947E+03  1.340567330E+03  1.525878906E-05  0.00000E+00  9.000E+00
#rwgt            1           1   2.5870897283911631E-002           6      266739           0
</event>
<event>
      5   9999  3.79277E-02  5.80270E+01 -1.00000E+00  1.35484E-01
      21    -1     0     0   502   511  0.000000000E+00  0.000000000E+00  2.570219733E+01  2.570219733E+01  0.000000000E+00  0.00000E+00  9.000E+00
      21    -1     0     0   501   502  0.000000000E+00  0.000000000E+00 -2.802654857E+03  2.802654857E+03  0.000000000E+00  0.00000E+00  9.000E+00
      25     1     1     2     0     0  3.358865485E+01  2.114448466E+02 -9.903678963E+02  1.020926389E+03  1.250000000E+02  0.00000E+00  9.000E+00
      25     1     1     2     0     0 -2.232253426E+01 -1.545220699E+02 -1.587897699E+03  1.600443522E+03  1.250000000E+02  0.00000E+00  9.000E+00
      21     1     1     2   501   511 -1.126612058E+01 -5.692277680E+01 -1.986870642E+02  2.069871432E+02  2.697398305E-06  0.00000E+00  9.000E+00
#rwgt            1           1   3.1218016545041482E-002           6      266853           0
</event>
<event>
      5   9999  3.79277E-02  6.85007E+01 -1.00000E+00  1.31699E-01
       1    -1     0     0   502     0  0.000000000E+00  0.000000000E+00  2.856147254E+03  2.856147254E+03  0.000000000E+00  0.00000E+00  9.000E+00
      21    -1     0     0   501   502  0.000000000E+00  0.000000000E+00 -6.325671267E+01  6.325671267E+01  0.000000000E+00  0.00000E+00  9.000E+00
      25     1     1     2     0     0  1.535010328E+02  3.148420965E+02  1.825321308E+03  1.862823392E+03  1.250000000E+02  0.00000E+00  9.000E+00
      25     1     1     2     0     0 -1.932895670E+02 -2.590817442E+02  7.101633684E+02  7.902159304E+02  1.250000000E+02  0.00000E+00  9.000E+00
       1     1     1     2   501     0  3.978853422E+01 -5.576035231E+01  2.574058656E+02  2.663646448E+02  5.394796609E-06  0.00000E+00  9.000E+00
#rwgt            1           1  0.11023903418349000                6      266958           0
</event>
<event>
      5   9999  3.79277E-02  7.05633E+01 -1.00000E+00  1.31045E-01
      21    -1     0     0   502   501  0.000000000E+00  0.000000000E+00  1.645391735E+02  1.645391735E+02  0.000000000E+00  0.00000E+00  9.000E+00
      21    -1     0     0   501   511  0.000000000E+00  0.000000000E+00 -7.417854621E+02  7.417854621E+02  0.000000000E+00  0.00000E+00  9.000E+00
      25     1     1     2     0     0 -5.337649931E+01 -1.615313258E+02 -9.507122285E+01  2.315274439E+02  1.250000000E+02  0.00000E+00  9.000E+00
      25     1     1     2     0     0  1.120154597E+02  1.222802774E+02 -2.152957165E+01  2.087784757E+02  1.250000000E+02  0.00000E+00  9.000E+00
      21     1     1     2   502   511 -5.863896034E+01  3.925104834E+01 -4.606454941E+02  4.660187160E+02  7.629394531E-06  0.00000E+00  9.000E+00
#rwgt            1           1   3.5221788328497969E-002           6      267082           0
</event>
<event>
      5   9999  3.79277E-02  2.92443E+01 -1.00000E+00  1.53813E-01
      21    -1     0     0   502   501  0.000000000E+00  0.000000000E+00  1.994402933E+02  1.994402933E+02  0.000000000E+00  0.00000E+00  9.000E+00
      21    -1     0     0   512   502  0.000000000E+00  0.000000000E+00 -3.143794379E+02  3.143794379E+02  0.000000000E+00  0.00000E+00  9.000E+00
      25     1     1     2     0     0  1.010961921E+01  1.758023623E+02 -8.232770552E+01  2.311093380E+02  1.250000000E+02  0.00000E+00  9.000E+00
      25     1     1     2     0     0 -3.047646468E+01 -1.967885495E+02  4.874401453E+00  2.351665536E+02  1.250000000E+02  0.00000E+00  9.000E+00
      21     1     1     2   512   501  2.036684547E+01  2.098618723E+01 -3.748584049E+01  4.754383963E+01  6.743495762E-07  0.00000E+00  9.000E+00
#rwgt            1           1   3.9243491316884579E-002           6      267152           0
</event>
<event>
      5   9999  3.79277E-02  6.02168E+01 -1.00000E+00  1.34620E-01
      21    -1     0     0   502   501  0.000000000E+00  0.000000000E+00  1.358444951E+02  1.358444951E+02  0.000000000E+00  0.00000E+00  9.000E+00
      21    -1     0     0   511   502  0.000000000E+00  0.000000000E+00 -8.774217589E+02  8.774217589E+02  0.000000000E+00  0.00000E+00  9.000E+00
      25     1     1     2     0     0  3.187748067E+00 -5.762308760E+01 -2.089061909E+02  2.501946813E+02  1.250000000E+02  0.00000E+00  9.000E+00
      25     1     1     2     0     0  4.680538143E+01  2.405590238E+01  7.326556688E+01  1.541501653E+02  1.250000000E+02  0.00000E+00  9.000E+00
      21     1     1     2   511   501 -4.999312949E+01  3.356718522E+01 -6.059366398E+02  6.089214074E+02  0.000000000E+00  0.00000E+00  9.000E+00
#rwgt            1           1   4.9059720022927099E-002           6      267332           0
</event>
<event>
      5   9999  3.79277E-02  8.05672E+01 -1.00000E+00  1.28201E-01
      21    -1     0     0   502   501  0.000000000E+00  0.000000000E+00  1.341297549E+03  1.341297549E+03  0.000000000E+00  0.00000E+00  9.000E+00
      21    -1     0     0   512   502  0.000000000E+00  0.000000000E+00 -1.780260191E+02  1.780260191E+02  0.000000000E+00  0.00000E+00  9.000E+00
      25     1     1     2     0     0 -1.846925933E+01  7.972583496E+00  7.607438090E+01  1.477057448E+02  1.250000000E+02  0.00000E+00  9.000E+00
      25     1     1     2     0     0  6.610421101E+00 -8.766222656E+01  1.212803305E+03  1.222393235E+03  1.250000000E+02  0.00000E+00  9.000E+00
      21     1     1     2   512   501  1.185883823E+01  7.968964307E+01 -1.256061563E+02  1.492245883E+02  3.303624740E-06  0.00000E+00  9.000E+00
#rwgt            1           1   4.3134238310335492E-002           6      267401           0
</event>
<event>
      5   9999  3.79277E-02  6.42977E+01 -1.00000E+00  1.33117E-01
      21    -1     0     0   511   501  0.000000000E+00  0.000000000E+00  1.336043251E+02  1.336043251E+02  0.000000000E+00  0.00000E+00  9.000E+00
      21    -1     0     0   501   502  0.000000000E+00  0.000000000E+00 -5.003073608E+02  5.003073608E+02  0.000000000E+00  0.00000E+00  9.000E+00
      25     1     1     2     0     0 -1.126961775E+02  7.373191942E+01 -2.878565217E+01  1.859850481E+02  1.250000000E+02  0.00000E+00  9.000E+00
      25     1     1     2     0     0  5.753862467E+01 -4.068901423E+01 -3.537173156E+02  3.817161623E+02  1.250000000E+02  0.00000E+00  9.000E+00
      21     1     1     2   511   502  5.515755279E+01 -3.304290519E+01  1.579993212E+01  6.621047552E+01  1.743881564E-06  0.00000E+00  9.000E+00
#rwgt            1           1   3.9827955102213243E-002           6      267485           0
</event>
<event>
      5   9999  3.79277E-02  3.27123E+02 -1.00000E+00  1.04385E-01
      21    -1     0     0   502   501  0.000000000E+00  0.000000000E+00  2.176892924E+03  2.176892924E+03  0.000000000E+00  0.00000E+00  9.000E+00
      21    -1     0     0   512   502  0.000000000E+00  0.000000000E+00 -8.366189851E+01  8.366189851E+01  0.000000000E+00  0.00000E+00  9.000E+00
      25     1     1     2     0     0  2.999891394E+02 -1.429181322E+02  9.339884018E+02  9.991888766E+02  1.250000000E+02  0.00000E+00  9.000E+00
      25     1     1     2     0     0 -1.693511411E+01 -2.106379602E+01  5.999770638E+02  6.134557512E+02  1.250000000E+02  0.00000E+00  9.000E+00
      21     1     1     2   512   501 -2.830540253E+02  1.639819282E+02  5.592655596E+02  6.479101945E+02  7.629394531E-06  0.00000E+00  9.000E+00
#rwgt            1           1   4.7342176151658935E-002           6      267699           0
</event>
<event>
      5   9999  3.79277E-02  2.24779E+01 -1.00000E+00  1.62290E-01
      21    -1     0     0   502   501  0.000000000E+00  0.000000000E+00  2.875097426E+02  2.875097426E+02  0.000000000E+00  0.00000E+00  9.000E+00
      21    -1     0     0   501   511  0.000000000E+00  0.000000000E+00 -3.690747535E+02  3.690747535E+02  0.000000000E+00  0.00000E+00  9.000E+00
      25     1     1     2     0     0 -1.424828362E+02 -1.301711179E+02 -1.208128607E+00  2.299398576E+02  1.250000000E+02  0.00000E+00  9.000E+00
      25     1     1     2     0     0  1.647255058E+02  1.334146222E+02  8.455449349E+01  2.602084089E+02  1.250000000E+02  0.00000E+00  9.000E+00
      21     1     1     2   502   511 -2.224266961E+01 -3.243504358E+00 -1.649113758E+02  1.664362296E+02  1.907348633E-06  0.00000E+00  9.000E+00
#rwgt            1           1   4.6566388438937803E-002           6      267774           0
</event>
<event>
      5   9999  3.79277E-02  1.12912E+02 -1.00000E+00  1.21501E-01
      21    -1     0     0   502   501  0.000000000E+00  0.000000000E+00  3.893144020E+02  3.893144020E+02  0.000000000E+00  0.00000E+00  9.000E+00
       2    -1     0     0   501     0  0.000000000E+00  0.000000000E+00 -5.955486509E+02  5.955486509E+02  0.000000000E+00  0.00000E+00  9.000E+00
      25     1     1     2     0     0  6.097663273E+00 -8.037491105E+01 -4.721893637E+00  1.488106317E+02  1.250000000E+02  0.00000E+00  9.000E+00
      25     1     1     2     0     0  2.162680677E+00  1.929838809E+02  2.680174257E+02  3.531370782E+02  1.250000000E+02  0.00000E+00  9.000E+00
       2     1     1     2   502     0 -8.260343950E+00 -1.126089699E+02 -4.695297810E+02  4.829153431E+02  7.629394531E-06  0.00000E+00  9.000E+00
#rwgt            2          13   5.4719709199480362E-004           6      267962           0
</event>
<event>
      5   9999  3.79277E-02  8.73341E+01 -1.00000E+00  1.26532E-01
       1    -1     0     0   502     0  0.000000000E+00  0.000000000E+00  9.306304106E+02  9.306304106E+02  0.000000000E+00  0.00000E+00  9.000E+00
      21    -1     0     0   501   502  0.000000000E+00  0.000000000E+00 -1.871851134E+02  1.871851134E+02  0.000000000E+00  0.00000E+00  9.000E+00
      25     1     1     2     0     0  1.076414075E+02 -4.212370714E+01  1.391915231E+02  2.199098893E+02  1.250000000E+02  0.00000E+00  9.000E+00
      25     1     1     2     0     0 -2.767276946E+01  7.020216994E+00 -1.156822615E+02  1.726917811E+02  1.250000000E+02  0.00000E+00  9.000E+00
       1     1     1     2   501     0 -7.996863806E+01  3.510349014E+01  7.199360357E+02  7.252138537E+02  1.078959322E-05  0.00000E+00  9.000E+00
#rwgt            1           1   4.6507696445152250E-002           6      268026           0
</event>
<event>
      5   9999  3.79277E-02  4.48238E+01 -1.00000E+00  1.41839E-01
      21    -1     0     0   502   501  0.000000000E+00  0.000000000E+00  1.645681217E+02  1.645681217E+02  0.000000000E+00  0.00000E+00  9.000E+00
      21    -1     0     0   501   511  0.000000000E+00  0.000000000E+00 -3.408450384E+02  3.408450384E+02  0.000000000E+00  0.00000E+00  9.000E+00
      25     1     1     2     0     0  1.571804606E+02  2.003295846E+01 -6.102853118E+01  2.108470968E+02  1.250000000E+02  0.00000E+00  9.000E+00
      25     1     1     2     0     0 -1.881421387E+02  1.237913798E+01 -9.807115313E+01  2.465637007E+02  1.250000000E+02  0.00000E+00  9.000E+00
      21     1     1     2   502   511  3.096167810E+01 -3.241209644E+01 -1.717723239E+01  4.800236264E+01  5.840038640E-07  0.00000E+00  9.000E+00
#rwgt            1           1   3.1892229805980048E-002           6      268105           0
</event>
<event>
      5   9999  3.79277E-02  1.82744E+01 -1.00000E+00  1.69669E-01
      21    -1     0     0   502   501  0.000000000E+00  0.000000000E+00  1.884463093E+03  1.884463093E+03  0.000000000E+00  0.00000E+00  9.000E+00
      21    -1     0     0   501   512  0.000000000E+00  0.000000000E+00 -5.493329100E+01  5.493329100E+01  0.000000000E+00  0.00000E+00  9.000E+00
      25     1     1     2     0     0 -1.025661731E+02  7.691730545E+01  1.227885313E+03  1.240872046E+03  1.250000000E+02  0.00000E+00  9.000E+00
      25     1     1     2     0     0  1.190574003E+02 -8.479079466E+01  6.333620650E+02  6.619189141E+02  1.250000000E+02  0.00000E+00  9.000E+00
      21     1     1     2   502   512 -1.649122720E+01  7.873489212E+00 -3.171757639E+01  3.660542390E+01  8.920806376E-07  0.00000E+00  9.000E+00
#rwgt            1           1  0.13243073588955054                6      268201           0
</event>
<event>
      5   9999  3.79277E-02  6.68625E+01 -1.00000E+00  1.32237E-01
      21    -1     0     0   502   501  0.000000000E+00  0.000000000E+00  2.114474800E+02  2.114474800E+02  0.000000000E+00  0.00000E+00  9.000E+00
      -2    -1     0     0     0   502  0.000000000E+00  0.000000000E+00 -3.841636656E+02  3.841636656E+02  0.000000000E+00  0.00000E+00  9.000E+00
      25     1     1     2     0     0  1.040510717E+02 -2.387365840E+01 -6.763450592E+01  1.777526469E+02  1.250000000E+02  0.00000E+00  9.000E+00
      25     1     1     2     0     0 -8.870938145E+01 -4.120494950E+01  1.096796372E+02  1.929295857E+02  1.250000000E+02  0.00000E+00  9.000E+00
      -2     1     1     2     0   501 -1.534169029E+01  6.507860790E+01 -2.147613168E+02  2.249289129E+02  3.814697266E-06  0.00000E+00  9.000E+00
#rwgt            1           1   4.5812650697370463E-002           6      268407           0
</event>
<event>
      5   9999  3.79277E-02  7.43401E+01 -1.00000E+00  1.29911E-01
      21    -1     0     0   502   501  0.000000000E+00  0.000000000E+00  5.971736554E+02  5.971736554E+02  0.000000000E+00  0.00000E+00  9.000E+00
      -2    -1     0     0     0   502  0.000000000E+00  0.000000000E+00 -7.036205977E+02  7.036205977E+02  0.000000000E+00  0.00000E+00  9.000E+00
      25     1     1     2     0     0  5.135980156E+01 -7.980903887E+01 -3.088076799E+02  3.464022157E+02  1.250000000E+02  0.00000E+00  9.000E+00
      25     1     1     2     0     0 -1.037631818E+02  1.325378730E+02  5.553764278E+02  5.936337779E+02  1.250000000E+02  0.00000E+00  9.000E+00
      -2     1     1     2     0   501  5.240338025E+01 -5.272883414E+01 -3.530156902E+02  3.607582594E+02  0.000000000E+00  0.00000E+00  9.000E+00
#rwgt            1           1  0.12299092794831852                6      268494           0
</event>
<event>
      5   9999  3.79277E-02  1.78596E+01 -1.00000E+00  1.70530E-01
       2    -1     0     0   502     0  0.000000000E+00  0.000000000E+00  4.444689041E+03  4.444689041E+03  0.000000000E+00  0.00000E+00  9.000E+00
      21    -1     0     0   501   502  0.000000000E+00  0.000000000E+00 -2.510088653E+01  2.510088653E+01  0.000000000E+00  0.00000E+00  9.000E+00
      25     1     1     2     0     0 -1.351757432E+02  5.566652748E+01  4.608645146E+02  4.993919750E+02  1.250000000E+02  0.00000E+00  9.000E+00
      25     1     1     2     0     0  1.217987572E+02 -4.383348699E+01  1.388465948E+03  1.400078213E+03  1.250000000E+02  0.00000E+00  9.000E+00
       2     1     1     2   501     0  1.337698595E+01 -1.183304049E+01  2.570257692E+03  2.570319740E+03  4.315837288E-05  0.00000E+00  9.000E+00
#rwgt            1           1  0.11165770130414845                6      268676           0
</event>
<event>
      5   9999  3.79277E-02  7.70146E+00 -1.00000E+00  2.09854E-01
      21    -1     0     0   502   501  0.000000000E+00  0.000000000E+00  3.560189271E+02  3.560189271E+02  0.000000000E+00  0.00000E+00  9.000E+00
      21    -1     0     0   501   511  0.000000000E+00  0.000000000E+00 -1.742075581E+02  1.742075581E+02  0.000000000E+00  0.00000E+00  9.000E+00
      25     1     1     2     0     0 -1.049499247E+02  7.903078869E+01  2.564171348E+02  3.140622538E+02  1.250000000E+02  0.00000E+00  9.000E+00
      25     1     1     2     0     0  1.112597525E+02 -8.344651253E+01 -5.471610472E+01  1.948355848E+02  1.250000000E+02  0.00000E+00  9.000E+00
      21     1     1     2   502   511 -6.309827808E+00  4.415723841E+00 -1.988966116E+01  2.132864658E+01  2.384185791E-07  0.00000E+00  9.000E+00
#rwgt            1           1   4.6647032326526769E-002           6      268905           0
</event>
<event>
      5   9999  3.79277E-02  5.89660E+00 -1.00000E+00  2.26651E-01
      21    -1     0     0   502   501  0.000000000E+00  0.000000000E+00  1.402349472E+03  1.402349472E+03  0.000000000E+00  0.00000E+00  9.000E+00
      21    -1     0     0   512   502  0.000000000E+00  0.000000000E+00 -8.022190170E+01  8.022190170E+01  0.000000000E+00  0.00000E+00  9.000E+00
      25     1     1     2     0     0 -3.170470403E+01 -7.135323861E+01  1.904124904E+02  2.407870208E+02  1.250000000E+02  0.00000E+00  9.000E+00
      25     1     1     2     0     0  3.686603628E+01  6.850182483E+01  1.182010434E+03  1.191144521E+03  1.250000000E+02  0.00000E+00  9.000E+00
      21     1     1     2   512   501 -5.161332252E+00  2.851413783E+00 -5.029535398E+01  5.063983159E+01  2.023048729E-06  0.00000E+00  9.000E+00
#rwgt            1           1   1.8517737323728408E-002           6      269149           0
</event>
<event>
      5   9999  3.79277E-02  1.04304E+02 -1.00000E+00  1.23010E-01
       2    -1     0     0   502     0  0.000000000E+00  0.000000000E+00  1.067580887E+03  1.067580887E+03  0.000000000E+00  0.00000E+00  9.000E+00
      21    -1     0     0   501   502  0.000000000E+00  0.000000000E+00 -2.706348680E+02  2.706348680E+02  0.000000000E+00  0.00000E+00  9.000E+00
      25     1     1     2     0     0  1.471952797E+01  8.865250235E+01 -2.064584802E+02  2.575384141E+02  1.250000000E+02  0.00000E+00  9.000E+00
      25     1     1     2     0     0 -5.312383836E+01  8.323689287E+00  9.417619579E+01  1.654858963E+02  1.250000000E+02  0.00000E+00  9.000E+00
       2     1     1     2   501     0  3.840431039E+01 -9.697619163E+01  9.092283031E+02  9.151914444E+02  0.000000000E+00  0.00000E+00  9.000E+00
#rwgt            1           1   4.0899362957380316E-002           6      269570           0
</event>
<event>
      5   9999  3.79277E-02  7.52765E+01 -1.00000E+00  1.29642E-01
      21    -1     0     0   502   501  0.000000000E+00  0.000000000E+00  1.334380368E+02  1.334380368E+02  0.000000000E+00  0.00000E+00  9.000E+00
      -5    -1     0     0     0   502  0.000000000E+00  0.000000000E+00 -5.559858609E+02  5.559858609E+02  0.000000000E+00  0.00000E+00  9.000E+00
      25     1     1     2     0     0 -7.039098725E+01  1.664964465E+02 -1.570459289E+02  2.701191988E+02  1.250000000E+02  0.00000E+00  9.000E+00
      25     1     1     2     0     0  3.309201286E+01 -1.011103670E+02 -2.344180747E+01  1.658098488E+02  1.250000000E+02  0.00000E+00  9.000E+00
      -5     1     1     2     0   501  3.729897439E+01 -6.538607950E+01 -2.420600878E+02  2.534948500E+02  2.697398305E-06  0.00000E+00  9.000E+00
#rwgt            2           6   5.2371276337142199E-006           6      269739           0
</event>
<event>
      5   9999  3.79277E-02  7.41126E+01 -1.00000E+00  1.29977E-01
      21    -1     0     0   502   501  0.000000000E+00  0.000000000E+00  9.127903656E+02  9.127903656E+02  0.000000000E+00  0.00000E+00  9.000E+00
      21    -1     0     0   511   502  0.000000000E+00  0.000000000E+00 -2.614154283E+02  2.614154283E+02  0.000000000E+00  0.00000E+00  9.000E+00
      25     1     1     2     0     0 -1.658872602E+02  1.032228873E+02  6.324898168E+02  6.736779022E+02  1.250000000E+02  0.00000E+00  9.000E+00
      25     1     1     2     0     0  1.117608491E+02 -1.538490556E+02  2.011817579E+02  3.037418625E+02  1.250000000E+02  0.00000E+00  9.000E+00
      21     1     1     2   511   501  5.412641113E+01  5.062616833E+01 -1.822966374E+02  1.967860293E+02  0.000000000E+00  0.00000E+00  9.000E+00
#rwgt            1           1   6.8713157491244209E-002           6      269953           0
</event>
<event>
      5   9999  3.79277E-02  3.48522E+01 -1.00000E+00  1.48651E-01
      21    -1     0     0   512   501  0.000000000E+00  0.000000000E+00  2.230349157E+02  2.230349157E+02  0.000000000E+00  0.00000E+00  9.000E+00
      21    -1     0     0   501   502  0.000000000E+00  0.000000000E+00 -5.273822623E+02  5.273822623E+02  0.000000000E+00  0.00000E+00  9.000E+00
      25     1     1     2     0     0  3.033570886E+02  6.815014849E+01 -1.473965796E+02  3.660884014E+02  1.250000000E+02  0.00000E+00  9.000E+00
      25     1     1     2     0     0 -2.688816184E+02 -7.326100854E+01 -1.669333770E+02  3.480750672E+02  1.250000000E+02  0.00000E+00  9.000E+00
      21     1     1     2   512   502 -3.447547029E+01  5.110860047E+00  9.982610027E+00  3.625370940E+01  6.307962682E-07  0.00000E+00  9.000E+00
#rwgt            1           1   1.4328955347039872E-002           6      270030           0
</event>
<event>
      5   9999  3.79277E-02  8.43615E+01 -1.00000E+00  1.27243E-01
      21    -1     0     0   502   511  0.000000000E+00  0.000000000E+00  1.826150661E+02  1.826150661E+02  0.000000000E+00  0.00000E+00  9.000E+00
      21    -1     0     0   501   502  0.000000000E+00  0.000000000E+00 -6.517327693E+02  6.517327693E+02  0.000000000E+00  0.00000E+00  9.000E+00
      25     1     1     2     0     0  7.107756534E+00 -2.058773996E+02 -1.043955378E+02  2.626013179E+02  1.250000000E+02  0.00000E+00  9.000E+00
      25     1     1     2     0     0  2.571198445E+01  1.281616775E+02 -4.290789701E+02  4.656396507E+02  1.250000000E+02  0.00000E+00  9.000E+00
      21     1     1     2   501   511 -3.281974098E+01  7.771572213E+01  6.435680472E+01  1.061068668E+02  2.132480600E-06  0.00000E+00  9.000E+00
#rwgt            1           1   3.6799452298780053E-002           6      270220           0
</event>
<event>
      5   9999  3.79277E-02  6.41298E+01 -1.00000E+00  1.33177E-01
      21    -1     0     0   502   501  0.000000000E+00  0.000000000E+00  7.019979580E+01  7.019979580E+01  0.000000000E+00  0.00000E+00  9.000E+00
      21    -1     0     0   501   512  0.000000000E+00  0.000000000E+00 -1.086185427E+03  1.086185427E+03  0.000000000E+00  0.00000E+00  9.000E+00
      25     1     1     2     0     0 -9.648951892E+01  6.375750717E+01 -7.576030820E+02  7.765067140E+02  1.250000000E+02  0.00000E+00  9.000E+00
      25     1     1     2     0     0  3.572126462E+01 -4.326736320E+01 -2.683982939E+01  1.396189454E+02  1.250000000E+02  0.00000E+00  9.000E+00
      21     1     1     2   502   512  6.076825430E+01 -2.049014397E+01 -2.315427195E+02  2.402595631E+02  2.697398305E-06  0.00000E+00  9.000E+00
#rwgt            1           1   4.7947261719038702E-002           6      270358           0
</event>
<event>
      5   9999  3.79277E-02  2.10015E+01 -1.00000E+00  1.64637E-01
      21    -1     0     0   502   501  0.000000000E+00  0.000000000E+00  4.922264163E+01  4.922264163E+01  0.000000000E+00  0.00000E+00  9.000E+00
      21    -1     0     0   511   502  0.000000000E+00  0.000000000E+00 -1.392269451E+03  1.392269451E+03  0.000000000E+00  0.00000E+00  9.000E+00
      25     1     1     2     0     0  5.492069195E+01  2.021352405E+02 -5.454924404E+02  5.975466011E+02  1.250000000E+02  0.00000E+00  9.000E+00
      25     1     1     2     0     0 -3.514197133E+01 -2.091967132E+02 -6.530638768E+02  6.979367093E+02  1.250000000E+02  0.00000E+00  9.000E+00
      21     1     1     2   511   501 -1.977872062E+01  7.061472673E+00 -1.444904919E+02  1.460087821E+02  1.907348633E-06  0.00000E+00  9.000E+00
#rwgt            1           1   3.3573972995391631E-002           6      270471           0
</event>
<event>
      5   9999  3.79277E-02  3.20010E+01 -1.00000E+00  1.51117E-01
      21    -1     0     0   512   501  0.000000000E+00  0.000000000E+00  1.476473611E+02  1.476473611E+02  0.000000000E+00  0.00000E+00  9.000E+00
      21    -1     0     0   501   502  0.000000000E+00  0.000000000E+00 -3.458598908E+02  3.458598908E+02  0.000000000E+00  0.00000E+00  9.000E+00
      25     1     1     2     0     0  8.989277257E+01 -1.006230646E+02 -2.209683369E+02  2.875025523E+02  1.250000000E+02  0.00000E+00  9.000E+00
      25     1     1     2     0     0 -9.662302207E+01  6.933784313E+01  1.581360203E+01  1.732593862E+02  1.250000000E+02  0.00000E+00  9.000E+00
      21     1     1     2   512   502  6.730249508E+00  3.128522148E+01  6.942205110E+00  3.274531346E+01  5.331201500E-07  0.00000E+00  9.000E+00
#rwgt            1           1   3.5881659572466196E-002           6      270699           0
</event>
<event>
      5   9999 -3.79277E-02  2.44416E+01 -1.00000E+00  1.59489E-01
      21    -1     0     0   502   501  0.000000000E+00  0.000000000E+00  5.444388425E+02  5.444388425E+02  0.000000000E+00  0.00000E+00  9.000E+00
      -2    -1     0     0     0   502  0.000000000E+00  0.000000000E+00 -1.221001883E+02  1.221001883E+02  0.000000000E+00  0.00000E+00  9.000E+00
      25     1     1     2     0     0 -1.696370512E+02  5.980947819E+01  2.423707343E+02  3.266840609E+02  1.250000000E+02  0.00000E+00  9.000E+00
      25     1     1     2     0     0  1.501596975E+02 -4.504386048E+01  2.170215955E+02  2.954661690E+02  1.250000000E+02  0.00000E+00  9.000E+00
      -2     1     1     2     0   501  1.947735376E+01 -1.476561771E+01 -3.705367549E+01  4.438880087E+01  4.768371582E-07  0.00000E+00  9.000E+00
#rwgt            1           1  -1.5714900706100116E-002           6      270805           0
</event>
<event>
      5   9999  3.79277E-02  4.29648E+01 -1.00000E+00  1.42940E-01
      21    -1     0     0   502   501  0.000000000E+00  0.000000000E+00  2.850198312E+03  2.850198312E+03  0.000000000E+00  0.00000E+00  9.000E+00
      21    -1     0     0   511   502  0.000000000E+00  0.000000000E+00 -5.926422084E+02  5.926422084E+02  0.000000000E+00  0.00000E+00  9.000E+00
      25     1     1     2     0     0 -2.088720908E+02  4.357842866E+01  1.993215643E+03  2.008497008E+03  1.250000000E+02  0.00000E+00  9.000E+00
      25     1     1     2     0     0  2.092379583E+02 -6.152181792E-01  8.310261633E+02  8.660314000E+02  1.250000000E+02  0.00000E+00  9.000E+00
      21     1     1     2   511   501 -3.658674971E-01 -4.296321048E+01 -5.666857029E+02  5.683121125E+02  2.018548058E-05  0.00000E+00  9.000E+00
#rwgt            1           1   3.6543276949796769E-002           6      271026           0
</event>
<event>
      5   9999  3.79277E-02  1.35757E+02 -1.00000E+00  1.18137E-01
      21    -1     0     0   502   501  0.000000000E+00  0.000000000E+00  1.519616616E+02  1.519616616E+02  0.000000000E+00  0.00000E+00  9.000E+00
       2    -1     0     0   501     0  0.000000000E+00  0.000000000E+00 -7.141166008E+02  7.141166008E+02  0.000000000E+00  0.00000E+00  9.000E+00
      25     1     1     2     0     0 -1.627022671E+02 -8.102928591E+01 -8.815301131E+00  2.207724676E+02  1.250000000E+02  0.00000E+00  9.000E+00
      25     1     1     2     0     0  3.294275175E+01  1.209346443E+02 -2.016559410E+02  2.683291479E+02  1.250000000E+02  0.00000E+00  9.000E+00
       2     1     1     2   502     0  1.297595154E+02 -3.990535839E+01 -3.516836971E+02  3.769766468E+02  7.629394531E-06  0.00000E+00  9.000E+00
#rwgt            2          13   2.8713527848555986E-004           6      271249           0
</event>
<event>
      5   9999  3.79277E-02  1.35442E+02 -1.00000E+00  1.18178E-01
      21    -1     0     0   502   511  0.000000000E+00  0.000000000E+00  6.418035388E+02  6.418035388E+02  0.000000000E+00  0.00000E+00  9.000E+00
      21    -1     0     0   501   502  0.000000000E+00  0.000000000E+00 -2.168792982E+02  2.168792982E+02  0.000000000E+00  0.00000E+00  9.000E+00
      25     1     1     2     0     0 -1.207389071E+01  1.090469504E+01 -1.415765856E+02  1.895616543E+02  1.250000000E+02  0.00000E+00  9.000E+00
      25     1     1     2     0     0 -1.190078319E+02  2.318321716E+01  1.456814894E+02  2.270427756E+02  1.250000000E+02  0.00000E+00  9.000E+00
      21     1     1     2   501   511  1.310817226E+02 -3.408791221E+01  4.208193368E+02  4.420784071E+02  9.344061824E-06  0.00000E+00  9.000E+00
#rwgt            1           1   3.8350628485385931E-002           6      271298           0
</event>
<event>
      5   9999 -4.02386E-02  1.23101E+02 -1.00000E+00  1.19900E-01
      21    -1     0     0   502   501  0.000000000E+00  0.000000000E+00  1.510329296E+02  1.510329296E+02  0.000000000E+00  0.00000E+00  9.000E+00
       2    -1     0     0   501     0  0.000000000E+00  0.000000000E+00 -2.388686739E+03  2.388686739E+03  0.000000000E+00  0.00000E+00  9.000E+00
      25     1     1     2     0     0  1.144831601E+02  1.742703104E+02 -2.912012317E+02  3.793411293E+02  1.250000000E+02  0.00000E+00  9.000E+00
      25     1     1     2     0     0 -1.808826572E+02 -7.061222284E+01 -2.198322188E+01  2.319760413E+02  1.250000000E+02  0.00000E+00  9.000E+00
       2     1     1     2   502     0  6.639949717E+01 -1.036580876E+02 -1.924469355E+03  1.928402497E+03  2.157918644E-05  0.00000E+00  9.000E+00
#rwgt            1           1 -0.44115994514222034                6      271360           0
</event>
<event>
      5   9999  3.79277E-02  1.63510E+02 -1.00000E+00  1.14928E-01
      21    -1     0     0   511   501  0.000000000E+00  0.000000000E+00  1.141339504E+03  1.141339504E+03  0.000000000E+00  0.00000E+00  9.000E+00
      21    -1     0     0   501   502  0.000000000E+00  0.000000000E+00 -1.333595907E+02  1.333595907E+02  0.000000000E+00  0.00000E+00  9.000E+00
      25     1     1     2     0     0  1.744080153E+02 -3.223527456E+01  6.787087632E+00  2.170906108E+02  1.250000000E+02  0.00000E+00  9.000E+00
      25     1     1     2     0     0 -3.643055678E+01  1.199712923E+02  5.002206011E+02  5.306278792E+02  1.250000000E+02  0.00000E+00  9.000E+00
      21     1     1     2   511   502 -1.379774585E+02 -8.773601777E+01  5.009722250E+02  5.269806051E+02  7.629394531E-06  0.00000E+00  9.000E+00
#rwgt            1           1   3.2334459565857912E-002           6      271456           0
</event>
<event>
      5   9999 -3.79277E-02  2.74925E+01 -1.00000E+00  1.55720E-01
      21    -1     0     0   512   501  0.000000000E+00  0.000000000E+00  3.635126696E+02  3.635126696E+02  0.000000000E+00  0.00000E+00  9.000E+00
      21    -1     0     0   501   502  0.000000000E+00  0.000000000E+00 -1.636255945E+02  1.636255945E+02  0.000000000E+00  0.00000E+00  9.000E+00
      25     1     1     2     0     0 -1.157380830E+02  9.792502577E+01  1.624961730E+02  2.549796478E+02  1.250000000E+02  0.00000E+00  9.000E+00
      25     1     1     2     0     0  1.257073265E+02 -1.235463136E+02 -1.115463834E+01  2.163687812E+02  1.250000000E+02  0.00000E+00  9.000E+00
      21     1     1     2   512   502 -9.969243463E+00  2.562128787E+01  4.854554044E+01  5.578983513E+01  6.743495762E-07  0.00000E+00  9.000E+00
#rwgt            1           1 -0.27944177758013861                6      271730           0
</event>
<event>
      5   9999  3.79277E-02  1.10175E+02 -1.00000E+00  1.21964E-01
       2    -1     0     0   502     0  0.000000000E+00  0.000000000E+00  1.592959612E+03  1.592959612E+03  0.000000000E+00  0.00000E+00  9.000E+00
      21    -1     0     0   501   502  0.000000000E+00  0.000000000E+00 -3.841478760E+02  3.841478760E+02  0.000000000E+00  0.00000E+00  9.000E+00
      25     1     1     2     0     0  1.293084230E+02  1.149694475E+02 -3.028745847E+02  3.705356341E+02  1.250000000E+02  0.00000E+00  9.000E+00
      25     1     1     2     0     0 -7.106935505E+01 -2.144528693E+01  7.120333704E+01  1.618816505E+02  1.250000000E+02  0.00000E+00  9.000E+00
       2     1     1     2   501     0 -5.823906800E+01 -9.352416057E+01  1.440482984E+03  1.444690203E+03  1.525878906E-05  0.00000E+00  9.000E+00
#rwgt            1           1   4.5721243623019513E-002           6      271961           0
</event>
<event>
      5   9999  3.79277E-02  1.92816E+01 -1.00000E+00  1.67691E-01
      21    -1     0     0   511   501  0.000000000E+00  0.000000000E+00  9.569768461E+01  9.569768461E+01  0.000000000E+00  0.00000E+00  9.000E+00
      21    -1     0     0   501   502  0.000000000E+00  0.000000000E+00 -3.817825769E+02  3.817825769E+02  0.000000000E+00  0.00000E+00  9.000E+00
      25     1     1     2     0     0  1.818074994E+01  1.126115709E+02 -5.863382230E+01  1.790944742E+02  1.250000000E+02  0.00000E+00  9.000E+00
      25     1     1     2     0     0 -1.093619550E+01 -9.474270089E+01 -2.303432400E+02  2.788884866E+02  1.250000000E+02  0.00000E+00  9.000E+00
      21     1     1     2   511   502 -7.244554441E+00 -1.786887003E+01  2.892170074E+00  1.949730066E+01  1.931411236E-07  0.00000E+00  9.000E+00
#rwgt            1           1   5.0973262598348959E-002           6      272015           0
</event>
<event>
      5   9999  3.79277E-02  4.44860E+01 -1.00000E+00  1.42034E-01
       2    -1     0     0   502     0  0.000000000E+00  0.000000000E+00  2.590005500E+03  2.590005500E+03  0.000000000E+00  0.00000E+00  9.000E+00
      21    -1     0     0   501   502  0.000000000E+00  0.000000000E+00 -2.684493803E+01  2.684493803E+01  0.000000000E+00  0.00000E+00  9.000E+00
      25     1     1     2     0     0  1.209471345E+02  1.022718814E+02  1.024839164E+03  1.044513312E+03  1.250000000E+02  0.00000E+00  9.000E+00
      25     1     1     2     0     0 -1.177843168E+02 -5.789841830E+01  4.799707222E+02  5.130519138E+02  1.250000000E+02  0.00000E+00  9.000E+00
       2     1     1     2   501     0 -3.162817684E+00 -4.437346312E+01  1.058350676E+03  1.059285212E+03  0.000000000E+00  0.00000E+00  9.000E+00
#rwgt            1           1   6.0205288263108787E-002           6      272471           0
</event>
<event>
      5   9999  3.79277E-02  7.57516E+01 -1.00000E+00  1.29507E-01
      21    -1     0     0   502   501  0.000000000E+00  0.000000000E+00  2.922801167E+02  2.922801167E+02  0.000000000E+00  0.00000E+00  9.000E+00
      21    -1     0     0   501   511  0.000000000E+00  0.000000000E+00 -1.483340378E+03  1.483340378E+03  0.000000000E+00  0.00000E+00  9.000E+00
      25     1     1     2     0     0  1.329411840E+02 -1.885573306E+02 -9.133261539E+00  2.625559784E+02  1.250000000E+02  0.00000E+00  9.000E+00
      25     1     1     2     0     0 -5.731031003E+01  1.928319126E+02  7.914839244E+01  2.497160110E+02  1.250000000E+02  0.00000E+00  9.000E+00
      21     1     1     2   502   511 -7.563087394E+01 -4.274582022E+00 -1.261075392E+03  1.263348505E+03  0.000000000E+00  0.00000E+00  9.000E+00
#rwgt            2          11   2.7706692567260952E-003           6      272602           0
</event>
<event>
      5   9999  3.79277E-02  3.60835E+01 -1.00000E+00  1.47671E-01
      21    -1     0     0   502   512  0.000000000E+00  0.000000000E+00  9.611739330E+01  9.611739330E+01  0.000000000E+00  0.00000E+00  9.000E+00
      21    -1     0     0   501   502  0.000000000E+00  0.000000000E+00 -2.486035467E+02  2.486035467E+02  0.000000000E+00  0.00000E+00  9.000E+00
      25     1     1     2     0     0 -7.902184185E+00  3.087313706E+01 -7.261674507E+01  1.480330597E+02  1.250000000E+02  0.00000E+00  9.000E+00
      25     1     1     2     0     0  9.614574644E+00 -6.691602330E+01 -7.368881577E+01  1.600788424E+02  1.250000000E+02  0.00000E+00  9.000E+00
      21     1     1     2   501   512 -1.712390458E+00  3.604288624E+01 -6.180592583E+00  3.660903788E+01  8.429369702E-07  0.00000E+00  9.000E+00
#rwgt            1           1   2.1382316636669407E-002           6      272622           0
</event>
<event>
      5   9999  3.79277E-02  1.32413E+02  7.55638E-03  1.18581E-01
      -2    -1     0     0     0   501  0.000000000E+00  0.000000000E+00  1.120635329E+02  1.120635329E+02  0.000000000E+00  0.00000E+00  9.000E+00
       2    -1     0     0   502     0  0.000000000E+00  0.000000000E+00 -1.489616218E+03  1.489616218E+03  0.000000000E+00  0.00000E+00  9.000E+00
      25     1     1     2     0     0  2.825374655E+02  3.606997269E+00 -4.328554185E+02  5.318169264E+02  1.250000000E+02  0.00000E+00  9.000E+00
      25     1     1     2     0     0 -2.349109063E+02  1.199442097E+02 -8.703854776E+02  9.180226724E+02  1.250000000E+02  0.00000E+00  9.000E+00
      21     1     1     2   502   501 -4.762655921E+01 -1.235512070E+02 -7.431178943E+01  1.518401526E+02  4.768371582E-06  0.00000E+00  9.000E+00
#rwgt            3           4   6.6022236166147808E-005           6      272769           0
</event>
<event>
      5   9999  3.79277E-02  5.04846E+01 -1.00000E+00  1.38837E-01
      21    -1     0     0   502   501  0.000000000E+00  0.000000000E+00  1.976922452E+01  1.976922452E+01  0.000000000E+00  0.00000E+00  9.000E+00
      21    -1     0     0   501   511  0.000000000E+00  0.000000000E+00 -2.405189163E+03  2.405189163E+03  0.000000000E+00  0.00000E+00  9.000E+00
      25     1     1     2     0     0 -1.022590471E+02  6.232423649E+01 -1.108857104E+03  1.122287976E+03  1.250000000E+02  0.00000E+00  9.000E+00
      25     1     1     2     0     0  6.940363982E+01 -1.006546062E+02 -6.204236411E+02  6.445918937E+02  1.250000000E+02  0.00000E+00  9.000E+00
      21     1     1     2   502   511  3.285540724E+01  3.833036973E+01 -6.561391930E+02  6.580785178E+02  7.629394531E-06  0.00000E+00  9.000E+00
#rwgt            1           1  0.14843288537031446                6      272863           0
</event>
<event>
      5   9999  3.79277E-02  4.56276E+01 -1.00000E+00  1.41382E-01
      21    -1     0     0   502   501  0.000000000E+00  0.000000000E+00  3.195948491E+02  3.195948491E+02  0.000000000E+00  0.00000E+00  9.000E+00
      21    -1     0     0   501   512  0.000000000E+00  0.000000000E+00 -2.154622416E+02  2.154622416E+02  0.000000000E+00  0.00000E+00  9.000E+00
      25     1     1     2     0     0  7.788497733E+01  1.084215947E+02 -5.374951226E+00  1.829622966E+02  1.250000000E+02  0.00000E+00  9.000E+00
      25     1     1     2     0     0 -5.674874756E+01 -1.488583800E+02  1.781262416E+02  2.696909261E+02  1.250000000E+02  0.00000E+00  9.000E+00
      21     1     1     2   502   512 -2.113622977E+01  4.043678533E+01 -6.861868287E+01  8.240386796E+01  1.907348633E-06  0.00000E+00  9.000E+00
#rwgt            1           1  0.11697471715174401                6      272943           0
</event>
<event>
      5   9999  3.79277E-02  6.36322E+01 -1.00000E+00  1.33353E-01
      21    -1     0     0   502   511  0.000000000E+00  0.000000000E+00  1.003250606E+03  1.003250606E+03  0.000000000E+00  0.00000E+00  9.000E+00
      21    -1     0     0   501   502  0.000000000E+00  0.000000000E+00 -6.317837514E+01  6.317837514E+01  0.000000000E+00  0.00000E+00  9.000E+00
      25     1     1     2     0     0 -1.027034819E+02 -4.665040924E+01  1.216676546E+02  2.077312785E+02  1.250000000E+02  0.00000E+00  9.000E+00
      25     1     1     2     0     0  1.499498910E+02  4.026091169E+00  5.821257610E+02  6.140004730E+02  1.250000000E+02  0.00000E+00  9.000E+00
      21     1     1     2   501   511 -4.724640913E+01  4.262431808E+01  2.362788150E+02  2.446972294E+02  2.697398305E-06  0.00000E+00  9.000E+00
#rwgt            1           1   3.9379184218958828E-002           6      273040           0
</event>
<event>
      5   9999  3.79277E-02  2.30417E+01 -1.00000E+00  1.61451E-01
      21    -1     0     0   512   501  0.000000000E+00  0.000000000E+00  1.506217733E+02  1.506217733E+02  0.000000000E+00  0.00000E+00  9.000E+00
      21    -1     0     0   501   502  0.000000000E+00  0.000000000E+00 -4.252090135E+02  4.252090135E+02  0.000000000E+00  0.00000E+00  9.000E+00
      25     1     1     2     0     0  1.191048384E+02  1.320946586E+02 -2.119428461E+02  3.036111516E+02  1.250000000E+02  0.00000E+00  9.000E+00
      25     1     1     2     0     0 -1.015549724E+02 -1.470252257E+02 -9.046986465E+01  2.360924095E+02  1.250000000E+02  0.00000E+00  9.000E+00
      21     1     1     2   512   502 -1.754986598E+01  1.493056715E+01  2.782547049E+01  3.612722574E+01  6.743495762E-07  0.00000E+00  9.000E+00
#rwgt            1           1   4.2152033604389870E-002           6      273154           0
</event>
<event>
      5   9999  3.79277E-02  1.49044E+01 -1.00000E+00  1.77646E-01
      21    -1     0     0   502   511  0.000000000E+00  0.000000000E+00  3.779255262E+02  3.779255262E+02  0.000000000E+00  0.00000E+00  9.000E+00
      21    -1     0     0   501   502  0.000000000E+00  0.000000000E+00 -6.310852591E+02  6.310852591E+02  0.000000000E+00  0.00000E+00  9.000E+00
      25     1     1     2     0     0  2.550431875E+02  2.395819078E+01 -2.906028188E+02  4.070577609E+02  1.250000000E+02  0.00000E+00  9.000E+00
      25     1     1     2     0     0 -2.568354192E+02 -9.161952479E+00 -2.096327357E+02  3.544280714E+02  1.250000000E+02  0.00000E+00  9.000E+00
      21     1     1     2   501   511  1.792231701E+00 -1.479623830E+01  2.470758215E+02  2.475249530E+02  3.814697266E-06  0.00000E+00  9.000E+00
#rwgt            1           1  0.11327295661592647                6      273367           0
</event>
<event>
      5   9999  3.79277E-02  3.26249E+01 -1.00000E+00  1.50552E-01
      21    -1     0     0   502   501  0.000000000E+00  0.000000000E+00  1.279774710E+02  1.279774710E+02  0.000000000E+00  0.00000E+00  9.000E+00
       2    -1     0     0   501     0  0.000000000E+00  0.000000000E+00 -8.285292779E+02  8.285292779E+02  0.000000000E+00  0.00000E+00  9.000E+00
      25     1     1     2     0     0 -5.872683208E+01  7.079392491E+01 -2.858866265E+01  1.578066293E+02  1.250000000E+02  0.00000E+00  9.000E+00
      25     1     1     2     0     0  5.448707727E+01 -1.031421873E+02 -5.317472002E+01  1.790522361E+02  1.250000000E+02  0.00000E+00  9.000E+00
       2     1     1     2   502     0  4.239754816E+00  3.234826236E+01 -6.187884243E+02  6.196478836E+02  0.000000000E+00  0.00000E+00  9.000E+00
#rwgt            1           1   3.1954844125051833E-002           6      273623           0
</event>
<event>
      5   9999  3.79277E-02  2.02923E+01 -1.00000E+00  1.65851E-01
      21    -1     0     0   502   501  0.000000000E+00  0.000000000E+00  2.547651174E+02  2.547651174E+02  0.000000000E+00  0.00000E+00  9.000E+00
      21    -1     0     0   501   511  0.000000000E+00  0.000000000E+00 -5.240398598E+02  5.240398598E+02  0.000000000E+00  0.00000E+00  9.000E+00
      25     1     1     2     0     0 -2.287292215E+02  1.997486830E+02  2.775099538E+01  3.295629088E+02  1.250000000E+02  0.00000E+00  9.000E+00
      25     1     1     2     0     0  2.085114602E+02 -2.014861531E+02 -2.866149662E+02  4.264350335E+02  1.250000000E+02  0.00000E+00  9.000E+00
      21     1     1     2   502   511  2.021776134E+01  1.737470109E+00 -1.041077148E+01  2.280703485E+01  2.064765462E-07  0.00000E+00  9.000E+00
#rwgt            1           1  0.18662598346367540                6      273800           0
</event>
<event>
      5   9999  3.79277E-02  9.26304E+01 -1.00000E+00  1.25342E-01
      21    -1     0     0   512   501  0.000000000E+00  0.000000000E+00  3.297949784E+02  3.297949784E+02  0.000000000E+00  0.00000E+00  9.000E+00
      21    -1     0     0   501   502  0.000000000E+00  0.000000000E+00 -7.874850707E+02  7.874850707E+02  0.000000000E+00  0.00000E+00  9.000E+00
      25     1     1     2     0     0 -5.328473144E+01  1.367448905E+02 -2.688005840E+02  3.307826804E+02  1.250000000E+02  0.00000E+00  9.000E+00
      25     1     1     2     0     0  1.099989924E+02 -6.350636416E+01 -4.635565908E+02  4.966312007E+02  1.250000000E+02  0.00000E+00  9.000E+00
      21     1     1     2   512   502 -5.671426093E+01 -7.323852636E+01  2.746670825E+02  2.898661680E+02  5.394796609E-06  0.00000E+00  9.000E+00
#rwgt            1           1   4.1878305639952346E-002           6      274044           0
</event>
<event>
      5   9999  3.79277E-02  4.76183E+01 -1.00000E+00  1.40296E-01
      21    -1     0     0   502   511  0.000000000E+00  0.000000000E+00  2.924596557E+02  2.924596557E+02  0.000000000E+00  0.00000E+00  9.000E+00
      21    -1     0     0   501   502  0.000000000E+00  0.000000000E+00 -2.946503041E+02  2.946503041E+02  0.000000000E+00  0.00000E+00  9.000E+00
      25     1     1     2     0     0  1.693731935E+02  8.706636877E+01 -1.401006483E+02  2.674341469E+02  1.250000000E+02  0.00000E+00  9.000E+00
      25     1     1     2     0     0 -1.557634135E+02 -1.326983252E+02  1.048435237E+02  2.617026002E+02  1.250000000E+02  0.00000E+00  9.000E+00
      21     1     1     2   501   511 -1.360978004E+01  4.563195642E+01  3.306647618E+01  5.797321284E+01  4.768371582E-07  0.00000E+00  9.000E+00
#rwgt            1           1   5.1960689865320368E-002           6      274156           0
</event>
<event>
      5   9999  3.79277E-02  2.69110E+01 -1.00000E+00  1.56392E-01
      21    -1     0     0   512   501  0.000000000E+00  0.000000000E+00  1.134327909E+02  1.134327909E+02  0.000000000E+00  0.00000E+00  9.000E+00
      21    -1     0     0   501   502  0.000000000E+00  0.000000000E+00 -7.703413896E+02  7.703413896E+02  0.000000000E+00  0.00000E+00  9.000E+00
      25     1     1     2     0     0 -5.834338471E+01 -1.886682748E+02 -3.898822027E+02  4.545688071E+02  1.250000000E+02  0.00000E+00  9.000E+00
      25     1     1     2     0     0  5.931546414E+01  2.155616883E+02 -2.947987864E+02  3.905335968E+02  1.250000000E+02  0.00000E+00  9.000E+00
      21     1     1     2   512   502 -9.720794373E-01 -2.689341357E+01  2.777239038E+01  3.867177652E+01  1.261592536E-06  0.00000E+00  9.000E+00
#rwgt            1           1  0.11887015244547609                6      274286           0
</event>
<event>
      5   9999  3.79277E-02  6.40162E+01 -1.00000E+00  1.33217E-01
      21    -1     0     0   502   501  0.000000000E+00  0.000000000E+00  1.819915377E+02  1.819915377E+02  0.000000000E+00  0.00000E+00  9.000E+00
      21    -1     0     0   511   502  0.000000000E+00  0.000000000E+00 -2.110101656E+03  2.110101656E+03  0.000000000E+00  0.00000E+00  9.000E+00
      25     1     1     2     0     0  1.545918340E+01 -2.448254117E+02 -3.423289375E+02  4.393091964E+02  1.250000000E+02  0.00000E+00  9.000E+00
      25     1     1     2     0     0  3.796607190E+01  2.095575948E+02  1.811903040E+01  2.476067596E+02  1.250000000E+02  0.00000E+00  9.000E+00
      21     1     1     2   511   501 -5.342525530E+01  3.526781698E+01 -1.603900211E+03  1.605177237E+03  3.051757812E-05  0.00000E+00  9.000E+00
#rwgt            1           1   3.9696083177969167E-002           6      274506           0
</event>
<event>
      5   9999  3.79277E-02  9.86105E+01 -1.00000E+00  1.24102E-01
      21    -1     0     0   512   501  0.000000000E+00  0.000000000E+00  3.593814814E+02  3.593814814E+02  0.000000000E+00  0.00000E+00  9.000E+00
      21    -1     0     0   501   502  0.000000000E+00  0.000000000E+00 -1.440645411E+03  1.440645411E+03  0.000000000E+00  0.00000E+00  9.000E+00
      25     1     1     2     0     0 -2.425699560E+00 -1.327913728E+02 -8.407183581E+02  8.602742530E+02  1.250000000E+02  0.00000E+00  9.000E+00
      25     1     1     2     0     0 -9.524159919E+01  1.463974756E+02 -5.629902471E+02  6.025663460E+02  1.250000000E+02  0.00000E+00  9.000E+00
      21     1     1     2   512   502  9.766729875E+01 -1.360610273E+01  3.224446758E+02  3.371862931E+02  3.814697266E-06  0.00000E+00  9.000E+00
#rwgt            1           1   3.8197674170626049E-002           6      274629           0
</event>
<event>
      5   9999  3.79277E-02  6.16662E+01 -1.00000E+00  1.34071E-01
      21    -1     0     0   502   501  0.000000000E+00  0.000000000E+00  2.899467545E+02  2.899467545E+02  0.000000000E+00  0.00000E+00  9.000E+00
       2    -1     0     0   501     0  0.000000000E+00  0.000000000E+00 -2.198470007E+02  2.198470007E+02  0.000000000E+00  0.00000E+00  9.000E+00
      25     1     1     2     0     0 -1.029882227E+02 -9.258438979E-01  1.722501998E+02  2.364372274E+02  1.250000000E+02  0.00000E+00  9.000E+00
      25     1     1     2     0     0  9.024248641E+01  6.126048396E+01 -1.496901684E+01  1.665701795E+02  1.250000000E+02  0.00000E+00  9.000E+00
       2     1     1     2   502     0  1.274573625E+01 -6.033464006E+01 -8.718142908E+01  1.067863482E+02  0.000000000E+00  0.00000E+00  9.000E+00
#rwgt            1           1   8.2014328686129373E-002           6      274752           0
</event>
<event>
      5   9999  3.79277E-02  9.90046E+01 -1.00000E+00  1.24024E-01
      21    -1     0     0   502   501  0.000000000E+00  0.000000000E+00  1.334175992E+03  1.334175992E+03  0.000000000E+00  0.00000E+00  9.000E+00
      -2    -1     0     0     0   502  0.000000000E+00  0.000000000E+00 -6.209059461E+01  6.209059461E+01  0.000000000E+00  0.00000E+00  9.000E+00
      25     1     1     2     0     0  1.161144171E+02 -1.481989556E+02  5.390056778E+02  5.844635223E+02  1.250000000E+02  0.00000E+00  9.000E+00
      25     1     1     2     0     0 -1.129497020E+02  4.924492601E+01  6.740684941E+02  6.965457865E+02  1.250000000E+02  0.00000E+00  9.000E+00
      -2     1     1     2     0   501 -3.164715134E+00  9.895402957E+01  5.901122594E+01  1.152572782E+02  1.507891493E-06  0.00000E+00  9.000E+00
#rwgt            1           1   3.7466046275945838E-002           6      274836           0
</event>
<event>
      5   9999  3.79277E-02  1.15565E+02 -1.00000E+00  1.21067E-01
      21    -1     0     0   502   501  0.000000000E+00  0.000000000E+00  8.014282270E+02  8.014282270E+02  0.000000000E+00  0.00000E+00  9.000E+00
       1    -1     0     0   501     0  0.000000000E+00  0.000000000E+00 -4.058220562E+02  4.058220562E+02  0.000000000E+00  0.00000E+00  9.000E+00
      25     1     1     2     0     0 -1.593794082E+02 -4.871653364E+01  5.120308869E+02  5.527890426E+02  1.250000000E+02  0.00000E+00  9.000E+00
      25     1     1     2     0     0  7.594207161E+01  1.286757498E+02  2.228803575E+02  2.960157101E+02  1.250000000E+02  0.00000E+00  9.000E+00
       1     1     1     2   502     0  8.343733659E+01 -7.995921620E+01 -3.393050736E+02  3.584455305E+02  5.394796609E-06  0.00000E+00  9.000E+00
#rwgt            1           1   3.3531306233650353E-002           6      274873           0
</event>
<event>
      5   9999  3.79277E-02  4.25718E+01 -1.00000E+00  1.43182E-01
      21    -1     0     0   502   501  0.000000000E+00  0.000000000E+00  6.891368759E+02  6.891368759E+02  0.000000000E+00  0.00000E+00  9.000E+00
      21    -1     0     0   511   502  0.000000000E+00  0.000000000E+00 -2.044084339E+02  2.044084339E+02  0.000000000E+00  0.00000E+00  9.000E+00
      25     1     1     2     0     0 -9.358408114E+00 -1.332493725E+02  2.090289925E+02  2.777788595E+02  1.250000000E+02  0.00000E+00  9.000E+00
      25     1     1     2     0     0 -2.673959874E+01  1.558167823E+02  4.197120587E+02  4.655932646E+02  1.250000000E+02  0.00000E+00  9.000E+00
      21     1     1     2   511   501  3.609800686E+01 -2.256740975E+01 -1.440126093E+02  1.501731857E+02  0.000000000E+00  0.00000E+00  9.000E+00
#rwgt            1           1   4.0985694202741958E-002           6      274947           0
</event>
<event>
      5   9999  3.79277E-02  2.52513E+01 -1.00000E+00  1.58426E-01
      21    -1     0     0   502   501  0.000000000E+00  0.000000000E+00  1.368577589E+02  1.368577589E+02  0.000000000E+00  0.00000E+00  9.000E+00
      21    -1     0     0   501   512  0.000000000E+00  0.000000000E+00 -6.849822405E+02  6.849822405E+02  0.000000000E+00  0.00000E+00  9.000E+00
      25     1     1     2     0     0  1.654192611E+02  1.969666758E+01  1.337970040E+01  2.086995617E+02  1.250000000E+02  0.00000E+00  9.000E+00
      25     1     1     2     0     0 -1.773689969E+02 -4.194147109E+01 -5.064338239E+02  5.525568442E+02  1.250000000E+02  0.00000E+00  9.000E+00
      21     1     1     2   502   512  1.194973578E+01  2.224480352E+01 -5.507035812E+01  6.058359358E+01  0.000000000E+00  0.00000E+00  9.000E+00
#rwgt            1           1   3.5809678227654643E-002           6      275043           0
</event>
<event>
      5   9999  3.79277E-02  5.23245E+01 -1.00000E+00  1.37959E-01
      21    -1     0     0   502   501  0.000000000E+00  0.000000000E+00  6.743557048E+02  6.743557048E+02  0.000000000E+00  0.00000E+00  9.000E+00
      21    -1     0     0   501   511  0.000000000E+00  0.000000000E+00 -2.279411459E+02  2.279411459E+02  0.000000000E+00  0.00000E+00  9.000E+00
      25     1     1     2     0     0 -1.350964295E+01 -9.739220601E+01  4.901492287E+02  5.153047823E+02  1.250000000E+02  0.00000E+00  9.000E+00
      25     1     1     2     0     0 -3.479254111E+01  1.175106514E+02  1.218821481E+02  2.133061934E+02  1.250000000E+02  0.00000E+00  9.000E+00
      21     1     1     2   502   511  4.830218406E+01 -2.011844543E+01 -1.656168178E+02  1.736858750E+02  3.814697266E-06  0.00000E+00  9.000E+00
#rwgt            1           1   4.9952296354650837E-002           6      275248           0
</event>
<event>
      5   9999  3.79277E-02  1.48324E+01 -1.00000E+00  1.77844E-01
       1    -1     0     0   502     0  0.000000000E+00  0.000000000E+00  9.066558215E+02  9.066558215E+02  0.000000000E+00  0.00000E+00  9.000E+00
      21    -1     0     0   501   502  0.000000000E+00  0.000000000E+00 -1.730950713E+02  1.730950713E+02  0.000000000E+00  0.00000E+00  9.000E+00
      25     1     1     2     0     0 -9.745424075E+01  4.485754653E+01 -5.947808532E+01  1.751347229E+02  1.250000000E+02  0.00000E+00  9.000E+00
      25     1     1     2     0     0  8.649803408E+01 -5.485567017E+01  6.147559775E+01  1.729025840E+02  1.250000000E+02  0.00000E+00  9.000E+00
       1     1     1     2   501     0  1.095620667E+01  9.998123632E+00  7.315632377E+02  7.317135859E+02  1.078959322E-05  0.00000E+00  9.000E+00
#rwgt            1           1   4.6793011786833941E-002           6      275419           0
</event>
<event>
      5   9999 -3.79277E-02  1.68642E+01 -1.00000E+00  1.72721E-01
      21    -1     0     0   502   501  0.000000000E+00  0.000000000E+00  4.541722716E+01  4.541722716E+01  0.000000000E+00  0.00000E+00  9.000E+00
      21    -1     0     0   501   511  0.000000000E+00  0.000000000E+00 -1.141871671E+03  1.141871671E+03  0.000000000E+00  0.00000E+00  9.000E+00
      25     1     1     2     0     0 -1.099463408E+02  7.496407602E+01 -2.131716368E+02  2.806687679E+02  1.250000000E+02  0.00000E+00  9.000E+00
      25     1     1     2     0     0  1.044365037E+02 -9.090277724E+01 -7.817766838E+02  8.037226397E+02  1.250000000E+02  0.00000E+00  9.000E+00
      21     1     1     2   502   511  5.509837166E+00  1.593870121E+01 -1.015061229E+02  1.028974902E+02  1.348699152E-06  0.00000E+00  9.000E+00
#rwgt            1           1 -0.27936374653012658                6      275610           0
</event>
<event>
      5   9999  3.79277E-02  1.47823E+01 -1.00000E+00  1.77984E-01
      21    -1     0     0   502   512  0.000000000E+00  0.000000000E+00  1.136374097E+03  1.136374097E+03  0.000000000E+00  0.00000E+00  9.000E+00
      21    -1     0     0   501   502  0.000000000E+00  0.000000000E+00 -3.968414612E+01  3.968414612E+01  0.000000000E+00  0.00000E+00  9.000E+00
      25     1     1     2     0     0  2.072724573E+01 -4.339927941E+01  6.538496585E+02  6.674260199E+02  1.250000000E+02  0.00000E+00  9.000E+00
      25     1     1     2     0     0 -1.234739050E+01  3.122163781E+01  9.518421584E+01  1.606620169E+02  1.250000000E+02  0.00000E+00  9.000E+00
      21     1     1     2   501   512 -8.379855230E+00  1.217764161E+01  3.476560768E+02  3.479702066E+02  3.814697266E-06  0.00000E+00  9.000E+00
#rwgt            1           1   5.0461191870258049E-002           6      275823           0
</event>
<event>
      5   9999  3.79277E-02  5.94329E+01 -1.00000E+00  1.34924E-01
      21    -1     0     0   502   511  0.000000000E+00  0.000000000E+00  9.567344782E+02  9.567344782E+02  0.000000000E+00  0.00000E+00  9.000E+00
      21    -1     0     0   501   502  0.000000000E+00  0.000000000E+00 -3.118884219E+02  3.118884219E+02  0.000000000E+00  0.00000E+00  9.000E+00
      25     1     1     2     0     0  7.487850542E+01 -9.557816926E+01 -1.505164521E+02  2.302654541E+02  1.250000000E+02  0.00000E+00  9.000E+00
      25     1     1     2     0     0 -2.993672318E+01  1.344691126E+02 -4.863337366E+01  1.922715649E+02  1.250000000E+02  0.00000E+00  9.000E+00
      21     1     1     2   501   511 -4.494178224E+01 -3.889094330E+01  8.439958820E+02  8.460858811E+02  1.078959322E-05  0.00000E+00  9.000E+00
#rwgt            1           1   3.4724812593888682E-002           6      276082           0
</event>
<event>
      5   9999  3.79277E-02  3.47554E+01 -1.00000E+00  1.48730E-01
      21    -1     0     0   502   501  0.000000000E+00  0.000000000E+00  1.172832608E+02  1.172832608E+02  0.000000000E+00  0.00000E+00  9.000E+00
      21    -1     0     0   501   512  0.000000000E+00  0.000000000E+00 -1.021929637E+03  1.021929637E+03  0.000000000E+00  0.00000E+00  9.000E+00
      25     1     1     2     0     0  1.243997163E+02 -6.328319856E+01 -3.321424898E+01  1.902846262E+02  1.250000000E+02  0.00000E+00  9.000E+00
      25     1     1     2     0     0 -1.515174494E+02  4.154453333E+01 -2.249575806E+02  3.015201466E+02  1.250000000E+02  0.00000E+00  9.000E+00
      21     1     1     2   502   512  2.711773309E+01  2.173866524E+01 -6.464745462E+02  6.474081247E+02  0.000000000E+00  0.00000E+00  9.000E+00
#rwgt            1           1   4.7985619753057263E-002           6      276160           0
</event>
<event>
      5   9999  3.79277E-02  1.01677E+01 -1.00000E+00  1.94926E-01
      21    -1     0     0   502   501  0.000000000E+00  0.000000000E+00  2.395013111E+02  2.395013111E+02  0.000000000E+00  0.00000E+00  9.000E+00
      21    -1     0     0   501   511  0.000000000E+00  0.000000000E+00 -2.034666163E+02  2.034666163E+02  0.000000000E+00  0.00000E+00  9.000E+00
      25     1     1     2     0     0  1.371477005E+02  9.429001516E+01 -2.592694926E+01  2.097553465E+02  1.250000000E+02  0.00000E+00  9.000E+00
      25     1     1     2     0     0 -1.386691940E+02 -1.043432219E+02  6.308533319E+01  2.229829872E+02  1.250000000E+02  0.00000E+00  9.000E+00
      21     1     1     2   502   511  1.521493517E+00  1.005320675E+01 -1.123689182E+00  1.022959363E+01  2.091477640E-07  0.00000E+00  9.000E+00
#rwgt            1           1   4.1565779303847042E-002           6      276486           0
</event>
<event>
      5   9999  3.79277E-02  2.61394E+01 -1.00000E+00  1.57315E-01
      21    -1     0     0   502   512  0.000000000E+00  0.000000000E+00  6.316202080E+02  6.316202080E+02  0.000000000E+00  0.00000E+00  9.000E+00
      21    -1     0     0   501   502  0.000000000E+00  0.000000000E+00 -1.252600747E+02  1.252600747E+02  0.000000000E+00  0.00000E+00  9.000E+00
      25     1     1     2     0     0  2.219016107E+02  9.388688768E+01  2.067316134E+02  3.412008682E+02  1.250000000E+02  0.00000E+00  9.000E+00
      25     1     1     2     0     0 -1.970305863E+02 -8.584328617E+01  2.204055409E+02  3.322555104E+02  1.250000000E+02  0.00000E+00  9.000E+00
      21     1     1     2   501   512 -2.487102444E+01 -8.043601506E+00  7.922297898E+01  8.342390413E+01  1.348699152E-06  0.00000E+00  9.000E+00
#rwgt            1           1   3.5227196825550207E-002           6      276731           0
</event>
<event>
      5   9999  3.79277E-02  2.09951E+01 -1.00000E+00  1.64648E-01
      21    -1     0     0   502   511  0.000000000E+00  0.000000000E+00  1.898723539E+02  1.898723539E+02  0.000000000E+00  0.00000E+00  9.000E+00
      21    -1     0     0   501   502  0.000000000E+00  0.000000000E+00 -1.338983978E+02  1.338983978E+02  0.000000000E+00  0.00000E+00  9.000E+00
      25     1     1     2     0     0 -2.727258321E+01  4.793287970E+01  8.308412685E+01  1.599041178E+02  1.250000000E+02  0.00000E+00  9.000E+00
      25     1     1     2     0     0  1.743688478E+01 -2.938423989E+01 -4.407279888E+01  1.368754547E+02  1.250000000E+02  0.00000E+00  9.000E+00
      21     1     1     2   501   511  9.835698429E+00 -1.854863981E+01  1.696262815E+01  2.699117923E+01  3.371747881E-07  0.00000E+00  9.000E+00
#rwgt            1           1   7.6290187859167122E-002           6      277045           0
</event>
<event>
      5   9999  3.79277E-02  3.48440E+01 -1.00000E+00  1.48658E-01
      21    -1     0     0   512   501  0.000000000E+00  0.000000000E+00  2.149467667E+03  2.149467667E+03  0.000000000E+00  0.00000E+00  9.000E+00
      21    -1     0     0   501   502  0.000000000E+00  0.000000000E+00 -6.415520290E+01  6.415520290E+01  0.000000000E+00  0.00000E+00  9.000E+00
      25     1     1     2     0     0  2.658990780E+02 -1.002522223E+02  6.193073104E+02  6.927621327E+02  1.250000000E+02  0.00000E+00  9.000E+00
      25     1     1     2     0     0 -3.004181035E+02  1.049996974E+02  1.069393652E+03  1.122721584E+03  1.250000000E+02  0.00000E+00  9.000E+00
      21     1     1     2   512   502  3.451902550E+01 -4.747475100E+00  3.966115021E+02  3.981391531E+02  5.394796609E-06  0.00000E+00  9.000E+00
#rwgt            1           1   4.1794710463752265E-002           6      277189           0
</event>
<event>
      5   9999  3.79277E-02  1.15373E+02 -1.00000E+00  1.21098E-01
      21    -1     0     0   502   501  0.000000000E+00  0.000000000E+00  1.421206987E+02  1.421206987E+02  0.000000000E+00  0.00000E+00  9.000E+00
       2    -1     0     0   501     0  0.000000000E+00  0.000000000E+00 -2.691669852E+03  2.691669852E+03  0.000000000E+00  0.00000E+00  9.000E+00
      25     1     1     2     0     0 -3.301692143E+02 -1.031435019E+02 -3.807550303E+02  5.293861400E+02  1.250000000E+02  0.00000E+00  9.000E+00
      25     1     1     2     0     0  4.113581578E+02  2.117158026E+01 -6.401631497E+02  7.714257113E+02  1.250000000E+02  0.00000E+00  9.000E+00
       2     1     1     2   502     0 -8.118894350E+01  8.197192169E+01 -1.528630974E+03  1.532978700E+03  0.000000000E+00  0.00000E+00  9.000E+00
#rwgt            1           1   4.4805271533965428E-002           6      277380           0
</event>
<event>
      5   9999  3.79277E-02  6.84657E+01 -1.00000E+00  1.31710E-01
      21    -1     0     0   502   501  0.000000000E+00  0.000000000E+00  1.024010550E+03  1.024010550E+03  0.000000000E+00  0.00000E+00  9.000E+00
      21    -1     0     0   511   502  0.000000000E+00  0.000000000E+00 -1.259697676E+02  1.259697676E+02  0.000000000E+00  0.00000E+00  9.000E+00
      25     1     1     2     0     0 -1.721070589E+02 -6.404944089E+01  6.177016319E+02  6.564323854E+02  1.250000000E+02  0.00000E+00  9.000E+00
      25     1     1     2     0     0  2.392388694E+02  7.749831979E+01  3.105637142E+02  4.187075910E+02  1.250000000E+02  0.00000E+00  9.000E+00
      21     1     1     2   511   501 -6.713181044E+01 -1.344887890E+01 -3.022456414E+01  7.484034069E+01  1.066240300E-06  0.00000E+00  9.000E+00
#rwgt            1           1   3.2378604437327131E-002           6      277504           0
</event>
<event>
      5   9999  3.79277E-02  6.14642E+00 -1.00000E+00  2.23858E-01
      21    -1     0     0   502   501  0.000000000E+00  0.000000000E+00  9.150464127E+01  9.150464127E+01  0.000000000E+00  0.00000E+00  9.000E+00
      21    -1     0     0   501   512  0.000000000E+00  0.000000000E+00 -4.311181548E+02  4.311181548E+02  0.000000000E+00  0.00000E+00  9.000E+00
      25     1     1     2     0     0  1.062753559E+02  3.767954021E+01 -2.188770532E+02  2.761274406E+02  1.250000000E+02  0.00000E+00  9.000E+00
      25     1     1     2     0     0 -1.088927986E+02 -3.211829660E+01 -5.086786618E+01  1.763569289E+02  1.250000000E+02  0.00000E+00  9.000E+00
      21     1     1     2   502   512  2.617442653E+00 -5.561243603E+00 -6.986859420E+01  7.013842664E+01  9.536743164E-07  0.00000E+00  9.000E+00
#rwgt            1           1   3.0552241433256039E-002           6      277600           0
</event>
<event>
      5   9999  3.79277E-02  1.40997E+02 -1.00000E+00  1.17469E-01
      21    -1     0     0   511   501  0.000000000E+00  0.000000000E+00  3.626158841E+02  3.626158841E+02  0.000000000E+00  0.00000E+00  9.000E+00
      21    -1     0     0   501   502  0.000000000E+00  0.000000000E+00 -1.461540123E+02  1.461540123E+02  0.000000000E+00  0.00000E+00  9.000E+00
      25     1     1     2     0     0  1.600765364E+01  4.947775802E+01  1.258485392E+02  1.848435780E+02  1.250000000E+02  0.00000E+00  9.000E+00
      25     1     1     2     0     0 -3.901915590E+01  8.962926282E+01  4.574687592E+00  1.587508332E+02  1.250000000E+02  0.00000E+00  9.000E+00
      21     1     1     2   511   502  2.301150226E+01 -1.391070208E+02  8.603864499E+01  1.651754852E+02  3.015782986E-06  0.00000E+00  9.000E+00
#rwgt            1           1   3.7779300811668790E-002           6      277893           0
</event>
<event>
      5   9999  3.79277E-02  4.50408E+01 -1.00000E+00  1.41714E-01
      21    -1     0     0   502   501  0.000000000E+00  0.000000000E+00  2.259959918E+02  2.259959918E+02  0.000000000E+00  0.00000E+00  9.000E+00
      21    -1     0     0   501   512  0.000000000E+00  0.000000000E+00 -2.727321202E+02  2.727321202E+02  0.000000000E+00  0.00000E+00  9.000E+00
      25     1     1     2     0     0 -1.379571752E+02 -8.004587056E+01  7.104740083E+01  2.147376463E+02  1.250000000E+02  0.00000E+00  9.000E+00
      25     1     1     2     0     0  1.209146406E+02  1.217379278E+02 -1.067622676E+02  2.376208223E+02  1.250000000E+02  0.00000E+00  9.000E+00
      21     1     1     2   502   512  1.704253459E+01 -4.169205728E+01 -1.102126158E+01  4.636964343E+01  5.057621821E-07  0.00000E+00  9.000E+00
#rwgt            1           1   5.0123885885308452E-002           6      278014           0
</event>
<event>
      5   9999  3.79277E-02  1.58392E+02 -1.00000E+00  1.15464E-01
      21    -1     0     0   511   501  0.000000000E+00  0.000000000E+00  9.779163881E+02  9.779163881E+02  0.000000000E+00  0.00000E+00  9.000E+00
      21    -1     0     0   501   502  0.000000000E+00  0.000000000E+00 -1.218584594E+02  1.218584594E+02  0.000000000E+00  0.00000E+00  9.000E+00
      25     1     1     2     0     0 -1.413119629E+02 -8.447057401E+01  2.472886171E+02  3.223057692E+02  1.250000000E+02  0.00000E+00  9.000E+00
      25     1     1     2     0     0  2.954197669E+02  4.788096092E+01  3.868014710E+02  5.047829267E+02  1.250000000E+02  0.00000E+00  9.000E+00
      21     1     1     2   511   502 -1.541078040E+02  3.658961309E+01  2.219678406E+02  2.726861517E+02  2.697398305E-06  0.00000E+00  9.000E+00
#rwgt            1           1   3.7211599187738503E-002           6      278113           0
</event>
<event>
      5   9999  3.79277E-02  4.76862E+01 -1.00000E+00  1.40260E-01
      21    -1     0     0   502   501  0.000000000E+00  0.000000000E+00  6.560188694E+01  6.560188694E+01  0.000000000E+00  0.00000E+00  9.000E+00
      21    -1     0     0   501   512  0.000000000E+00  0.000000000E+00 -7.391282335E+02  7.391282335E+02  0.000000000E+00  0.00000E+00  9.000E+00
      25     1     1     2     0     0 -1.265179199E+02 -5.260792316E+01 -1.823807453E+02  2.601194224E+02  1.250000000E+02  0.00000E+00  9.000E+00
      25     1     1     2     0     0  1.314558951E+02  5.178111345E+00 -3.305952909E+02  3.771282429E+02  1.250000000E+02  0.00000E+00  9.000E+00
      21     1     1     2   502   512 -4.937975177E+00  4.742981182E+01 -1.605503104E+02  1.674824552E+02  0.000000000E+00  0.00000E+00  9.000E+00
#rwgt            1           1   3.5176668388810353E-002           6      278257           0
</event>
<event>
      5   9999  3.79277E-02  2.19432E+02 -1.00000E+00  1.10201E-01
      21    -1     0     0   511   501  0.000000000E+00  0.000000000E+00  1.926126075E+03  1.926126075E+03  0.000000000E+00  0.00000E+00  9.000E+00
      21    -1     0     0   501   502  0.000000000E+00  0.000000000E+00 -7.897971011E+01  7.897971011E+01  0.000000000E+00  0.00000E+00  9.000E+00
      25     1     1     2     0     0  1.076213404E+02 -8.819826824E+01  1.145448205E+02  2.193326317E+02  1.250000000E+02  0.00000E+00  9.000E+00
      25     1     1     2     0     0 -8.979218723E+01 -1.305081768E+02  6.292915935E+02  6.608539405E+02  1.250000000E+02  0.00000E+00  9.000E+00
      21     1     1     2   511   502 -1.782915314E+01  2.187064450E+02  1.103309951E+03  1.124919213E+03  0.000000000E+00  0.00000E+00  9.000E+00
#rwgt            2          11   6.6962365585593732E-004           6      278369           0
</event>
<event>
      5   9999  3.79277E-02  6.05826E+01 -1.00000E+00  1.34480E-01
      21    -1     0     0   502   501  0.000000000E+00  0.000000000E+00  2.080658354E+03  2.080658354E+03  0.000000000E+00  0.00000E+00  9.000E+00
      21    -1     0     0   501   512  0.000000000E+00  0.000000000E+00 -2.143653103E+02  2.143653103E+02  0.000000000E+00  0.00000E+00  9.000E+00
      25     1     1     2     0     0  1.776027287E+02  5.880503615E+01  1.111411295E+03  1.133958037E+03  1.250000000E+02  0.00000E+00  9.000E+00
      25     1     1     2     0     0 -2.353282013E+02 -4.041956905E+01  9.339325611E+02  9.720432771E+02  1.250000000E+02  0.00000E+00  9.000E+00
      21     1     1     2   502   512  5.772547255E+01 -1.838546710E+01 -1.790508126E+02  1.890223507E+02  8.529922400E-06  0.00000E+00  9.000E+00
#rwgt            1           1   9.4282497964556164E-002           6      278389           0
</event>
<event>
      5   9999  3.79277E-02  8.24705E+01 -1.00000E+00  1.27713E-01
      21    -1     0     0   502   501  0.000000000E+00  0.000000000E+00  1.924874233E+02  1.924874233E+02  0.000000000E+00  0.00000E+00  9.000E+00
      21    -1     0     0   511   502  0.000000000E+00  0.000000000E+00 -7.523855663E+02  7.523855663E+02  0.000000000E+00  0.00000E+00  9.000E+00
      25     1     1     2     0     0 -2.500982560E+02 -9.097696019E+01 -2.919550979E+02  4.143533807E+02  1.250000000E+02  0.00000E+00  9.000E+00
      25     1     1     2     0     0  3.305556724E+02  7.286647386E+01 -1.601018260E+02  3.947583695E+02  1.250000000E+02  0.00000E+00  9.000E+00
      21     1     1     2   511   501 -8.045741647E+01  1.811048633E+01 -1.078412191E+02  1.357612394E+02  1.907348633E-06  0.00000E+00  9.000E+00
#rwgt            1           1   6.5151996797680939E-002           6      278509           0
</event>
<event>
      5   9999  3.79277E-02  5.88711E+01 -1.00000E+00  1.35146E-01
      21    -1     0     0   502   501  0.000000000E+00  0.000000000E+00  6.576412575E+02  6.576412575E+02  0.000000000E+00  0.00000E+00  9.000E+00
      21    -1     0     0   512   502  0.000000000E+00  0.000000000E+00 -1.104375246E+02  1.104375246E+02  0.000000000E+00  0.00000E+00  9.000E+00
      25     1     1     2     0     0 -1.204363533E+02 -1.972183611E+01  4.879053633E+02  5.182378890E+02  1.250000000E+02  0.00000E+00  9.000E+00
      25     1     1     2     0     0  9.304698174E+01 -3.238986522E+01  9.062666796E+01  1.831530429E+02  1.250000000E+02  0.00000E+00  9.000E+00
      21     1     1     2   512   501  2.738937154E+01  5.211170132E+01 -3.132829831E+01  6.668785019E+01  8.259061849E-07  0.00000E+00  9.000E+00
#rwgt            1           1   4.2740395620664472E-002           6      278697           0
</event>
<event>
      5   9999  3.79277E-02  7.64249E+01 -1.00000E+00  1.29318E-01
      21    -1     0     0   502   501  0.000000000E+00  0.000000000E+00  1.135873489E+02  1.135873489E+02  0.000000000E+00  0.00000E+00  9.000E+00
      21    -1     0     0   501   511  0.000000000E+00  0.000000000E+00 -1.073810149E+03  1.073810149E+03  0.000000000E+00  0.00000E+00  9.000E+00
      25     1     1     2     0     0  1.425017679E+02  1.663190361E+02 -1.442508369E+02  2.905203600E+02  1.250000000E+02  0.00000E+00  9.000E+00
      25     1     1     2     0     0 -1.009622453E+02 -1.021689055E+02 -1.998667937E+02  2.760499872E+02  1.250000000E+02  0.00000E+00  9.000E+00
      21     1     1     2   502   511 -4.153952258E+01 -6.415013059E+01 -6.161051693E+02  6.208271505E+02  7.629394531E-06  0.00000E+00  9.000E+00
#rwgt            1           1   2.3629384361163571E-002           6      278943           0
</event>
<event>
      5   9999  3.79277E-02  4.25970E+01 -1.00000E+00  1.43166E-01
       1    -1     0     0   502     0  0.000000000E+00  0.000000000E+00  6.212887170E+02  6.212887170E+02  0.000000000E+00  0.00000E+00  9.000E+00
      21    -1     0     0   501   502  0.000000000E+00  0.000000000E+00 -5.941067919E+02  5.941067919E+02  0.000000000E+00  0.00000E+00  9.000E+00
      25     1     1     2     0     0  1.589336224E+02  5.544284798E+01 -5.196675608E+01  2.160077532E+02  1.250000000E+02  0.00000E+00  9.000E+00
      25     1     1     2     0     0 -1.212238331E+02 -7.525382935E+01 -4.396583904E+02  4.788348951E+02  1.250000000E+02  0.00000E+00  9.000E+00
       1     1     1     2   501     0 -3.770978925E+01  1.981098137E+01  5.188070715E+02  5.205528606E+02  0.000000000E+00  0.00000E+00  9.000E+00
#rwgt            2          17   8.3176573281147192E-004           6      279084           0
</event>
<event>
      5   9999  3.79277E-02  1.65010E+02 -1.00000E+00  1.14775E-01
      21    -1     0     0   502   501  0.000000000E+00  0.000000000E+00  1.598464439E+02  1.598464439E+02  0.000000000E+00  0.00000E+00  9.000E+00
      21    -1     0     0   511   502  0.000000000E+00  0.000000000E+00 -5.691242828E+02  5.691242828E+02  0.000000000E+00  0.00000E+00  9.000E+00
      25     1     1     2     0     0  9.004690217E+01 -3.701100459E+01 -1.593793304E+02  2.247332419E+02  1.250000000E+02  0.00000E+00  9.000E+00
      25     1     1     2     0     0 -2.108323283E+02 -7.541271076E+01 -8.300005129E+01  2.695391551E+02  1.250000000E+02  0.00000E+00  9.000E+00
      21     1     1     2   511   501  1.207854262E+02  1.124237154E+02 -1.668984572E+02  2.346983297E+02  1.907348633E-06  0.00000E+00  9.000E+00
#rwgt            2          11   1.8161984142604734E-003           6      279103           0
</event>
<event>
      5   9999  3.79277E-02  1.38400E+01 -1.00000E+00  1.80741E-01
      21    -1     0     0   502   512  0.000000000E+00  0.000000000E+00  1.420621814E+03  1.420621814E+03  0.000000000E+00  0.00000E+00  9.000E+00
      21    -1     0     0   501   502  0.000000000E+00  0.000000000E+00 -9.724576293E+01  9.724576293E+01  0.000000000E+00  0.00000E+00  9.000E+00
      25     1     1     2     0     0  1.342694069E+02 -1.773607354E+02  1.107410374E+03  1.136427666E+03  1.250000000E+02  0.00000E+00  9.000E+00
      25     1     1     2     0     0 -1.213803300E+02  1.824023271E+02  1.110410436E+02  2.756064346E+02  1.250000000E+02  0.00000E+00  9.000E+00
      21     1     1     2   501   512 -1.288907690E+01 -5.041591646E+00  1.049246328E+02  1.058334754E+02  0.000000000E+00  0.00000E+00  9.000E+00
#rwgt            1           1   4.7179493727834365E-002           6      279138           0
</event>
<event>
      5   9999  3.79277E-02  2.53257E+01 -1.00000E+00  1.58331E-01
      21    -1     0     0   502   501  0.000000000E+00  0.000000000E+00  4.955043193E+02  4.955043193E+02  0.000000000E+00  0.00000E+00  9.000E+00
      21    -1     0     0   511   502  0.000000000E+00  0.000000000E+00 -2.626044571E+02  2.626044571E+02  0.000000000E+00  0.00000E+00  9.000E+00
      25     1     1     2     0     0 -3.883337818E+01 -1.414914715E+02  3.444351547E+02  3.947004479E+02  1.250000000E+02  0.00000E+00  9.000E+00
      25     1     1     2     0     0  1.565482352E+01  1.312863458E+02  5.878800274E+01  1.912124665E+02  1.250000000E+02  0.00000E+00  9.000E+00
      21     1     1     2   511   501  2.317855466E+01  1.020512570E+01 -1.703232952E+02  1.721958620E+02  2.697398305E-06  0.00000E+00  9.000E+00
#rwgt            1           1   3.8828772260022001E-002           6      279377           0
</event>
<event>
      5   9999  3.79277E-02  4.13851E+01 -1.00000E+00  1.43929E-01
      21    -1     0     0   502   501  0.000000000E+00  0.000000000E+00  1.201878458E+03  1.201878458E+03  0.000000000E+00  0.00000E+00  9.000E+00
      21    -1     0     0   501   512  0.000000000E+00  0.000000000E+00 -4.684569499E+01  4.684569499E+01  0.000000000E+00  0.00000E+00  9.000E+00
      25     1     1     2     0     0  1.167787205E+01  5.492181434E+01  8.973211625E+02  9.077241029E+02  1.250000000E+02  0.00000E+00  9.000E+00
      25     1     1     2     0     0 -2.924857296E+01 -1.745183853E+01  2.685943756E+02  2.982079548E+02  1.250000000E+02  0.00000E+00  9.000E+00
      21     1     1     2   502   512  1.757070091E+01 -3.746997581E+01 -1.088277514E+01  4.279209521E+01  8.172577143E-07  0.00000E+00  9.000E+00
#rwgt            1           1   3.2637209978994088E-002           6      279561           0
</event>
<event>
      5   9999  3.79277E-02  4.47273E+01 -1.00000E+00  1.41894E-01
      21    -1     0     0   502   511  0.000000000E+00  0.000000000E+00  3.690918988E+02  3.690918988E+02  0.000000000E+00  0.00000E+00  9.000E+00
      21    -1     0     0   501   502  0.000000000E+00  0.000000000E+00 -3.349288126E+02  3.349288126E+02  0.000000000E+00  0.00000E+00  9.000E+00
      25     1     1     2     0     0  1.221772478E+02 -2.526001046E+02 -3.273441485E+01  3.089184919E+02  1.250000000E+02  0.00000E+00  9.000E+00
      25     1     1     2     0     0 -1.656998900E+02  2.629108117E+02  2.854287257E+01  3.361818615E+02  1.250000000E+02  0.00000E+00  9.000E+00
      21     1     1     2   501   511  4.352264218E+01 -1.031070712E+01  3.835462851E+01  5.892035804E+01  6.743495762E-07  0.00000E+00  9.000E+00
#rwgt            1           1   4.0572697932792147E-002           6      279702           0
</event>
<event>
      5   9999  3.79277E-02  4.44057E+01 -1.00000E+00  1.42081E-01
      21    -1     0     0   502   501  0.000000000E+00  0.000000000E+00  5.120368777E+02  5.120368777E+02  0.000000000E+00  0.00000E+00  9.000E+00
      21    -1     0     0   501   512  0.000000000E+00  0.000000000E+00 -3.483463647E+02  3.483463647E+02  0.000000000E+00  0.00000E+00  9.000E+00
      25     1     1     2     0     0 -2.405568724E+02 -8.351960188E+01  3.594150951E+02  4.578726279E+02  1.250000000E+02  0.00000E+00  9.000E+00
      25     1     1     2     0     0  2.751362345E+02  5.566039525E+01 -1.692354401E+02  3.508043063E+02  1.250000000E+02  0.00000E+00  9.000E+00
      21     1     1     2   502   512 -3.457936207E+01  2.785920663E+01 -2.648914201E+01  5.170630831E+01  1.011524364E-06  0.00000E+00  9.000E+00
#rwgt            1           1   4.8788829942347949E-002           6      279852           0
</event>
<event>
      5   9999  3.79277E-02  8.37603E+01 -1.00000E+00  1.27391E-01
      21    -1     0     0   502   501  0.000000000E+00  0.000000000E+00  2.126214279E+01  2.126214279E+01  0.000000000E+00  0.00000E+00  9.000E+00
      21    -1     0     0   511   502  0.000000000E+00  0.000000000E+00 -3.797630740E+03  3.797630740E+03  0.000000000E+00  0.00000E+00  9.000E+00
      25     1     1     2     0     0  1.101632863E+02 -1.328266921E+02 -6.691124586E+02  7.022217328E+02  1.250000000E+02  0.00000E+00  9.000E+00
      25     1     1     2     0     0 -6.178651682E+01  6.444919718E+01 -2.285812802E+03  2.290968450E+03  1.250000000E+02  0.00000E+00  9.000E+00
      21     1     1     2   511   501 -4.837676950E+01  6.837749493E+01 -8.214433360E+02  8.257026995E+02  1.078959322E-05  0.00000E+00  9.000E+00
#rwgt            1           1   3.8172353348599093E-002           6      280062           0
</event>
<event>
      5   9999  3.79277E-02  5.45314E+01 -1.00000E+00  1.36959E-01
      21    -1     0     0   502   512  0.000000000E+00  0.000000000E+00  1.562170345E+03  1.562170345E+03  0.000000000E+00  0.00000E+00  9.000E+00
      21    -1     0     0   501   502  0.000000000E+00  0.000000000E+00 -4.388514204E+02  4.388514204E+02  0.000000000E+00  0.00000E+00  9.000E+00
      25     1     1     2     0     0  1.165656336E+02 -4.171829866E+01 -3.189891342E+02  3.642897626E+02  1.250000000E+02  0.00000E+00  9.000E+00
      25     1     1     2     0     0 -9.695167680E+01  9.260021365E+01 -9.835274706E+00  1.835651378E+02  1.250000000E+02  0.00000E+00  9.000E+00
      21     1     1     2   501   512 -1.961395684E+01 -5.088191499E+01  1.452143334E+03  1.453166865E+03  2.157918644E-05  0.00000E+00  9.000E+00
#rwgt            1           1   3.5070697005090343E-002           6      280152           0
</event>
<event>
      5   9999  3.79277E-02  1.33866E+02 -1.00000E+00  1.18387E-01
      21    -1     0     0   502   501  0.000000000E+00  0.000000000E+00  1.159021640E+02  1.159021640E+02  0.000000000E+00  0.00000E+00  9.000E+00
      21    -1     0     0   501   511  0.000000000E+00  0.000000000E+00 -7.885128111E+02  7.885128111E+02  0.000000000E+00  0.00000E+00  9.000E+00
      25     1     1     2     0     0  2.014765071E+02  1.306408852E+01 -1.420650845E+02  2.767145489E+02  1.250000000E+02  0.00000E+00  9.000E+00
      25     1     1     2     0     0 -8.858288620E+01  5.887358857E+01 -1.429975342E+02  2.176839956E+02  1.250000000E+02  0.00000E+00  9.000E+00
      21     1     1     2   502   511 -1.128936209E+02 -7.193767709E+01 -3.875480284E+02  4.100164305E+02  5.394796609E-06  0.00000E+00  9.000E+00
#rwgt            1           1   3.9863487118843889E-002           6      280244           0
</event>
<event>
      5   9999  3.79277E-02  6.76409E+00 -1.00000E+00  2.17680E-01
      21    -1     0     0   502   501  0.000000000E+00  0.000000000E+00  6.119206839E+02  6.119206839E+02  0.000000000E+00  0.00000E+00  9.000E+00
      21    -1     0     0   512   502  0.000000000E+00  0.000000000E+00 -9.677795747E+01  9.677795747E+01  0.000000000E+00  0.00000E+00  9.000E+00
      25     1     1     2     0     0  1.084981450E+02  1.334521053E+02  1.661604938E+02  2.698436984E+02  1.250000000E+02  0.00000E+00  9.000E+00
      25     1     1     2     0     0 -1.062256593E+02 -1.398230367E+02  3.636345084E+02  4.227167231E+02  1.250000000E+02  0.00000E+00  9.000E+00
      21     1     1     2   512   501 -2.272485689E+00  6.370931342E+00 -1.465227572E+01  1.613821988E+01  4.460403188E-07  0.00000E+00  9.000E+00
#rwgt            1           1   3.3303012809344376E-002           6      280309           0
</event>
<event>
      5   9999  3.79277E-02  5.02901E+01 -1.00000E+00  1.38932E-01
      21    -1     0     0   502   501  0.000000000E+00  0.000000000E+00  5.258623205E+02  5.258623205E+02  0.000000000E+00  0.00000E+00  9.000E+00
      21    -1     0     0   501   511  0.000000000E+00  0.000000000E+00 -2.019268713E+02  2.019268713E+02  0.000000000E+00  0.00000E+00  9.000E+00
      25     1     1     2     0     0 -6.792013785E+01  2.184068063E+02  2.568256309E+02  3.659222361E+02  1.250000000E+02  0.00000E+00  9.000E+00
      25     1     1     2     0     0  2.855344578E+01 -1.871121143E+02  1.449552848E+02  2.691900391E+02  1.250000000E+02  0.00000E+00  9.000E+00
      21     1     1     2   502   511  3.936669207E+01 -3.129469201E+01 -7.784546659E+01  9.267691655E+01  9.536743164E-07  0.00000E+00  9.000E+00
#rwgt            1           1   4.5690848436981540E-002           6      280741           0
</event>
<event>
      5   9999  3.79277E-02  6.77160E+01 -1.00000E+00  1.31954E-01
      21    -1     0     0   502   501  0.000000000E+00  0.000000000E+00  4.768708044E+02  4.768708044E+02  0.000000000E+00  0.00000E+00  9.000E+00
      21    -1     0     0   501   512  0.000000000E+00  0.000000000E+00 -1.427622161E+02  1.427622161E+02  0.000000000E+00  0.00000E+00  9.000E+00
      25     1     1     2     0     0 -9.834286620E+01 -1.639052884E+01  1.325705922E+02  2.077015423E+02  1.250000000E+02  0.00000E+00  9.000E+00
      25     1     1     2     0     0  1.623584466E+02 -5.688055389E+00  2.539108812E+02  3.263255350E+02  1.250000000E+02  0.00000E+00  9.000E+00
      21     1     1     2   502   512 -6.401558042E+01  2.207858423E+01 -5.237288519E+01  8.560594325E+01  1.651812370E-06  0.00000E+00  9.000E+00
#rwgt            1           1  0.26609006202134794                6      280827           0
</event>
<event>
      5   9999  3.79277E-02  1.40118E+02 -1.00000E+00  1.17579E-01
      21    -1     0     0   502   511  0.000000000E+00  0.000000000E+00  3.897857465E+02  3.897857465E+02  0.000000000E+00  0.00000E+00  9.000E+00
      21    -1     0     0   501   502  0.000000000E+00  0.000000000E+00 -3.375533917E+02  3.375533917E+02  0.000000000E+00  0.00000E+00  9.000E+00
      25     1     1     2     0     0  2.466785200E+02  1.259786980E+02  2.982846024E+01  3.053451516E+02  1.250000000E+02  0.00000E+00  9.000E+00
      25     1     1     2     0     0 -1.066039140E+02 -1.294722606E+02 -1.037183192E+02  2.334736612E+02  1.250000000E+02  0.00000E+00  9.000E+00
      21     1     1     2   501   511 -1.400746060E+02  3.493562604E+00  1.261222138E+02  1.885203253E+02  3.303624740E-06  0.00000E+00  9.000E+00
#rwgt            1           1   4.0087702274679775E-002           6      281011           0
</event>
<event>
      5   9999  3.79277E-02  1.11404E+02 -1.00000E+00  1.21755E-01
      21    -1     0     0   502   501  0.000000000E+00  0.000000000E+00  2.167617514E+02  2.167617514E+02  0.000000000E+00  0.00000E+00  9.000E+00
      21    -1     0     0   512   502  0.000000000E+00  0.000000000E+00 -3.347642981E+02  3.347642981E+02  0.000000000E+00  0.00000E+00  9.000E+00
      25     1     1     2     0     0  1.409681550E+01  9.043753603E+01  8.835037588E+01  1.783492558E+02  1.250000000E+02  0.00000E+00  9.000E+00
      25     1     1     2     0     0  7.601292489E+01 -2.493171886E+01 -1.165975421E+01  1.488640495E+02  1.250000000E+02  0.00000E+00  9.000E+00
      21     1     1     2   512   501 -9.010974039E+01 -6.550581716E+01 -1.946931684E+02  2.243127442E+02  0.000000000E+00  0.00000E+00  9.000E+00
#rwgt            1           1  0.11062324790863155                6      281104           0
</event>
<event>
      5   9999  3.79277E-02  1.64108E+01 -1.00000E+00  1.73783E-01
      21    -1     0     0   502   511  0.000000000E+00  0.000000000E+00  1.630719466E+03  1.630719466E+03  0.000000000E+00  0.00000E+00  9.000E+00
      21    -1     0     0   501   502  0.000000000E+00  0.000000000E+00 -1.498706527E+02  1.498706527E+02  0.000000000E+00  0.00000E+00  9.000E+00
      25     1     1     2     0     0 -1.307102297E+02 -1.425602720E+02  1.201444346E+03  1.223316031E+03  1.250000000E+02  0.00000E+00  9.000E+00
      25     1     1     2     0     0  1.402488919E+02  1.292063424E+02 -4.503824870E+01  2.324165967E+02  1.250000000E+02  0.00000E+00  9.000E+00
      21     1     1     2   501   511 -9.538662163E+00  1.335392963E+01  3.244427157E+02  3.248574908E+02  3.814697266E-06  0.00000E+00  9.000E+00
#rwgt            1           1   3.0133900707265390E-002           6      281226           0
</event>
<event>
      5   9999 -3.79277E-02  6.19488E+01 -1.00000E+00  1.33966E-01
      21    -1     0     0   502   512  0.000000000E+00  0.000000000E+00  4.493643337E+01  4.493643337E+01  0.000000000E+00  0.00000E+00  9.000E+00
      21    -1     0     0   501   502  0.000000000E+00  0.000000000E+00 -1.379559587E+03  1.379559587E+03  0.000000000E+00  0.00000E+00  9.000E+00
      25     1     1     2     0     0  1.084571452E+02 -1.321380454E+02 -9.536026127E+02  9.768348675E+02  1.250000000E+02  0.00000E+00  9.000E+00
      25     1     1     2     0     0 -6.014035401E+01  9.336775292E+01 -2.293950082E+02  2.838687536E+02  1.250000000E+02  0.00000E+00  9.000E+00
      21     1     1     2   501   512 -4.831679118E+01  3.877029252E+01 -1.516255326E+02  1.637923992E+02  1.907348633E-06  0.00000E+00  9.000E+00
#rwgt            1           1  -3.4803380911255830E-002           6      281520           0
</event>
<event>
      5   9999  3.79277E-02  1.84422E+01 -1.00000E+00  1.69328E-01
      21    -1     0     0   502   501  0.000000000E+00  0.000000000E+00  4.829243560E+02  4.829243560E+02  0.000000000E+00  0.00000E+00  9.000E+00
      21    -1     0     0   511   502  0.000000000E+00  0.000000000E+00 -3.045733918E+02  3.045733918E+02  0.000000000E+00  0.00000E+00  9.000E+00
      25     1     1     2     0     0  1.841082448E+02  7.622356776E+01 -5.058613508E+01  2.406030656E+02  1.250000000E+02  0.00000E+00  9.000E+00
      25     1     1     2     0     0 -1.730298063E+02 -6.147962477E+01  3.553913470E+02  4.191026934E+02  1.250000000E+02  0.00000E+00  9.000E+00
      21     1     1     2   511   501 -1.107843859E+01 -1.474394299E+01 -1.264542477E+02  1.277919889E+02  1.348699152E-06  0.00000E+00  9.000E+00
#rwgt            1           1   2.8942614461375662E-002           6      281589           0
</event>
<event>
      5   9999  3.79277E-02  1.06129E+01 -1.00000E+00  1.92818E-01
       2    -1     0     0   502     0  0.000000000E+00  0.000000000E+00  1.471210751E+02  1.471210751E+02  0.000000000E+00  0.00000E+00  9.000E+00
      21    -1     0     0   501   502  0.000000000E+00  0.000000000E+00 -1.280908064E+03  1.280908064E+03  0.000000000E+00  0.00000E+00  9.000E+00
      25     1     1     2     0     0 -4.167182468E+01 -1.842096505E+02 -9.487427876E+01  2.455521637E+02  1.250000000E+02  0.00000E+00  9.000E+00
      25     1     1     2     0     0  3.802734548E+01  1.742421786E+02 -1.099553502E+03  1.120914501E+03  1.250000000E+02  0.00000E+00  9.000E+00
       2     1     1     2   501     0  3.644479206E+00  9.967471950E+00  6.064079123E+01  6.156247467E+01  1.348699152E-06  0.00000E+00  9.000E+00
#rwgt            1           1   3.6761671331137537E-002           6      281743           0
</event>
<event>
      5   9999  3.79277E-02  7.72243E+01 -1.00000E+00  1.29096E-01
      21    -1     0     0   502   501  0.000000000E+00  0.000000000E+00  1.631796453E+02  1.631796453E+02  0.000000000E+00  0.00000E+00  9.000E+00
      21    -1     0     0   501   511  0.000000000E+00  0.000000000E+00 -1.014113643E+03  1.014113643E+03  0.000000000E+00  0.00000E+00  9.000E+00
      25     1     1     2     0     0  6.216742826E+01 -2.106236125E+02 -8.080830878E+01  2.652962081E+02  1.250000000E+02  0.00000E+00  9.000E+00
      25     1     1     2     0     0 -9.500026240E+00  1.541458660E+02 -7.464995087E+01  2.122470581E+02  1.250000000E+02  0.00000E+00  9.000E+00
      21     1     1     2   502   511 -5.266740202E+01  5.647774646E+01 -6.954757382E+02  6.997500221E+02  7.629394531E-06  0.00000E+00  9.000E+00
#rwgt            1           1   3.2331729151751455E-002           6      282133           0
</event>
<event>
      5   9999 -4.58524E-02  5.91915E+01 -1.00000E+00  1.35019E-01
       2    -1     0     0   502     0  0.000000000E+00  0.000000000E+00  1.743164405E+03  1.743164405E+03  0.000000000E+00  0.00000E+00  9.000E+00
      21    -1     0     0   501   502  0.000000000E+00  0.000000000E+00 -3.790800619E+01  3.790800619E+01  0.000000000E+00  0.00000E+00  9.000E+00
      25     1     1     2     0     0  9.822780410E+01 -1.666026898E+02  7.176336716E+02  7.536764852E+02  1.250000000E+02  0.00000E+00  9.000E+00
      25     1     1     2     0     0 -1.018644539E+02  1.075230124E+02  5.009110770E+02  5.370981960E+02  1.250000000E+02  0.00000E+00  9.000E+00
       2     1     1     2   501     0  3.636649778E+00  5.907967735E+01  4.867116506E+02  4.902977303E+02  0.000000000E+00  0.00000E+00  9.000E+00
#rwgt            1           1 -0.39624610237905616                6      282229           0
</event>
<event>
      5   9999  3.79277E-02  1.29347E+02 -1.00000E+00  1.19002E-01
      21    -1     0     0   502   501  0.000000000E+00  0.000000000E+00  4.247079448E+02  4.247079448E+02  0.000000000E+00  0.00000E+00  9.000E+00
      21    -1     0     0   501   511  0.000000000E+00  0.000000000E+00 -7.652702290E+02  7.652702290E+02  0.000000000E+00  0.00000E+00  9.000E+00
      25     1     1     2     0     0 -1.828749451E+02 -2.659565379E+02 -1.527767129E+01  3.464600018E+02  1.250000000E+02  0.00000E+00  9.000E+00
      25     1     1     2     0     0  8.275156467E+01  3.478462212E+02  1.059415635E+02  3.933108566E+02  1.250000000E+02  0.00000E+00  9.000E+00
      21     1     1     2   502   511  1.001233804E+02 -8.188968328E+01 -4.312261765E+02  4.502073153E+02  0.000000000E+00  0.00000E+00  9.000E+00
#rwgt            1           1  0.11299779813838388                6      282425           0
</event>
<event>
      5   9999  3.79277E-02  2.29881E+01 -1.00000E+00  1.61529E-01
      21    -1     0     0   502   512  0.000000000E+00  0.000000000E+00  3.426940826E+02  3.426940826E+02  0.000000000E+00  0.00000E+00  9.000E+00
      21    -1     0     0   501   502  0.000000000E+00  0.000000000E+00 -1.863963297E+02  1.863963297E+02  0.000000000E+00  0.00000E+00  9.000E+00
      25     1     1     2     0     0  1.772314215E+02 -3.509668720E+00 -4.069666540E+01  2.206909901E+02  1.250000000E+02  0.00000E+00  9.000E+00
      25     1     1     2     0     0 -1.592666551E+02 -1.083334973E+01  1.384760370E+02  2.455276801E+02  1.250000000E+02  0.00000E+00  9.000E+00
      21     1     1     2   501   512 -1.796476645E+01  1.434301845E+01  5.851838128E+01  6.287174213E+01  0.000000000E+00  0.00000E+00  9.000E+00
#rwgt            1           1   3.8549649208470711E-002           6      282522           0
</event>
<event>
      5   9999  3.79277E-02  1.02847E+01 -1.00000E+00  1.94358E-01
      21    -1     0     0   502   501  0.000000000E+00  0.000000000E+00  4.917913140E+02  4.917913140E+02  0.000000000E+00  0.00000E+00  9.000E+00
      21    -1     0     0   511   502  0.000000000E+00  0.000000000E+00 -1.755387270E+02  1.755387270E+02  0.000000000E+00  0.00000E+00  9.000E+00
      25     1     1     2     0     0 -2.113460775E+02  2.851718834E+01  2.932964062E+02  3.835729089E+02  1.250000000E+02  0.00000E+00  9.000E+00
      25     1     1     2     0     0  2.011276036E+02 -2.968273624E+01  5.935794861E+01  2.459303638E+02  1.250000000E+02  0.00000E+00  9.000E+00
      21     1     1     2   511   501  1.021847390E+01  1.165547899E+00 -3.640176773E+01  3.782676836E+01  0.000000000E+00  0.00000E+00  9.000E+00
#rwgt            1           1   2.7515848612016031E-002           6      282746           0
</event>
<event>
      5   9999  3.79277E-02  3.81813E+01 -1.00000E+00  1.46105E-01
      21    -1     0     0   502   501  0.000000000E+00  0.000000000E+00  1.864213563E+02  1.864213563E+02  0.000000000E+00  0.00000E+00  9.000E+00
       1    -1     0     0   501     0  0.000000000E+00  0.000000000E+00 -1.616664624E+03  1.616664624E+03  0.000000000E+00  0.00000E+00  9.000E+00
      25     1     1     2     0     0 -1.131580120E+02 -1.894775072E+02 -1.307896197E+01  2.539734645E+02  1.250000000E+02  0.00000E+00  9.000E+00
      25     1     1     2     0     0  8.425479267E+01  2.144257648E+02 -1.958448802E+02  3.271964177E+02  1.250000000E+02  0.00000E+00  9.000E+00
       1     1     1     2   502     0  2.890321930E+01 -2.494825754E+01 -1.221319425E+03  1.221916098E+03  0.000000000E+00  0.00000E+00  9.000E+00
#rwgt            1           1   3.7883562037656908E-002           6      282941           0
</event>
<event>
      5   9999  3.79277E-02  1.73776E+01 -1.00000E+00  1.71568E-01
      21    -1     0     0   511   501  0.000000000E+00  0.000000000E+00  1.396833699E+03  1.396833699E+03  0.000000000E+00  0.00000E+00  9.000E+00
      21    -1     0     0   501   502  0.000000000E+00  0.000000000E+00 -3.958025992E+01  3.958025992E+01  0.000000000E+00  0.00000E+00  9.000E+00
      25     1     1     2     0     0 -9.057109837E+01  3.638582381E+01  1.076127236E+03  1.087750835E+03  1.250000000E+02  0.00000E+00  9.000E+00
      25     1     1     2     0     0  8.899799412E+01 -5.369202480E+01  1.664118850E+02  2.326400480E+02  1.250000000E+02  0.00000E+00  9.000E+00
      21     1     1     2   511   502  1.573104252E+00  1.730620099E+01  1.147143189E+02  1.160230762E+02  1.348699152E-06  0.00000E+00  9.000E+00
#rwgt            1           1   4.0864363685782654E-002           6      283141           0
</event>
<event>
      5   9999  3.79277E-02  2.28455E+01 -1.00000E+00  1.61739E-01
      21    -1     0     0   502   501  0.000000000E+00  0.000000000E+00  4.169299089E+02  4.169299089E+02  0.000000000E+00  0.00000E+00  9.000E+00
      21    -1     0     0   512   502  0.000000000E+00  0.000000000E+00 -1.145229029E+02  1.145229029E+02  0.000000000E+00  0.00000E+00  9.000E+00
      25     1     1     2     0     0 -1.285290609E+02 -6.569438316E+01  1.413019793E+02  2.375430926E+02  1.250000000E+02  0.00000E+00  9.000E+00
      25     1     1     2     0     0  1.396734090E+02  4.575141786E+01  1.802977244E+02  2.640721925E+02  1.250000000E+02  0.00000E+00  9.000E+00
      21     1     1     2   512   501 -1.114434806E+01  1.994296530E+01 -1.919269775E+01  2.983752680E+01  4.129530925E-07  0.00000E+00  9.000E+00
#rwgt            1           1   4.0518738091706100E-002           6      283347           0
</event>
<event>
      5   9999  3.79277E-02  2.96820E+01 -1.00000E+00  1.53362E-01
      21    -1     0     0   502   501  0.000000000E+00  0.000000000E+00  5.615422645E+02  5.615422645E+02  0.000000000E+00  0.00000E+00  9.000E+00
      21    -1     0     0   501   511  0.000000000E+00  0.000000000E+00 -2.075969645E+02  2.075969645E+02  0.000000000E+00  0.00000E+00  9.000E+00
      25     1     1     2     0     0 -1.222895859E+01  1.197934080E+02 -7.808861565E+01  1.903229885E+02  1.250000000E+02  0.00000E+00  9.000E+00
      25     1     1     2     0     0  8.322748529E+00 -1.492173022E+02  4.824532094E+02  5.203087263E+02  1.250000000E+02  0.00000E+00  9.000E+00
      21     1     1     2   502   511  3.906210062E+00  2.942389417E+01 -5.041929377E+01  5.850751413E+01  6.743495762E-07  0.00000E+00  9.000E+00
#rwgt            1           1   4.5578395932354791E-002           6      283474           0
</event>
<event>
      5   9999  3.79277E-02  1.77395E+01 -1.00000E+00  1.70785E-01
      21    -1     0     0   502   512  0.000000000E+00  0.000000000E+00  3.547342856E+02  3.547342856E+02  0.000000000E+00  0.00000E+00  9.000E+00
      21    -1     0     0   501   502  0.000000000E+00  0.000000000E+00 -5.930710522E+02  5.930710522E+02  0.000000000E+00  0.00000E+00  9.000E+00
      25     1     1     2     0     0  1.754925892E+02  7.385596944E+01 -3.956518677E+01  2.311768957E+02  1.250000000E+02  0.00000E+00  9.000E+00
      25     1     1     2     0     0 -1.738560703E+02 -5.619216359E+01 -4.305723819E+02  4.841498409E+02  1.250000000E+02  0.00000E+00  9.000E+00
      21     1     1     2   501   512 -1.636518890E+00 -1.766380585E+01  2.318008020E+02  2.324786013E+02  3.814697266E-06  0.00000E+00  9.000E+00
#rwgt            1           1   3.2878649697976665E-002           6      283679           0
</event>
<event>
      5   9999  3.79277E-02  5.01446E+01 -1.00000E+00  1.39004E-01
      21    -1     0     0   502   501  0.000000000E+00  0.000000000E+00  1.841717694E+03  1.841717694E+03  0.000000000E+00  0.00000E+00  9.000E+00
      21    -1     0     0   511   502  0.000000000E+00  0.000000000E+00 -1.126265001E+03  1.126265001E+03  0.000000000E+00  0.00000E+00  9.000E+00
      25     1     1     2     0     0 -1.296964142E+02 -9.684162870E+01  4.382630932E+02  4.836310575E+02  1.250000000E+02  0.00000E+00  9.000E+00
      25     1     1     2     0     0  1.445892376E+02  4.895967634E+01  1.373146155E+03  1.387248521E+03  1.250000000E+02  0.00000E+00  9.000E+00
      21     1     1     2   511   501 -1.489282346E+01  4.788195236E+01 -1.095956555E+03  1.097103116E+03  1.525878906E-05  0.00000E+00  9.000E+00
#rwgt            1           1   2.8314743397735584E-002           6      283919           0
</event>
<event>
      5   9999  3.79277E-02  4.84475E+02 -1.00000E+00  9.92427E-02
      21    -1     0     0   502   512  0.000000000E+00  0.000000000E+00  7.135727794E+02  7.135727794E+02  0.000000000E+00  0.00000E+00  9.000E+00
      21    -1     0     0   501   502  0.000000000E+00  0.000000000E+00 -6.124547608E+02  6.124547608E+02  0.000000000E+00  0.00000E+00  9.000E+00
      25     1     1     2     0     0 -9.862008739E+01 -2.895056722E+01  1.807861361E+02  2.426369386E+02  1.250000000E+02  0.00000E+00  9.000E+00
      25     1     1     2     0     0  4.765028283E+02 -2.742337441E+02 -1.735184848E+02  5.899091085E+02  1.250000000E+02  0.00000E+00  9.000E+00
      21     1     1     2   501   512 -3.778827409E+02  3.031843113E+02  9.385036738E+01  4.934814930E+02  7.387129490E-06  0.00000E+00  9.000E+00
#rwgt            1           1   2.2283132727231637E-002           6      284040           0
</event>
<event>
      5   9999  3.79277E-02  1.22109E+02 -1.00000E+00  1.20048E-01
       2    -1     0     0   502     0  0.000000000E+00  0.000000000E+00  2.054593710E+03  2.054593710E+03  0.000000000E+00  0.00000E+00  9.000E+00
      21    -1     0     0   501   502  0.000000000E+00  0.000000000E+00 -3.178402797E+02  3.178402797E+02  0.000000000E+00  0.00000E+00  9.000E+00
      25     1     1     2     0     0 -8.269771984E+01  2.177183252E+02 -2.074634629E+02  3.360152830E+02  1.250000000E+02  0.00000E+00  9.000E+00
      25     1     1     2     0     0  1.176749398E+02 -1.007265266E+02  1.811700463E+02  2.691483054E+02  1.250000000E+02  0.00000E+00  9.000E+00
       2     1     1     2   501     0 -3.497721993E+01 -1.169917986E+02  1.763046847E+03  1.767270401E+03  3.737624730E-05  0.00000E+00  9.000E+00
#rwgt            2          18   2.7104358157174829E-003           6      284118           0
</event>
<event>
      5   9999  3.79277E-02  1.65165E+01 -1.00000E+00  1.73532E-01
      21    -1     0     0   502   501  0.000000000E+00  0.000000000E+00  3.949622770E+02  3.949622770E+02  0.000000000E+00  0.00000E+00  9.000E+00
      21    -1     0     0   511   502  0.000000000E+00  0.000000000E+00 -1.297732909E+02  1.297732909E+02  0.000000000E+00  0.00000E+00  9.000E+00
      25     1     1     2     0     0  6.784419742E+01 -3.004860697E+01  3.914795862E+00  1.454169162E+02  1.250000000E+02  0.00000E+00  9.000E+00
      25     1     1     2     0     0 -6.818687289E+01  1.353570820E+01  3.026622227E+02  3.347567566E+02  1.250000000E+02  0.00000E+00  9.000E+00
      21     1     1     2   511   501  3.426754746E-01  1.651289877E+01 -4.138803246E+01  4.456189497E+01  6.743495762E-07  0.00000E+00  9.000E+00
#rwgt            1           1   2.6235139788875955E-002           6      284137           0
</event>
<event>
      5   9999  3.79277E-02  2.39494E+01 -1.00000E+00  1.60160E-01
      21    -1     0     0   502   512  0.000000000E+00  0.000000000E+00  3.516624648E+01  3.516624648E+01  0.000000000E+00  0.00000E+00  9.000E+00
      21    -1     0     0   501   502  0.000000000E+00  0.000000000E+00 -1.039520598E+03  1.039520598E+03  0.000000000E+00  0.00000E+00  9.000E+00
      25     1     1     2     0     0 -6.310731847E+01 -1.037074581E+02 -6.579517593E+02  6.806344746E+02  1.250000000E+02  0.00000E+00  9.000E+00
      25     1     1     2     0     0  3.995015506E+01  9.759848097E+01 -2.937146450E+02  3.361766962E+02  1.250000000E+02  0.00000E+00  9.000E+00
      21     1     1     2   501   512  2.315716341E+01  6.108977087E+00 -5.268794721E+01  5.787567364E+01  9.536743164E-07  0.00000E+00  9.000E+00
#rwgt            1           1   3.9124773359094749E-002           6      284281           0
</event>
<event>
      5   9999  3.79277E-02  6.99213E+01 -1.00000E+00  1.31245E-01
      21    -1     0     0   502   501  0.000000000E+00  0.000000000E+00  4.411229319E+02  4.411229319E+02  0.000000000E+00  0.00000E+00  9.000E+00
       2    -1     0     0   501     0  0.000000000E+00  0.000000000E+00 -3.074539242E+02  3.074539242E+02  0.000000000E+00  0.00000E+00  9.000E+00
      25     1     1     2     0     0  6.220927437E+01  1.057352200E+01  9.167266914E+01  1.673638893E+02  1.250000000E+02  0.00000E+00  9.000E+00
      25     1     1     2     0     0 -1.319990652E+02 -6.287852405E+00  2.795841572E+02  3.335499831E+02  1.250000000E+02  0.00000E+00  9.000E+00
       2     1     1     2   502     0  6.978979079E+01 -4.285669596E+00 -2.375878187E+02  2.476629836E+02  0.000000000E+00  0.00000E+00  9.000E+00
#rwgt            1           1   3.7825287341906273E-002           6      284469           0
</event>
<event>
      5   9999  3.79277E-02  3.18667E+01 -1.00000E+00  1.51241E-01
      21    -1     0     0   511   501  0.000000000E+00  0.000000000E+00  7.054149029E+02  7.054149029E+02  0.000000000E+00  0.00000E+00  9.000E+00
      21    -1     0     0   501   502  0.000000000E+00  0.000000000E+00 -6.487894998E+01  6.487894998E+01  0.000000000E+00  0.00000E+00  9.000E+00
      25     1     1     2     0     0  6.535430045E+01 -1.150763169E+02  2.152814461E+02  2.819305666E+02  1.250000000E+02  0.00000E+00  9.000E+00
      25     1     1     2     0     0 -8.108379076E+01  1.427903799E+02  3.449782908E+02  4.019934015E+02  1.250000000E+02  0.00000E+00  9.000E+00
      21     1     1     2   511   502  1.572949031E+01 -2.771406298E+01  8.027621603E+01  8.636988487E+01  9.536743164E-07  0.00000E+00  9.000E+00
#rwgt            1           1   3.3865001192421203E-002           6      284553           0
</event>
<event>
      5   9999  3.79277E-02  8.34991E+01 -1.00000E+00  1.27456E-01
      21    -1     0     0   502   501  0.000000000E+00  0.000000000E+00  1.182174029E+03  1.182174029E+03  0.000000000E+00  0.00000E+00  9.000E+00
      21    -1     0     0   512   502  0.000000000E+00  0.000000000E+00 -1.488378818E+02  1.488378818E+02  0.000000000E+00  0.00000E+00  9.000E+00
      25     1     1     2     0     0  2.084102982E+02  1.196118983E+02  4.771953688E+02  5.487096487E+02  1.250000000E+02  0.00000E+00  9.000E+00
      25     1     1     2     0     0 -1.249733247E+02 -1.228327620E+02  6.331347768E+02  6.687233097E+02  1.250000000E+02  0.00000E+00  9.000E+00
      21     1     1     2   512   501 -8.343697354E+01  3.220863705E+00 -7.699399872E+01  1.135789521E+02  2.861022949E-06  0.00000E+00  9.000E+00
#rwgt            1           1   2.8361365895437092E-002           6      284633           0
</event>
<event>
      5   9999 -3.79277E-02  2.72584E+01 -1.00000E+00  1.55988E-01
      21    -1     0     0   502   501  0.000000000E+00  0.000000000E+00  4.255212455E+02  4.255212455E+02  0.000000000E+00  0.00000E+00  9.000E+00
      21    -1     0     0   501   511  0.000000000E+00  0.000000000E+00 -8.223539192E+01  8.223539192E+01  0.000000000E+00  0.00000E+00  9.000E+00
      25     1     1     2     0     0  1.051993551E+02 -2.606245493E+01  1.588391789E+02  2.293491675E+02  1.250000000E+02  0.00000E+00  9.000E+00
      25     1     1     2     0     0 -1.163675484E+02  5.092793234E+01  1.744185080E+02  2.493629414E+02  1.250000000E+02  0.00000E+00  9.000E+00
      21     1     1     2   502   511  1.116819325E+01 -2.486547742E+01  1.002816658E+01  2.904452844E+01  4.616955931E-07  0.00000E+00  9.000E+00
#rwgt            1           1 -0.18415671864890892                6      284700           0
</event>
<event>
      5   9999  3.79277E-02  1.24087E+01 -1.00000E+00  1.85512E-01
      21    -1     0     0   512   501  0.000000000E+00  0.000000000E+00  1.909487562E+02  1.909487562E+02  0.000000000E+00  0.00000E+00  9.000E+00
      21    -1     0     0   501   502  0.000000000E+00  0.000000000E+00 -3.490488662E+02  3.490488662E+02  0.000000000E+00  0.00000E+00  9.000E+00
      25     1     1     2     0     0 -1.751470663E+02  7.127840432E+00 -5.146214075E+01  2.213609109E+02  1.250000000E+02  0.00000E+00  9.000E+00
      25     1     1     2     0     0  1.695225021E+02  3.932892446E+00 -1.595670328E+02  2.642725569E+02  1.250000000E+02  0.00000E+00  9.000E+00
      21     1     1     2   512   502  5.624564253E+00 -1.106073288E+01  5.292906354E+01  5.436415457E+01  6.743495762E-07  0.00000E+00  9.000E+00
#rwgt            1           1   2.4887466800895541E-002           6      285061           0
</event>
<event>
      5   9999  3.79277E-02  4.32987E+01 -1.00000E+00  1.42738E-01
      21    -1     0     0   502   501  0.000000000E+00  0.000000000E+00  6.467376257E+01  6.467376257E+01  0.000000000E+00  0.00000E+00  9.000E+00
      21    -1     0     0   501   511  0.000000000E+00  0.000000000E+00 -2.530563756E+03  2.530563756E+03  0.000000000E+00  0.00000E+00  9.000E+00
      25     1     1     2     0     0  1.128780112E+02 -2.782255005E+01 -2.017540374E+03  2.024749294E+03  1.250000000E+02  0.00000E+00  9.000E+00
      25     1     1     2     0     0 -1.457769959E+02 -3.276885589E-01 -9.454484835E+01  2.140438466E+02  1.250000000E+02  0.00000E+00  9.000E+00
      21     1     1     2   502   511  3.289898463E+01  2.815023861E+01 -3.538047710E+02  3.564443787E+02  6.607249480E-06  0.00000E+00  9.000E+00
#rwgt            1           1   3.9676372683473599E-002           6      285337           0
</event>
<event>
      5   9999  3.79277E-02  1.67077E+01 -1.00000E+00  1.73083E-01
       2    -1     0     0   502     0  0.000000000E+00  0.000000000E+00  4.791330216E+02  4.791330216E+02  0.000000000E+00  0.00000E+00  9.000E+00
      21    -1     0     0   501   502  0.000000000E+00  0.000000000E+00 -1.080869807E+02  1.080869807E+02  0.000000000E+00  0.00000E+00  9.000E+00
      25     1     1     2     0     0 -8.198232325E+01 -1.222811969E+02  9.009706646E+01  2.131109425E+02  1.250000000E+02  0.00000E+00  9.000E+00
      25     1     1     2     0     0  8.836323303E+01  1.377224676E+02  1.853061888E+02  2.770179103E+02  1.250000000E+02  0.00000E+00  9.000E+00
       2     1     1     2   501     0 -6.380909782E+00 -1.544127070E+01  9.564278571E+01  9.709114948E+01  0.000000000E+00  0.00000E+00  9.000E+00
#rwgt            1           1   3.8125424916027585E-002           6      285515           0
</event>
<event>
      5   9999  3.79277E-02  6.09426E+01 -1.00000E+00  1.34343E-01
      21    -1     0     0   502   501  0.000000000E+00  0.000000000E+00  1.926039434E+02  1.926039434E+02  0.000000000E+00  0.00000E+00  9.000E+00
      21    -1     0     0   501   511  0.000000000E+00  0.000000000E+00 -2.856393325E+02  2.856393325E+02  0.000000000E+00  0.00000E+00  9.000E+00
      25     1     1     2     0     0  7.326610143E+01 -1.116841517E+02  8.832050553E+01  2.031422730E+02  1.250000000E+02  0.00000E+00  9.000E+00
      25     1     1     2     0     0 -3.046621976E+01  6.830021100E+01 -1.339626069E+02  1.978991900E+02  1.250000000E+02  0.00000E+00  9.000E+00
      21     1     1     2   502   511 -4.279988167E+01  4.338394072E+01 -4.739328778E+01  7.720181286E+01  9.536743164E-07  0.00000E+00  9.000E+00
#rwgt            1           1   3.5659452941965625E-002           6      285769           0
</event>
<event>
      5   9999  3.79277E-02  3.89876E+01 -1.00000E+00  1.45534E-01
      21    -1     0     0   502   501  0.000000000E+00  0.000000000E+00  1.818286590E+02  1.818286590E+02  0.000000000E+00  0.00000E+00  9.000E+00
       2    -1     0     0   501     0  0.000000000E+00  0.000000000E+00 -1.567274041E+03  1.567274041E+03  0.000000000E+00  0.00000E+00  9.000E+00
      25     1     1     2     0     0 -1.571556890E+02  3.142800221E+01  5.663000505E+01  2.109919131E+02  1.250000000E+02  0.00000E+00  9.000E+00
      25     1     1     2     0     0  1.183799915E+02 -3.548758886E+01 -1.141013750E+02  2.095645846E+02  1.250000000E+02  0.00000E+00  9.000E+00
       2     1     1     2   502     0  3.877569760E+01  4.059586650E+00 -1.327974012E+03  1.328546202E+03  1.525878906E-05  0.00000E+00  9.000E+00
#rwgt            1           1   2.1766193644399173E-002           6      285883           0
</event>
<event>
      5   9999 -3.79277E-02  7.34882E+01 -1.00000E+00  1.30160E-01
      21    -1     0     0   502   501  0.000000000E+00  0.000000000E+00  1.324448176E+02  1.324448176E+02  0.000000000E+00  0.00000E+00  9.000E+00
      21    -1     0     0   501   511  0.000000000E+00  0.000000000E+00 -6.342869829E+02  6.342869829E+02  0.000000000E+00  0.00000E+00  9.000E+00
      25     1     1     2     0     0  1.299128891E+02 -2.732998953E+01 -2.970643927E+01  1.847478271E+02  1.250000000E+02  0.00000E+00  9.000E+00
      25     1     1     2     0     0 -2.029852846E+02  1.952389538E+01 -2.414003420E+02  3.398283881E+02  1.250000000E+02  0.00000E+00  9.000E+00
      21     1     1     2   502   511  7.307239545E+01  7.806094154E+00 -2.307353840E+02  2.421555853E+02  3.814697266E-06  0.00000E+00  9.000E+00
#rwgt            1           1  -2.9497705193653408E-002           6      286080           0
</event>
<event>
      5   9999  3.79277E-02  2.88392E+01 -1.00000E+00  1.54240E-01
      21    -1     0     0   502   501  0.000000000E+00  0.000000000E+00  2.087795834E+02  2.087795834E+02  0.000000000E+00  0.00000E+00  9.000E+00
      21    -1     0     0   512   502  0.000000000E+00  0.000000000E+00 -2.631181661E+02  2.631181661E+02  0.000000000E+00  0.00000E+00  9.000E+00
      25     1     1     2     0     0 -1.146265708E+01 -1.381162146E+02 -6.345298389E+01  1.971262601E+02  1.250000000E+02  0.00000E+00  9.000E+00
      25     1     1     2     0     0  1.547508261E+01  1.095575028E+02  8.946850436E+01  1.893988856E+02  1.250000000E+02  0.00000E+00  9.000E+00
      21     1     1     2   512   501 -4.012425529E+00  2.855871178E+01 -8.035410317E+01  8.537260376E+01  0.000000000E+00  0.00000E+00  9.000E+00
#rwgt            1           1   5.2774707637388375E-002           6      286200           0
</event>
<event>
      5   9999  3.79277E-02  7.97908E+01 -1.00000E+00  1.28405E-01
      21    -1     0     0   502   511  0.000000000E+00  0.000000000E+00  6.526599437E+02  6.526599437E+02  0.000000000E+00  0.00000E+00  9.000E+00
      21    -1     0     0   501   502  0.000000000E+00  0.000000000E+00 -9.368199224E+02  9.368199224E+02  0.000000000E+00  0.00000E+00  9.000E+00
      25     1     1     2     0     0 -1.775263125E+01  1.418884279E+02 -3.215557162E+01  1.926303784E+02  1.250000000E+02  0.00000E+00  9.000E+00
      25     1     1     2     0     0 -6.142381540E+01 -1.517709591E+02 -8.086704761E+02  8.344940072E+02  1.250000000E+02  0.00000E+00  9.000E+00
      21     1     1     2   501   511  7.917644665E+01  9.882531165E+00  5.566660690E+02  5.623554806E+02  7.629394531E-06  0.00000E+00  9.000E+00
#rwgt            1           1   5.1496165503005981E-002           6      286335           0
</event>
<event>
      5   9999 -3.79277E-02  1.00409E+02 -1.00000E+00  1.23748E-01
      21    -1     0     0   502   501  0.000000000E+00  0.000000000E+00  1.034781808E+02  1.034781808E+02  0.000000000E+00  0.00000E+00  9.000E+00
      21    -1     0     0   512   502  0.000000000E+00  0.000000000E+00 -9.224377452E+02  9.224377452E+02  0.000000000E+00  0.00000E+00  9.000E+00
      25     1     1     2     0     0 -1.505897814E+02 -1.407189217E+02 -1.342582056E+02  2.759154997E+02  1.250000000E+02  0.00000E+00  9.000E+00
      25     1     1     2     0     0  1.534054618E+02  4.034974539E+01 -3.996067497E+02  4.477408761E+02  1.250000000E+02  0.00000E+00  9.000E+00
      21     1     1     2   512   501 -2.815680445E+00  1.003691764E+02 -2.850946091E+02  3.022595503E+02  3.814697266E-06  0.00000E+00  9.000E+00
#rwgt            1           1 -0.12725170488427109                6      286416           0
</event>
<event>
      5   9999  3.79277E-02  7.36743E+01 -1.00000E+00  1.30105E-01
      21    -1     0     0   502   501  0.000000000E+00  0.000000000E+00  1.086697545E+02  1.086697545E+02  0.000000000E+00  0.00000E+00  9.000E+00
      21    -1     0     0   511   502  0.000000000E+00  0.000000000E+00 -4.679655670E+02  4.679655670E+02  0.000000000E+00  0.00000E+00  9.000E+00
      25     1     1     2     0     0 -7.286443943E+01 -2.490783920E+01 -8.807781321E+01  1.712084349E+02  1.250000000E+02  0.00000E+00  9.000E+00
      25     1     1     2     0     0  1.381536552E+02 -9.227493164E+00 -8.466514521E+01  2.048530349E+02  1.250000000E+02  0.00000E+00  9.000E+00
      21     1     1     2   511   501 -6.528921579E+01  3.413533236E+01 -1.865528542E+02  2.005738518E+02  2.697398305E-06  0.00000E+00  9.000E+00
#rwgt            1           1   3.6652079809552297E-002           6      286485           0
</event>
<event>
      5   9999  3.79277E-02  4.14704E+01 -1.00000E+00  1.43874E-01
      21    -1     0     0   512   501  0.000000000E+00  0.000000000E+00  4.810661792E+02  4.810661792E+02  0.000000000E+00  0.00000E+00  9.000E+00
      21    -1     0     0   501   502  0.000000000E+00  0.000000000E+00 -1.645385420E+02  1.645385420E+02  0.000000000E+00  0.00000E+00  9.000E+00
      25     1     1     2     0     0  3.575975447E+01 -1.642865422E+01  2.445071249E+02  2.774119588E+02  1.250000000E+02  0.00000E+00  9.000E+00
      25     1     1     2     0     0 -3.715264615E+01  5.787568460E+01 -1.108539283E+02  1.806751433E+02  1.250000000E+02  0.00000E+00  9.000E+00
      21     1     1     2   512   502  1.392891676E+00 -4.144703038E+01  1.828744405E+02  1.875176191E+02  2.697398305E-06  0.00000E+00  9.000E+00
#rwgt            1           1   4.2682565971162420E-002           6      286543           0
</event>
<event>
      5   9999  3.79277E-02  4.05592E+01 -1.00000E+00  1.44467E-01
      21    -1     0     0   502   511  0.000000000E+00  0.000000000E+00  9.389084106E+02  9.389084106E+02  0.000000000E+00  0.00000E+00  9.000E+00
      21    -1     0     0   501   502  0.000000000E+00  0.000000000E+00 -6.920586774E+01  6.920586774E+01  0.000000000E+00  0.00000E+00  9.000E+00
      25     1     1     2     0     0  1.353659557E+02 -4.347635711E+01  6.170256018E+02  6.454143854E+02  1.250000000E+02  0.00000E+00  9.000E+00
      25     1     1     2     0     0 -1.428974881E+02  3.622520101E+00  1.215897633E+02  2.254814523E+02  1.250000000E+02  0.00000E+00  9.000E+00
      21     1     1     2   501   511  7.531532441E+00  3.985383701E+01  1.310871777E+02  1.372184407E+02  3.303624740E-06  0.00000E+00  9.000E+00
#rwgt            1           1   4.0166439823217347E-002           6      286698           0
</event>
<event>
      5   9999  3.79277E-02  1.93321E+01 -1.00000E+00  1.67595E-01
      21    -1     0     0   502   512  0.000000000E+00  0.000000000E+00  6.260643265E+02  6.260643265E+02  0.000000000E+00  0.00000E+00  9.000E+00
      21    -1     0     0   501   502  0.000000000E+00  0.000000000E+00 -4.545934181E+01  4.545934181E+01  0.000000000E+00  0.00000E+00  9.000E+00
      25     1     1     2     0     0  5.557948593E+01  6.239660101E+01  1.570547208E+02  2.174249305E+02  1.250000000E+02  0.00000E+00  9.000E+00
      25     1     1     2     0     0 -3.624816241E+01 -6.256694642E+01  3.739004772E+02  4.008180621E+02  1.250000000E+02  0.00000E+00  9.000E+00
      21     1     1     2   501   512 -1.933132352E+01  1.703454168E-01  4.964978675E+01  5.328067577E+01  0.000000000E+00  0.00000E+00  9.000E+00
#rwgt            1           1   5.5302377211169915E-002           6      286848           0
</event>
<event>
      5   9999 -3.79277E-02  8.04902E+01 -1.00000E+00  1.28221E-01
      21    -1     0     0   502   511  0.000000000E+00  0.000000000E+00  1.185154751E+03  1.185154751E+03  0.000000000E+00  0.00000E+00  9.000E+00
      21    -1     0     0   501   502  0.000000000E+00  0.000000000E+00 -9.045503607E+01  9.045503607E+01  0.000000000E+00  0.00000E+00  9.000E+00
      25     1     1     2     0     0 -2.193839280E+01 -1.331281356E+02  2.476790585E+02  3.085033380E+02  1.250000000E+02  0.00000E+00  9.000E+00
      25     1     1     2     0     0  9.758274724E+01  1.606346550E+02  1.631413073E+02  2.785066806E+02  1.250000000E+02  0.00000E+00  9.000E+00
      21     1     1     2   501   511 -7.564435445E+01 -2.750651939E+01  6.838793488E+02  6.885997681E+02  1.321449896E-05  0.00000E+00  9.000E+00
#rwgt            1           1 -0.23110753310480039                6      287050           0
</event>
<event>
      5   9999  3.79277E-02  3.69732E+01 -1.00000E+00  1.46992E-01
      21    -1     0     0   502   512  0.000000000E+00  0.000000000E+00  2.143512723E+02  2.143512723E+02  0.000000000E+00  0.00000E+00  9.000E+00
      21    -1     0     0   501   502  0.000000000E+00  0.000000000E+00 -3.412902347E+02  3.412902347E+02  0.000000000E+00  0.00000E+00  9.000E+00
      25     1     1     2     0     0  1.222214779E+02  4.242891988E+01  4.528807365E+01  1.855109498E+02  1.250000000E+02  0.00000E+00  9.000E+00
      25     1     1     2     0     0 -1.502790652E+02 -6.650772193E+01 -2.252019396E+02  3.055290299E+02  1.250000000E+02  0.00000E+00  9.000E+00
      21     1     1     2   501   512  2.805758735E+01  2.407880204E+01  5.297490351E+01  6.460152721E+01  9.536743164E-07  0.00000E+00  9.000E+00
#rwgt            1           1   2.9865848195823927E-002           6      287113           0
</event>
<event>
      5   9999  3.79277E-02  7.69679E+01 -1.00000E+00  1.29167E-01
      21    -1     0     0   502   511  0.000000000E+00  0.000000000E+00  2.904811439E+02  2.904811439E+02  0.000000000E+00  0.00000E+00  9.000E+00
      21    -1     0     0   501   502  0.000000000E+00  0.000000000E+00 -3.316110775E+02  3.316110775E+02  0.000000000E+00  0.00000E+00  9.000E+00
      25     1     1     2     0     0 -3.649144743E+01  1.843904815E+02  7.003688766E+00  2.258440326E+02  1.250000000E+02  0.00000E+00  9.000E+00
      25     1     1     2     0     0  9.232412557E+01 -2.373694656E+02 -1.028862811E+02  3.017923031E+02  1.250000000E+02  0.00000E+00  9.000E+00
      21     1     1     2   501   511 -5.583267814E+01  5.297898408E+01  5.475265873E+01  9.445588568E+01  1.348699152E-06  0.00000E+00  9.000E+00
#rwgt            2          11   2.4481691854678486E-003           6      287323           0
</event>
<event>
      5   9999  3.79277E-02  4.45975E+01 -1.00000E+00  1.41969E-01
      21    -1     0     0   512   501  0.000000000E+00  0.000000000E+00  1.567162219E+03  1.567162219E+03  0.000000000E+00  0.00000E+00  9.000E+00
      21    -1     0     0   501   502  0.000000000E+00  0.000000000E+00 -2.563116321E+02  2.563116321E+02  0.000000000E+00  0.00000E+00  9.000E+00
      25     1     1     2     0     0  1.220946500E+02 -1.179531089E+02  8.037148474E+01  2.256205111E+02  1.250000000E+02  0.00000E+00  9.000E+00
      25     1     1     2     0     0 -1.005504259E+02  7.890466669E+01 -1.397385495E+02  2.269101073E+02  1.250000000E+02  0.00000E+00  9.000E+00
      21     1     1     2   512   502 -2.154422418E+01  3.904844223E+01  1.370217652E+03  1.370943233E+03  2.642899792E-05  0.00000E+00  9.000E+00
#rwgt            1           1   2.4936034937049465E-002           6      287388           0
</event>
<event>
      5   9999  3.79277E-02  9.98517E+01 -1.00000E+00  1.23857E-01
      21    -1     0     0   511   501  0.000000000E+00  0.000000000E+00  3.986056718E+02  3.986056718E+02  0.000000000E+00  0.00000E+00  9.000E+00
      21    -1     0     0   501   502  0.000000000E+00  0.000000000E+00 -3.038369900E+02  3.038369900E+02  0.000000000E+00  0.00000E+00  9.000E+00
      25     1     1     2     0     0  1.422106577E+02 -5.366918756E+00 -1.226633553E+02  2.256634080E+02  1.250000000E+02  0.00000E+00  9.000E+00
      25     1     1     2     0     0 -1.244439138E+02 -9.289145434E+01 -3.762905186E+01  2.028695529E+02  1.250000000E+02  0.00000E+00  9.000E+00
      21     1     1     2   511   502 -1.776674390E+01  9.825837310E+01  2.550610890E+02  2.739097008E+02  2.697398305E-06  0.00000E+00  9.000E+00
#rwgt            1           1   2.9280570853927396E-002           6      287499           0
</event>
<event>
      5   9999  3.79277E-02  2.12961E+01 -1.00000E+00  1.64150E-01
      21    -1     0     0   502   501  0.000000000E+00  0.000000000E+00  5.913172368E+02  5.913172368E+02  0.000000000E+00  0.00000E+00  9.000E+00
      21    -1     0     0   501   512  0.000000000E+00  0.000000000E+00 -1.346528280E+02  1.346528280E+02  0.000000000E+00  0.00000E+00  9.000E+00
      25     1     1     2     0     0  6.497851444E+01 -6.417172218E+01  4.124449234E+02  4.405406134E+02  1.250000000E+02  0.00000E+00  9.000E+00
      25     1     1     2     0     0 -5.147074686E+01  4.770765942E+01  1.321410969E+02  1.949654535E+02  1.250000000E+02  0.00000E+00  9.000E+00
      21     1     1     2   502   512 -1.350776758E+01  1.646406276E+01 -8.792161147E+01  9.046399788E+01  2.697398305E-06  0.00000E+00  9.000E+00
#rwgt            1           1   4.6223555362690995E-002           6      287695           0
</event>
<event>
      5   9999  3.79277E-02  1.12932E+02 -1.00000E+00  1.21498E-01
      21    -1     0     0   502   501  0.000000000E+00  0.000000000E+00  2.405545586E+02  2.405545586E+02  0.000000000E+00  0.00000E+00  9.000E+00
       1    -1     0     0   501     0  0.000000000E+00  0.000000000E+00 -9.168266234E+02  9.168266234E+02  0.000000000E+00  0.00000E+00  9.000E+00
      25     1     1     2     0     0 -2.919077176E+02  4.335567155E+00 -4.016634092E+02  5.120423879E+02  1.250000000E+02  0.00000E+00  9.000E+00
      25     1     1     2     0     0  4.011369405E+02 -3.301752604E+01 -9.318219991E+01  4.316351752E+02  1.250000000E+02  0.00000E+00  9.000E+00
       1     1     1     2   502     0 -1.092292229E+02  2.868195888E+01 -1.814264557E+02  2.137036189E+02  0.000000000E+00  0.00000E+00  9.000E+00
#rwgt            1           1   5.4306125790315685E-002           6      287806           0
</event>
<event>
      5   9999  3.79277E-02  4.48348E+01 -1.00000E+00  1.41832E-01
      -3    -1     0     0     0   501  0.000000000E+00  0.000000000E+00  8.985012735E+02  8.985012735E+02  0.000000000E+00  0.00000E+00  9.000E+00
      21    -1     0     0   501   502  0.000000000E+00  0.000000000E+00 -1.705247898E+02  1.705247898E+02  0.000000000E+00  0.00000E+00  9.000E+00
      25     1     1     2     0     0  2.096322043E+02  7.895926264E+00  9.291441095E+01  2.612778109E+02  1.250000000E+02  0.00000E+00  9.000E+00
      25     1     1     2     0     0 -2.443744118E+02  2.044382517E+01  1.366121804E+02  3.072860084E+02  1.250000000E+02  0.00000E+00  9.000E+00
      -3     1     1     2     0   502  3.474220748E+01 -2.833975143E+01  4.984498923E+02  5.004622440E+02  5.394796609E-06  0.00000E+00  9.000E+00
#rwgt            1           1  0.12315847897286940                6      287980           0
</event>
<event>
      5   9999  3.79277E-02  7.56124E+01 -1.00000E+00  1.29547E-01
      21    -1     0     0   502   501  0.000000000E+00  0.000000000E+00  9.053238044E+01  9.053238044E+01  0.000000000E+00  0.00000E+00  9.000E+00
      21    -1     0     0   501   511  0.000000000E+00  0.000000000E+00 -1.034369465E+03  1.034369465E+03  0.000000000E+00  0.00000E+00  9.000E+00
      25     1     1     2     0     0  1.805801870E+02  5.673942302E+01 -3.701764874E+02  4.341476683E+02  1.250000000E+02  0.00000E+00  9.000E+00
      25     1     1     2     0     0 -1.712413558E+02  1.829402351E+01 -1.498853175E+02  2.602861534E+02  1.250000000E+02  0.00000E+00  9.000E+00
      21     1     1     2   502   511 -9.338831227E+00 -7.503344653E+01 -4.237752798E+02  4.304680240E+02  0.000000000E+00  0.00000E+00  9.000E+00
#rwgt            1           1   4.7103854640218698E-002           6      288102           0
</event>
<event>
      5   9999  3.79277E-02  2.65726E+01 -1.00000E+00  1.56792E-01
      21    -1     0     0   502   501  0.000000000E+00  0.000000000E+00  4.669551534E+02  4.669551534E+02  0.000000000E+00  0.00000E+00  9.000E+00
      21    -1     0     0   501   512  0.000000000E+00  0.000000000E+00 -7.403754255E+02  7.403754255E+02  0.000000000E+00  0.00000E+00  9.000E+00
      25     1     1     2     0     0 -1.504367630E+02  3.830777832E+01  1.312249366E+02  2.386287693E+02  1.250000000E+02  0.00000E+00  9.000E+00
      25     1     1     2     0     0  1.564984554E+02 -6.417972836E+01  2.425054927E+02  3.210057913E+02  1.250000000E+02  0.00000E+00  9.000E+00
      21     1     1     2   502   512 -6.061692428E+00  2.587195005E+01 -6.471507013E+02  6.476960183E+02  7.629394531E-06  0.00000E+00  9.000E+00
#rwgt            1           1   3.2607028963824745E-002           6      288281           0
</event>
<event>
      5   9999  3.79277E-02  2.69410E+01 -1.00000E+00  1.56356E-01
      21    -1     0     0   511   501  0.000000000E+00  0.000000000E+00  4.000481582E+01  4.000481582E+01  0.000000000E+00  0.00000E+00  9.000E+00
      21    -1     0     0   501   502  0.000000000E+00  0.000000000E+00 -1.426651153E+03  1.426651153E+03  0.000000000E+00  0.00000E+00  9.000E+00
      25     1     1     2     0     0 -1.016889173E+02  1.089645211E+01 -9.696199249E+02  9.829787217E+02  1.250000000E+02  0.00000E+00  9.000E+00
      25     1     1     2     0     0  1.286207075E+02 -1.019098723E+01 -4.197718401E+02  4.565966933E+02  1.250000000E+02  0.00000E+00  9.000E+00
      21     1     1     2   511   502 -2.693179013E+01 -7.054648752E-01  2.745428135E+00  2.708055347E+01  1.280459825E-06  0.00000E+00  9.000E+00
#rwgt            1           1   3.0880803599131278E-002           6      288397           0
</event>
<event>
      5   9999  3.79277E-02  9.88706E+00 -1.00000E+00  1.96329E-01
      21    -1     0     0   502   512  0.000000000E+00  0.000000000E+00  5.694226353E+02  5.694226353E+02  0.000000000E+00  0.00000E+00  9.000E+00
      21    -1     0     0   501   502  0.000000000E+00  0.000000000E+00 -7.942840343E+01  7.942840343E+01  0.000000000E+00  0.00000E+00  9.000E+00
      25     1     1     2     0     0 -5.337863398E+01  4.087594125E+01  1.000433583E+01  1.422856559E+02  1.250000000E+02  0.00000E+00  9.000E+00
      25     1     1     2     0     0  5.371431003E+01 -5.075730389E+01  3.921784481E+02  4.181990747E+02  1.250000000E+02  0.00000E+00  9.000E+00
      21     1     1     2   501   512 -3.356760467E-01  9.881362639E+00  8.781144799E+01  8.836630808E+01  9.536743164E-07  0.00000E+00  9.000E+00
#rwgt            1           1   4.0664293899135680E-002           6      288544           0
</event>
<event>
      5   9999  3.79277E-02  1.82999E+01 -1.00000E+00  1.69617E-01
      21    -1     0     0   502   501  0.000000000E+00  0.000000000E+00  1.945843672E+03  1.945843672E+03  0.000000000E+00  0.00000E+00  9.000E+00
      21    -1     0     0   511   502  0.000000000E+00  0.000000000E+00 -2.643835585E+01  2.643835585E+01  0.000000000E+00  0.00000E+00  9.000E+00
      25     1     1     2     0     0  9.828981218E+01 -8.864852576E+01  1.516557453E+03  1.527445894E+03  1.250000000E+02  0.00000E+00  9.000E+00
      25     1     1     2     0     0 -8.102370146E+01  8.258481562E+01  3.610888377E+02  3.992433352E+02  1.250000000E+02  0.00000E+00  9.000E+00
      21     1     1     2   511   501 -1.726611072E+01  6.063710143E+00  4.175902524E+01  4.559279931E+01  4.768371582E-07  0.00000E+00  9.000E+00
#rwgt            1           1  0.13450512086978381                6      288786           0
</event>
<event>
      5   9999  3.79277E-02  5.30388E+01 -1.00000E+00  1.37629E-01
      21    -1     0     0   512   501  0.000000000E+00  0.000000000E+00  2.540600797E+02  2.540600797E+02  0.000000000E+00  0.00000E+00  9.000E+00
      21    -1     0     0   501   502  0.000000000E+00  0.000000000E+00 -2.537639811E+02  2.537639811E+02  0.000000000E+00  0.00000E+00  9.000E+00
      25     1     1     2     0     0 -7.206218959E+01  1.046170241E+02 -8.426572100E+01  1.971380040E+02  1.250000000E+02  0.00000E+00  9.000E+00
      25     1     1     2     0     0  7.256438870E+01 -1.576534095E+02  3.616515287E+00  2.139118212E+02  1.250000000E+02  0.00000E+00  9.000E+00
      21     1     1     2   512   502 -5.021991138E-01  5.303638546E+01  8.094530435E+01  9.677423564E+01  9.536743164E-07  0.00000E+00  9.000E+00
#rwgt            1           1   3.7061114905895004E-002           6      289098           0
</event>
<event>
      5   9999  3.79277E-02  7.72357E+01 -1.00000E+00  1.29093E-01
      21    -1     0     0   511   501  0.000000000E+00  0.000000000E+00  4.969243616E+02  4.969243616E+02  0.000000000E+00  0.00000E+00  9.000E+00
      21    -1     0     0   501   502  0.000000000E+00  0.000000000E+00 -1.283248762E+03  1.283248762E+03  0.000000000E+00  0.00000E+00  9.000E+00
      25     1     1     2     0     0  1.425915654E+02 -1.901770644E+02 -5.837618271E+02  6.425749304E+02  1.250000000E+02  0.00000E+00  9.000E+00
      25     1     1     2     0     0 -7.376871440E+01  1.551232971E+02 -6.498495553E+02  6.836918202E+02  1.250000000E+02  0.00000E+00  9.000E+00
      21     1     1     2   511   502 -6.882285104E+01  3.505376730E+01  4.472869819E+02  4.539063732E+02  1.078959322E-05  0.00000E+00  9.000E+00
#rwgt            1           1   3.3302416670050322E-002           6      289308           0
</event>
<event>
      5   9999  3.79277E-02  4.95222E+00 -1.00000E+00  2.43374E-01
      21    -1     0     0   502   501  0.000000000E+00  0.000000000E+00  6.090802208E+01  6.090802208E+01  0.000000000E+00  0.00000E+00  9.000E+00
      21    -1     0     0   501   512  0.000000000E+00  0.000000000E+00 -5.524330223E+02  5.524330223E+02  0.000000000E+00  0.00000E+00  9.000E+00
      25     1     1     2     0     0 -6.350229246E+01  8.269371945E+01 -3.632469717E+02  3.980504426E+02  1.250000000E+02  0.00000E+00  9.000E+00
      25     1     1     2     0     0  5.862640925E+01 -8.182754118E+01 -1.056922944E+02  1.921683206E+02  1.250000000E+02  0.00000E+00  9.000E+00
      21     1     1     2   502   512  4.875883211E+00 -8.661782716E-01 -2.258573402E+01  2.312228109E+01  3.371747881E-07  0.00000E+00  9.000E+00
#rwgt            1           1   2.8726683494316091E-002           6      289449           0
</event>
<event>
      5   9999  3.79277E-02  3.32473E+00 -1.00000E+00  2.83950E-01
      21    -1     0     0   502   501  0.000000000E+00  0.000000000E+00  1.503036580E+02  1.503036580E+02  0.000000000E+00  0.00000E+00  9.000E+00
      21    -1     0     0   511   502  0.000000000E+00  0.000000000E+00 -5.351078090E+02  5.351078090E+02  0.000000000E+00  0.00000E+00  9.000E+00
      25     1     1     2     0     0  1.432503579E+02  4.559359892E+01  3.827208921E+01  1.992214700E+02  1.250000000E+02  0.00000E+00  9.000E+00
      25     1     1     2     0     0 -1.450835973E+02 -4.836723745E+01 -2.777224044E+02  3.407981423E+02  1.250000000E+02  0.00000E+00  9.000E+00
      21     1     1     2   511   501  1.833239418E+00  2.773638525E+00 -1.453538358E+02  1.453918547E+02  1.907348633E-06  0.00000E+00  9.000E+00
#rwgt            1           1   3.0066154435778532E-002           6      289896           0
</event>
<event>
      5   9999  3.97659E-02  4.60316E+01 -1.00000E+00  1.41156E-01
      21    -1     0     0   502   501  0.000000000E+00  0.000000000E+00  4.633471274E+02  4.633471274E+02  0.000000000E+00  0.00000E+00  9.000E+00
      21    -1     0     0   501   512  0.000000000E+00  0.000000000E+00 -6.106890864E+02  6.106890864E+02  0.000000000E+00  0.00000E+00  9.000E+00
      25     1     1     2     0     0 -1.508801039E+02  2.471606499E+02  2.388008487E+02  3.956059124E+02  1.250000000E+02  0.00000E+00  9.000E+00
      25     1     1     2     0     0  1.276996850E+02 -2.073916267E+02  1.546357180E+01  2.741944902E+02  1.250000000E+02  0.00000E+00  9.000E+00
      21     1     1     2   502   512  2.318041893E+01 -3.976902317E+01 -4.016063795E+02  4.042358112E+02  5.394796609E-06  0.00000E+00  9.000E+00
#rwgt            1           1  0.27161564110317671                6      290337           0
</event>
<event>
      5   9999  3.79277E-02  2.81603E+01 -1.00000E+00  1.54974E-01
      21    -1     0     0   502   501  0.000000000E+00  0.000000000E+00  6.453806711E+02  6.453806711E+02  0.000000000E+00  0.00000E+00  9.000E+00
      21    -1     0     0   501   511  0.000000000E+00  0.000000000E+00 -5.612322308E+02  5.612322308E+02  0.000000000E+00  0.00000E+00  9.000E+00
      25     1     1     2     0     0  2.981009067E+01  1.842715509E+02  2.476144411E+02  3.343389858E+02  1.250000000E+02  0.00000E+00  9.000E+00
      25     1     1     2     0     0 -2.190752663E+00 -1.787786580E+02  3.203841618E+02  3.876049781E+02  1.250000000E+02  0.00000E+00  9.000E+00
      21     1     1     2   502   511 -2.761933800E+01 -5.492892982E+00 -4.838501626E+02  4.846689380E+02  0.000000000E+00  0.00000E+00  9.000E+00
#rwgt            1           1   2.8049176720467618E-002           6      290513           0
</event>
<event>
      5   9999  3.79277E-02  5.40640E+01 -1.00000E+00  1.37166E-01
      21    -1     0     0   502   501  0.000000000E+00  0.000000000E+00  5.107750539E+02  5.107750539E+02  0.000000000E+00  0.00000E+00  9.000E+00
      21    -1     0     0   501   512  0.000000000E+00  0.000000000E+00 -2.493288042E+02  2.493288042E+02  0.000000000E+00  0.00000E+00  9.000E+00
      25     1     1     2     0     0 -3.023050060E+01 -1.561142037E+01  1.056087486E+02  1.671400831E+02  1.250000000E+02  0.00000E+00  9.000E+00
      25     1     1     2     0     0  7.950099642E+01  3.786747761E+01  3.550345570E+02  3.865603329E+02  1.250000000E+02  0.00000E+00  9.000E+00
      21     1     1     2   502   512 -4.927049582E+01 -2.225605723E+01 -1.991970558E+02  2.064034421E+02  3.814697266E-06  0.00000E+00  9.000E+00
#rwgt            1           1   9.0325320396745679E-002           6      290691           0
</event>
<event>
      5   9999  3.79277E-02  1.41281E+01 -1.00000E+00  1.79869E-01
      21    -1     0     0   511   501  0.000000000E+00  0.000000000E+00  2.928738776E+02  2.928738776E+02  0.000000000E+00  0.00000E+00  9.000E+00
      21    -1     0     0   501   502  0.000000000E+00  0.000000000E+00 -1.596155571E+02  1.596155571E+02  0.000000000E+00  0.00000E+00  9.000E+00
      25     1     1     2     0     0 -1.011815037E+02 -6.214186212E+01  1.289275333E+02  2.152826435E+02  1.250000000E+02  0.00000E+00  9.000E+00
      25     1     1     2     0     0  8.970737792E+01  7.038497391E+01 -5.367642535E+01  1.775038502E+02  1.250000000E+02  0.00000E+00  9.000E+00
      21     1     1     2   511   502  1.147412580E+01 -8.243111787E+00  5.800721253E+01  5.970294097E+01  9.536743164E-07  0.00000E+00  9.000E+00
#rwgt            1           1   3.3693630258757448E-002           6      290786           0
</event>
<event>
      5   9999  3.79277E-02  8.59258E+00 -1.00000E+00  2.03694E-01
      21    -1     0     0   512   501  0.000000000E+00  0.000000000E+00  2.416465307E+01  2.416465307E+01  0.000000000E+00  0.00000E+00  9.000E+00
      21    -1     0     0   501   502  0.000000000E+00  0.000000000E+00 -2.258945937E+03  2.258945937E+03  0.000000000E+00  0.00000E+00  9.000E+00
      25     1     1     2     0     0 -1.020699799E+02 -1.161672227E+02 -1.627587442E+03  1.639688685E+03  1.250000000E+02  0.00000E+00  9.000E+00
      25     1     1     2     0     0  1.075215308E+02  1.095254572E+02 -6.011929821E+02  6.329413141E+02  1.250000000E+02  0.00000E+00  9.000E+00
      21     1     1     2   512   502 -5.451550920E+00  6.641765494E+00 -6.000859984E+00  1.048059048E+01  8.429369702E-08  0.00000E+00  9.000E+00
#rwgt            2          11   6.0687784339246102E-003           6      291113           0
</event>
<event>
      5   9999  3.79277E-02  6.36531E+01 -1.00000E+00  1.33346E-01
      21    -1     0     0   502   501  0.000000000E+00  0.000000000E+00  3.109171162E+02  3.109171162E+02  0.000000000E+00  0.00000E+00  9.000E+00
      21    -1     0     0   501   511  0.000000000E+00  0.000000000E+00 -1.949045395E+02  1.949045395E+02  0.000000000E+00  0.00000E+00  9.000E+00
      25     1     1     2     0     0  1.618450084E+02 -1.969964269E+01  8.847525142E+01  2.236844938E+02  1.250000000E+02  0.00000E+00  9.000E+00
      25     1     1     2     0     0 -9.921598208E+01  3.107191343E+01  9.587299302E+01  1.887482601E+02  1.250000000E+02  0.00000E+00  9.000E+00
      21     1     1     2   502   511 -6.262902629E+01 -1.137227074E+01 -6.833566773E+01  9.338890169E+01  1.348699152E-06  0.00000E+00  9.000E+00
#rwgt            1           1   1.9605071312933601E-002           6      291133           0
</event>
<event>
      5   9999  3.79277E-02  6.78734E+01 -1.00000E+00  1.31903E-01
      21    -1     0     0   502   501  0.000000000E+00  0.000000000E+00  3.068637068E+02  3.068637068E+02  0.000000000E+00  0.00000E+00  9.000E+00
      21    -1     0     0   501   512  0.000000000E+00  0.000000000E+00 -4.097786016E+02  4.097786016E+02  0.000000000E+00  0.00000E+00  9.000E+00
      25     1     1     2     0     0 -7.849265479E+01 -6.150256671E+01  2.141096984E+02  2.672295371E+02  1.250000000E+02  0.00000E+00  9.000E+00
      25     1     1     2     0     0  4.354063057E+01  1.196846277E+02 -6.745073578E+01  1.907742079E+02  1.250000000E+02  0.00000E+00  9.000E+00
      21     1     1     2   502   512  3.495202422E+01 -5.818206103E+01 -2.495738574E+02  2.586385635E+02  4.672030912E-06  0.00000E+00  9.000E+00
#rwgt            1           1   4.8339447168124994E-002           6      291220           0
</event>
<event>
      5   9999  3.79277E-02  2.38524E+02 -1.00000E+00  1.08932E-01
      21    -1     0     0   502   501  0.000000000E+00  0.000000000E+00  4.529915832E+02  4.529915832E+02  0.000000000E+00  0.00000E+00  9.000E+00
      21    -1     0     0   511   502  0.000000000E+00  0.000000000E+00 -3.718047954E+02  3.718047954E+02  0.000000000E+00  0.00000E+00  9.000E+00
      25     1     1     2     0     0  2.879776567E+02  5.027929567E+01  2.093034050E+02  3.806468884E+02  1.250000000E+02  0.00000E+00  9.000E+00
      25     1     1     2     0     0 -7.447031172E+01  5.606086788E+01 -1.339368185E+02  2.055546632E+02  1.250000000E+02  0.00000E+00  9.000E+00
      21     1     1     2   511   501 -2.135073449E+02 -1.063401635E+02  5.820201234E+00  2.385948270E+02  3.854536108E-06  0.00000E+00  9.000E+00
#rwgt            1           1   4.7251289406711777E-002           6      291347           0
</event>
<event>
      5   9999  3.79277E-02  1.39151E+02 -1.00000E+00  1.17701E-01
      21    -1     0     0   502   512  0.000000000E+00  0.000000000E+00  5.508327302E+02  5.508327302E+02  0.000000000E+00  0.00000E+00  9.000E+00
      21    -1     0     0   501   502  0.000000000E+00  0.000000000E+00 -3.895358910E+02  3.895358910E+02  0.000000000E+00  0.00000E+00  9.000E+00
      25     1     1     2     0     0  1.745297353E+02 -7.870083167E+01 -2.005455504E+02  3.041347846E+02  1.250000000E+02  0.00000E+00  9.000E+00
      25     1     1     2     0     0 -2.730398085E+02 -1.957775984E+01  6.424561254E+01  3.077117554E+02  1.250000000E+02  0.00000E+00  9.000E+00
      21     1     1     2   501   512  9.851007325E+01  9.827859150E+01  2.975967771E+02  3.285220811E+02  0.000000000E+00  0.00000E+00  9.000E+00
#rwgt            1           1   3.6242673636753306E-002           6      291505           0
</event>
<event>
      5   9999  3.79277E-02  9.16487E+01 -1.00000E+00  1.25556E-01
      21    -1     0     0   502   511  0.000000000E+00  0.000000000E+00  1.619947394E+03  1.619947394E+03  0.000000000E+00  0.00000E+00  9.000E+00
      21    -1     0     0   501   502  0.000000000E+00  0.000000000E+00 -1.286167799E+02  1.286167799E+02  0.000000000E+00  0.00000E+00  9.000E+00
      25     1     1     2     0     0 -7.566708270E+01  3.230683283E+02  8.129554507E+02  8.869161274E+02  1.250000000E+02  0.00000E+00  9.000E+00
      25     1     1     2     0     0  6.056995596E+01 -2.326715970E+02  1.209636712E+02  2.967524243E+02  1.250000000E+02  0.00000E+00  9.000E+00
      21     1     1     2   501   511  1.509712673E+01 -9.039673138E+01  5.574114919E+02  5.648956219E+02  0.000000000E+00  0.00000E+00  9.000E+00
#rwgt            1           1  0.21098521430175377                6      291561           0
</event>
<event>
      5   9999  3.79277E-02  4.49971E+01 -1.00000E+00  1.41739E-01
      21    -1     0     0   502   501  0.000000000E+00  0.000000000E+00  1.115213405E+03  1.115213405E+03  0.000000000E+00  0.00000E+00  9.000E+00
      21    -1     0     0   512   502  0.000000000E+00  0.000000000E+00 -1.103305693E+02  1.103305693E+02  0.000000000E+00  0.00000E+00  9.000E+00
      25     1     1     2     0     0 -2.136727800E+02 -8.121640097E+00  6.655112480E+02  7.101072026E+02  1.250000000E+02  0.00000E+00  9.000E+00
      25     1     1     2     0     0  1.706258572E+02  2.122504736E+01  3.921619397E+02  4.460713763E+02  1.250000000E+02  0.00000E+00  9.000E+00
      21     1     1     2   512   501  4.304692274E+01 -1.310340726E+01 -5.279035193E+01  6.936539552E+01  2.023048729E-06  0.00000E+00  9.000E+00
#rwgt            1           1   3.4758938945315718E-002           6      291666           0
</event>
<event>
      5   9999 -3.79277E-02  1.36213E+02 -1.00000E+00  1.18078E-01
      21    -1     0     0   502   511  0.000000000E+00  0.000000000E+00  6.493670152E+02  6.493670152E+02  0.000000000E+00  0.00000E+00  9.000E+00
      21    -1     0     0   501   502  0.000000000E+00  0.000000000E+00 -1.944796814E+02  1.944796814E+02  0.000000000E+00  0.00000E+00  9.000E+00
      25     1     1     2     0     0  1.661439000E+01 -1.651585950E+02  1.284932907E+02  2.443131704E+02  1.250000000E+02  0.00000E+00  9.000E+00
      25     1     1     2     0     0 -3.208583788E+01  2.982718977E+01 -9.085074789E+01  1.606176224E+02  1.250000000E+02  0.00000E+00  9.000E+00
      21     1     1     2   501   511  1.547144788E+01  1.353314053E+02  4.172447910E+02  4.389159038E+02  0.000000000E+00  0.00000E+00  9.000E+00
#rwgt            1           1  -9.7838981222848384E-002           6      291813           0
</event>
<event>
      5   9999  3.79277E-02  8.36594E+01 -1.00000E+00  1.27416E-01
      21    -1     0     0   512   501  0.000000000E+00  0.000000000E+00  3.542099974E+02  3.542099974E+02  0.000000000E+00  0.00000E+00  9.000E+00
      21    -1     0     0   501   502  0.000000000E+00  0.000000000E+00 -1.993232846E+02  1.993232846E+02  0.000000000E+00  0.00000E+00  9.000E+00
      25     1     1     2     0     0 -1.290646602E+02 -3.427984211E+01 -6.591654690E+01  1.944293837E+02  1.250000000E+02  0.00000E+00  9.000E+00
      25     1     1     2     0     0  1.147017848E+02 -4.813742809E+01  7.633469967E+01  1.921606042E+02  1.250000000E+02  0.00000E+00  9.000E+00
      21     1     1     2   512   502  1.436287540E+01  8.241727021E+01  1.444685600E+02  1.669432941E+02  1.907348633E-06  0.00000E+00  9.000E+00
#rwgt            1           1   3.7206367655568777E-002           6      291874           0
</event>
<event>
      5   9999  3.79277E-02  3.17318E+01 -1.00000E+00  1.51366E-01
      21    -1     0     0   502   501  0.000000000E+00  0.000000000E+00  5.615905299E+01  5.615905299E+01  0.000000000E+00  0.00000E+00  9.000E+00
       2    -1     0     0   501     0  0.000000000E+00  0.000000000E+00 -1.495683710E+03  1.495683710E+03  0.000000000E+00  0.00000E+00  9.000E+00
      25     1     1     2     0     0 -6.606673950E+01 -7.266531824E+01 -7.937702317E+01  1.776816658E+02  1.250000000E+02  0.00000E+00  9.000E+00
      25     1     1     2     0     0  8.072267864E+01  4.452089740E+01 -1.247434184E+03  1.257066149E+03  1.250000000E+02  0.00000E+00  9.000E+00
       2     1     1     2   502     0 -1.465593913E+01  2.814442085E+01 -1.127134502E+02  1.170949480E+02  1.348699152E-06  0.00000E+00  9.000E+00
#rwgt            1           1   4.0047367797091858E-002           6      292011           0
</event>
<event>
      5   9999  3.79277E-02  5.54731E+01 -1.00000E+00  1.36550E-01
      21    -1     0     0   502   511  0.000000000E+00  0.000000000E+00  8.329355765E+01  8.329355765E+01  0.000000000E+00  0.00000E+00  9.000E+00
      21    -1     0     0   501   502  0.000000000E+00  0.000000000E+00 -2.609290990E+03  2.609290990E+03  0.000000000E+00  0.00000E+00  9.000E+00
      25     1     1     2     0     0  9.385702156E+01  1.088235367E+02 -1.751956784E+03  1.762279568E+03  1.250000000E+02  0.00000E+00  9.000E+00
      25     1     1     2     0     0 -8.757045802E+01 -1.639393112E+02 -8.250687590E+02  8.549316580E+02  1.250000000E+02  0.00000E+00  9.000E+00
      21     1     1     2   501   511 -6.286563538E+00  5.511577444E+01  5.102811091E+01  7.537332138E+01  3.504023184E-06  0.00000E+00  9.000E+00
#rwgt            1           1   2.0396116157288403E-002           6      292190           0
</event>
<event>
      5   9999  3.79277E-02  1.48078E+01 -1.00000E+00  1.77913E-01
      21    -1     0     0   502   501  0.000000000E+00  0.000000000E+00  1.744349332E+03  1.744349332E+03  0.000000000E+00  0.00000E+00  9.000E+00
      21    -1     0     0   512   502  0.000000000E+00  0.000000000E+00 -2.698024917E+01  2.698024917E+01  0.000000000E+00  0.00000E+00  9.000E+00
      25     1     1     2     0     0 -2.554015924E+01  1.649392637E+02  7.541433171E+02  7.824413097E+02  1.250000000E+02  0.00000E+00  9.000E+00
      25     1     1     2     0     0  3.086378027E+01 -1.511215648E+02  9.438387085E+02  9.644930315E+02  1.250000000E+02  0.00000E+00  9.000E+00
      21     1     1     2   512   501 -5.323621029E+00 -1.381769883E+01  1.938705736E+01  2.439524001E+01  6.743495762E-07  0.00000E+00  9.000E+00
#rwgt            1           1   1.8130148220372844E-002           6      292343           0
</event>
<event>
      5   9999  3.79277E-02  2.05185E+01 -1.00000E+00  1.65457E-01
      21    -1     0     0   502   511  0.000000000E+00  0.000000000E+00  2.647678328E+02  2.647678328E+02  0.000000000E+00  0.00000E+00  9.000E+00
      21    -1     0     0   501   502  0.000000000E+00  0.000000000E+00 -1.096079279E+02  1.096079279E+02  0.000000000E+00  0.00000E+00  9.000E+00
      25     1     1     2     0     0 -8.587080966E+00  3.522507823E+01 -2.884531536E+01  1.333101508E+02  1.250000000E+02  0.00000E+00  9.000E+00
      25     1     1     2     0     0  2.752748694E+01 -4.311628940E+01  1.632844443E+02  2.119046642E+02  1.250000000E+02  0.00000E+00  9.000E+00
      21     1     1     2   501   511 -1.894040598E+01  7.891211163E+00  2.072077592E+01  2.916094558E+01  2.384185791E-07  0.00000E+00  9.000E+00
#rwgt            1           1   5.2642715331965004E-002           6      292528           0
</event>
<event>
      5   9999  3.79277E-02  5.47172E+01 -1.00000E+00  1.36878E-01
       2    -1     0     0   502     0  0.000000000E+00  0.000000000E+00  2.401313133E+03  2.401313133E+03  0.000000000E+00  0.00000E+00  9.000E+00
      21    -1     0     0   501   502  0.000000000E+00  0.000000000E+00 -9.172990770E+01  9.172990770E+01  0.000000000E+00  0.00000E+00  9.000E+00
      25     1     1     2     0     0 -2.387674670E+01 -8.404951790E+01  3.443856070E+02  3.766442178E+02  1.250000000E+02  0.00000E+00  9.000E+00
      25     1     1     2     0     0  9.586649291E-01  1.337359011E+02  3.617552908E+01  1.866008553E+02  1.250000000E+02  0.00000E+00  9.000E+00
       2     1     1     2   501     0  2.291808177E+01 -4.968638322E+01  1.929022089E+03  1.929797968E+03  0.000000000E+00  0.00000E+00  9.000E+00
#rwgt            1           1   5.0042233105338590E-002           6      292741           0
</event>
<event>
      5   9999  3.79277E-02  8.90996E+01 -1.00000E+00  1.26125E-01
      21    -1     0     0   502   501  0.000000000E+00  0.000000000E+00  1.112496144E+03  1.112496144E+03  0.000000000E+00  0.00000E+00  9.000E+00
      21    -1     0     0   501   511  0.000000000E+00  0.000000000E+00 -1.677522435E+03  1.677522435E+03  0.000000000E+00  0.00000E+00  9.000E+00
      25     1     1     2     0     0 -8.571241369E+01 -2.428308863E+02  2.932191381E+02  4.097754508E+02  1.250000000E+02  0.00000E+00  9.000E+00
      25     1     1     2     0     0  1.723750874E+02  2.221349634E+02  7.285934012E+02  7.909048343E+02  1.250000000E+02  0.00000E+00  9.000E+00
      21     1     1     2   502   511 -8.666267369E+01  2.069592287E+01 -1.586838830E+03  1.589338294E+03  2.157918644E-05  0.00000E+00  9.000E+00
#rwgt            1           1   3.2216646137414262E-002           6      292900           0
</event>
<event>
      5   9999  3.79277E-02  1.30835E+02 -1.00000E+00  1.18796E-01
      21    -1     0     0   512   501  0.000000000E+00  0.000000000E+00  4.878541308E+01  4.878541308E+01  0.000000000E+00  0.00000E+00  9.000E+00
      21    -1     0     0   501   502  0.000000000E+00  0.000000000E+00 -1.329492843E+03  1.329492843E+03  0.000000000E+00  0.00000E+00  9.000E+00
      25     1     1     2     0     0  3.660490228E+01  1.715114090E+01 -1.630127521E+02  2.093615004E+02  1.250000000E+02  0.00000E+00  9.000E+00
      25     1     1     2     0     0 -6.679690530E+01 -1.444550015E+02 -8.029984011E+02  8.281065790E+02  1.250000000E+02  0.00000E+00  9.000E+00
      21     1     1     2   512   502  3.019200302E+01  1.273038606E+02 -3.146962769E+02  3.408101768E+02  6.607249480E-06  0.00000E+00  9.000E+00
#rwgt            1           1   5.8601174564877172E-002           6      292977           0
</event>
<event>
      5   9999  3.79277E-02  1.19441E+02 -1.00000E+00  1.20454E-01
      21    -1     0     0   502   501  0.000000000E+00  0.000000000E+00  1.221717617E+02  1.221717617E+02  0.000000000E+00  0.00000E+00  9.000E+00
      21    -1     0     0   501   511  0.000000000E+00  0.000000000E+00 -1.452481691E+03  1.452481691E+03  0.000000000E+00  0.00000E+00  9.000E+00
      25     1     1     2     0     0  9.882230831E+00  2.240990967E+02 -5.163317547E+01  2.619332900E+02  1.250000000E+02  0.00000E+00  9.000E+00
      25     1     1     2     0     0  3.751910372E+01 -1.144669461E+02 -6.490193506E+02  6.718344159E+02  1.250000000E+02  0.00000E+00  9.000E+00
      21     1     1     2   502   511 -4.740133455E+01 -1.096321506E+02 -6.296574034E+02  6.408857469E+02  1.078959322E-05  0.00000E+00  9.000E+00
#rwgt            1           1   4.3698940201565201E-002           6      293041           0
</event>
<event>
      5   9999  3.79277E-02  3.59123E+01 -1.00000E+00  1.47805E-01
      21    -1     0     0   502   501  0.000000000E+00  0.000000000E+00  2.343555220E+02  2.343555220E+02  0.000000000E+00  0.00000E+00  9.000E+00
      21    -1     0     0   501   512  0.000000000E+00  0.000000000E+00 -3.529438854E+02  3.529438854E+02  0.000000000E+00  0.00000E+00  9.000E+00
      25     1     1     2     0     0 -6.020476743E+01  3.360624833E+01 -1.161256926E+02  1.840222009E+02  1.250000000E+02  0.00000E+00  9.000E+00
      25     1     1     2     0     0  8.118543194E+01 -6.275252930E+01  1.655720551E+02  2.314477473E+02  1.250000000E+02  0.00000E+00  9.000E+00
      21     1     1     2   502   512 -2.098066451E+01  2.914628097E+01 -1.680347259E+02  1.718294593E+02  1.907348633E-06  0.00000E+00  9.000E+00
#rwgt            1           1   1.6245323699156912E-002           6      293105           0
</event>
<event>
      5   9999  3.79277E-02  1.97033E+01 -1.00000E+00  1.66906E-01
       1    -1     0     0   502     0  0.000000000E+00  0.000000000E+00  2.260742566E+03  2.260742566E+03  0.000000000E+00  0.00000E+00  9.000E+00
      21    -1     0     0   501   502  0.000000000E+00  0.000000000E+00 -4.808175877E+01  4.808175877E+01  0.000000000E+00  0.00000E+00  9.000E+00
      25     1     1     2     0     0 -2.257209316E+02 -2.495342061E+01  7.214451953E+02  7.666034060E+02  1.250000000E+02  0.00000E+00  9.000E+00
      25     1     1     2     0     0  2.449475261E+02  2.926133916E+01  7.281125874E+02  7.788635673E+02  1.250000000E+02  0.00000E+00  9.000E+00
       1     1     1     2   501     0 -1.922659452E+01 -4.307918551E+00  7.631030248E+02  7.633573518E+02  1.078959322E-05  0.00000E+00  9.000E+00
#rwgt            1           1   3.4069726316121755E-002           6      293241           0
</event>
<event>
      5   9999  3.79277E-02  7.52441E+01 -1.00000E+00  1.29651E-01
      21    -1     0     0   502   501  0.000000000E+00  0.000000000E+00  9.775647787E+01  9.775647787E+01  0.000000000E+00  0.00000E+00  9.000E+00
       3    -1     0     0   501     0  0.000000000E+00  0.000000000E+00 -6.144741593E+02  6.144741593E+02  0.000000000E+00  0.00000E+00  9.000E+00
      25     1     1     2     0     0  1.179458755E+02  4.132258995E+01 -2.103667103E+02  2.747688825E+02  1.250000000E+02  0.00000E+00  9.000E+00
      25     1     1     2     0     0 -9.957165331E+01  3.164361475E+01 -5.017672794E+01  1.704656462E+02  1.250000000E+02  0.00000E+00  9.000E+00
       3     1     1     2   502     0 -1.837422222E+01 -7.296620470E+01 -2.561742433E+02  2.669961086E+02  0.000000000E+00  0.00000E+00  9.000E+00
#rwgt            2          14   1.9502025632830698E-005           6      293462           0
</event>
<event>
      5   9999  3.79277E-02  3.19685E+01 -1.00000E+00  1.51147E-01
       3    -1     0     0   502     0  0.000000000E+00  0.000000000E+00  2.119536408E+02  2.119536408E+02  0.000000000E+00  0.00000E+00  9.000E+00
      21    -1     0     0   501   502  0.000000000E+00  0.000000000E+00 -4.070762988E+02  4.070762988E+02  0.000000000E+00  0.00000E+00  9.000E+00
      25     1     1     2     0     0  1.632635697E+02  8.831863133E+00 -2.885250434E+02  3.544075276E+02  1.250000000E+02  0.00000E+00  9.000E+00
      25     1     1     2     0     0 -1.326673959E+02  4.341299741E-01  1.854002942E+01  1.832199746E+02  1.250000000E+02  0.00000E+00  9.000E+00
       3     1     1     2   501     0 -3.059617382E+01 -9.265993107E+00  7.486235589E+01  8.140243737E+01  0.000000000E+00  0.00000E+00  9.000E+00
#rwgt            1           1   2.6710044026055500E-002           6      293556           0
</event>
<event>
      5   9999  3.79277E-02  5.92799E+01 -1.00000E+00  1.34984E-01
      21    -1     0     0   511   501  0.000000000E+00  0.000000000E+00  5.499021237E+02  5.499021237E+02  0.000000000E+00  0.00000E+00  9.000E+00
      21    -1     0     0   501   502  0.000000000E+00  0.000000000E+00 -2.230259091E+02  2.230259091E+02  0.000000000E+00  0.00000E+00  9.000E+00
      25     1     1     2     0     0  1.188725077E+02  2.728546780E+02  1.842806401E+02  3.717051287E+02  1.250000000E+02  0.00000E+00  9.000E+00
      25     1     1     2     0     0 -5.960582645E+01 -2.716009288E+02  8.037877972E+01  3.152866431E+02  1.250000000E+02  0.00000E+00  9.000E+00
      21     1     1     2   511   502 -5.926668126E+01 -1.253749207E+00  6.221679479E+01  8.593626096E+01  1.507891493E-06  0.00000E+00  9.000E+00
#rwgt            2          11   3.8465426318361551E-003           6      293715           0
</event>
<event>
      5   9999  3.79277E-02  8.66411E+00 -1.00000E+00  2.03243E-01
      21    -1     0     0   512   501  0.000000000E+00  0.000000000E+00  6.845097401E+01  6.845097401E+01  0.000000000E+00  0.00000E+00  9.000E+00
      21    -1     0     0   501   502  0.000000000E+00  0.000000000E+00 -5.447309217E+02  5.447309217E+02  0.000000000E+00  0.00000E+00  9.000E+00
      25     1     1     2     0     0  6.941345080E+01 -3.250234896E+01 -4.236372884E+02  4.482947490E+02  1.250000000E+02  0.00000E+00  9.000E+00
      25     1     1     2     0     0 -6.679592599E+01  4.076160496E+01 -4.819543067E+01  1.551483281E+02  1.250000000E+02  0.00000E+00  9.000E+00
      21     1     1     2   512   502 -2.617524814E+00 -8.259256005E+00 -4.447228590E+00  9.738818616E+00  5.960464478E-08  0.00000E+00  9.000E+00
#rwgt            1           1   4.7879700068449021E-002           6      293735           0
</event>
<event>
      5   9999  3.79277E-02  1.13051E+02 -1.00000E+00  1.21478E-01
      21    -1     0     0   511   501  0.000000000E+00  0.000000000E+00  1.098861663E+02  1.098861663E+02  0.000000000E+00  0.00000E+00  9.000E+00
      21    -1     0     0   501   502  0.000000000E+00  0.000000000E+00 -1.678189846E+03  1.678189846E+03  0.000000000E+00  0.00000E+00  9.000E+00
      25     1     1     2     0     0 -3.877836932E+01 -7.678862756E+01 -1.429174021E+03  1.437206887E+03  1.250000000E+02  0.00000E+00  9.000E+00
      25     1     1     2     0     0  1.314258838E+02  1.200503350E+01 -1.521811437E+02  2.370674678E+02  1.250000000E+02  0.00000E+00  9.000E+00
      21     1     1     2   511   502 -9.264751450E+01  6.478359406E+01  1.305148446E+01  1.138016575E+02  1.316709640E-06  0.00000E+00  9.000E+00
#rwgt            1           1   4.6315196090320102E-002           6      294045           0
</event>
<event>
      5   9999  3.79277E-02  3.17779E+01 -1.00000E+00  1.51323E-01
      21    -1     0     0   502   501  0.000000000E+00  0.000000000E+00  2.360991655E+02  2.360991655E+02  0.000000000E+00  0.00000E+00  9.000E+00
      21    -1     0     0   512   502  0.000000000E+00  0.000000000E+00 -4.667683949E+02  4.667683949E+02  0.000000000E+00  0.00000E+00  9.000E+00
      25     1     1     2     0     0  6.994355550E+01 -1.583071376E+02 -3.233140578E+01  2.159249188E+02  1.250000000E+02  0.00000E+00  9.000E+00
      25     1     1     2     0     0 -8.299458536E+01  1.872813535E+02  4.276512431E+01  2.437545126E+02  1.250000000E+02  0.00000E+00  9.000E+00
      21     1     1     2   512   501  1.305102985E+01 -2.897421590E+01 -2.411029480E+02  2.431881290E+02  4.672030912E-06  0.00000E+00  9.000E+00
#rwgt            1           1   3.3661871522625890E-002           6      294126           0
</event>
<event>
      5   9999  3.79277E-02  1.53332E+01 -1.00000E+00  1.76489E-01
      21    -1     0     0   502   511  0.000000000E+00  0.000000000E+00  1.469196128E+02  1.469196128E+02  0.000000000E+00  0.00000E+00  9.000E+00
      21    -1     0     0   501   502  0.000000000E+00  0.000000000E+00 -2.264803687E+02  2.264803687E+02  0.000000000E+00  0.00000E+00  9.000E+00
      25     1     1     2     0     0 -4.975096023E+01 -3.648558076E+01  6.499364186E+01  1.538035407E+02  1.250000000E+02  0.00000E+00  9.000E+00
      25     1     1     2     0     0  5.828112566E+01  4.922698371E+01 -1.421289456E+02  2.040725918E+02  1.250000000E+02  0.00000E+00  9.000E+00
      21     1     1     2   501   511 -8.530165430E+00 -1.274140295E+01 -2.425452125E+00  1.552384905E+01  1.192092896E-07  0.00000E+00  9.000E+00
#rwgt            1           1   2.1397290717968202E-002           6      294292           0
</event>
<event>
      5   9999  3.79277E-02  3.79042E+01 -1.00000E+00  1.46305E-01
      21    -1     0     0   512   501  0.000000000E+00  0.000000000E+00  1.065991451E+03  1.065991451E+03  0.000000000E+00  0.00000E+00  9.000E+00
      21    -1     0     0   501   502  0.000000000E+00  0.000000000E+00 -5.496632155E+01  5.496632155E+01  0.000000000E+00  0.00000E+00  9.000E+00
      25     1     1     2     0     0 -1.518672737E+02  6.164017755E+01  4.951362819E+02  5.363283677E+02  1.250000000E+02  0.00000E+00  9.000E+00
      25     1     1     2     0     0  1.847847562E+02 -4.284748738E+01  3.724144933E+02  4.362325848E+02  1.250000000E+02  0.00000E+00  9.000E+00
      21     1     1     2   512   502 -3.291748242E+01 -1.879269017E+01  1.434743540E+02  1.483968197E+02  2.697398305E-06  0.00000E+00  9.000E+00
#rwgt            1           1   4.7992836284719613E-002           6      294446           0
</event>
<event>
      5   9999  3.79277E-02  3.99577E+01 -1.00000E+00  1.44869E-01
      21    -1     0     0   502   501  0.000000000E+00  0.000000000E+00  2.065771859E+02  2.065771859E+02  0.000000000E+00  0.00000E+00  9.000E+00
      21    -1     0     0   511   502  0.000000000E+00  0.000000000E+00 -2.673509254E+02  2.673509254E+02  0.000000000E+00  0.00000E+00  9.000E+00
      25     1     1     2     0     0  1.265529587E+02  2.036915505E+01 -9.459076478E+01  2.024918927E+02  1.250000000E+02  0.00000E+00  9.000E+00
      25     1     1     2     0     0 -1.565304071E+02 -4.678823528E+01  7.023949435E+01  2.173694870E+02  1.250000000E+02  0.00000E+00  9.000E+00
      21     1     1     2   511   501  2.997744838E+01  2.641908024E+01 -3.642246905E+01  5.406673158E+01  9.536743164E-07  0.00000E+00  9.000E+00
#rwgt            1           1   3.1208785266651384E-002           6      294577           0
</event>
<event>
      5   9999  3.79277E-02  1.76302E+02 -1.00000E+00  1.13679E-01
      21    -1     0     0   502   501  0.000000000E+00  0.000000000E+00  9.750148902E+01  9.750148902E+01  0.000000000E+00  0.00000E+00  9.000E+00
       1    -1     0     0   501     0  0.000000000E+00  0.000000000E+00 -1.217456281E+03  1.217456281E+03  0.000000000E+00  0.00000E+00  9.000E+00
      25     1     1     2     0     0  9.298382387E+01 -2.158768531E+02 -2.851525932E+02  3.901099955E+02  1.250000000E+02  0.00000E+00  9.000E+00
      25     1     1     2     0     0  2.777815495E+00  6.784906057E+01 -1.125633329E+02  1.814020816E+02  1.250000000E+02  0.00000E+00  9.000E+00
       1     1     1     2   502     0 -9.576163937E+01  1.480277925E+02 -7.222388654E+02  7.434456925E+02  1.078959322E-05  0.00000E+00  9.000E+00
#rwgt            1           1   4.1230564037868178E-002           6      294729           0
</event>
<event>
      5   9999  3.79277E-02  5.41956E+01 -1.00000E+00  1.37108E-01
      21    -1     0     0   502   501  0.000000000E+00  0.000000000E+00  1.134323205E+02  1.134323205E+02  0.000000000E+00  0.00000E+00  9.000E+00
      21    -1     0     0   501   511  0.000000000E+00  0.000000000E+00 -5.662961760E+02  5.662961760E+02  0.000000000E+00  0.00000E+00  9.000E+00
      25     1     1     2     0     0  2.711042018E+01 -1.568626044E+02 -1.457654291E+02  2.494261652E+02  1.250000000E+02  0.00000E+00  9.000E+00
      25     1     1     2     0     0  2.515107759E+01  1.712116221E+02 -1.416273777E+02  2.561821820E+02  1.250000000E+02  0.00000E+00  9.000E+00
      21     1     1     2   502   511 -5.226149778E+01 -1.434901770E+01 -1.654710487E+02  1.741201494E+02  3.303624740E-06  0.00000E+00  9.000E+00
#rwgt            1           1   4.3157518994929332E-002           6      294817           0
</event>
<event>
      5   9999  3.79277E-02  8.92408E+00 -1.00000E+00  2.01651E-01
      21    -1     0     0   502   501  0.000000000E+00  0.000000000E+00  2.166377145E+02  2.166377145E+02  0.000000000E+00  0.00000E+00  9.000E+00
      21    -1     0     0   501   512  0.000000000E+00  0.000000000E+00 -1.621804004E+02  1.621804004E+02  0.000000000E+00  0.00000E+00  9.000E+00
      25     1     1     2     0     0 -6.625351261E+01 -4.958750302E+01 -5.735541111E+01  1.605088520E+02  1.250000000E+02  0.00000E+00  9.000E+00
      25     1     1     2     0     0  5.898978181E+01  5.477184572E+01  1.303557562E+02  1.977305556E+02  1.250000000E+02  0.00000E+00  9.000E+00
      21     1     1     2   502   512  7.263730804E+00 -5.184342702E+00 -1.854303101E+01  2.057870729E+01  0.000000000E+00  0.00000E+00  9.000E+00
#rwgt            1           1   1.3589857521587156E-002           6      294976           0
</event>
<event>
      5   9999  3.79277E-02  2.70729E+01 -1.00000E+00  1.56203E-01
       3    -1     0     0   502     0  0.000000000E+00  0.000000000E+00  7.661752202E+02  7.661752202E+02  0.000000000E+00  0.00000E+00  9.000E+00
      21    -1     0     0   501   502  0.000000000E+00  0.000000000E+00 -1.906346605E+02  1.906346605E+02  0.000000000E+00  0.00000E+00  9.000E+00
      25     1     1     2     0     0  9.216731434E+01 -3.931599547E+01 -7.355795263E+01  1.762848086E+02  1.250000000E+02  0.00000E+00  9.000E+00
      25     1     1     2     0     0 -7.162709853E+01  5.695239404E+01  2.629321437E+01  1.571316313E+02  1.250000000E+02  0.00000E+00  9.000E+00
       3     1     1     2   501     0 -2.054021581E+01 -1.763639857E+01  6.228052980E+02  6.233934409E+02  0.000000000E+00  0.00000E+00  9.000E+00
#rwgt            1           1   3.6829639620959344E-002           6      295213           0
</event>
<event>
      5   9999  3.79277E-02  1.32424E+02 -1.00000E+00  1.18580E-01
       2    -1     0     0   502     0  0.000000000E+00  0.000000000E+00  2.594339807E+03  2.594339807E+03  0.000000000E+00  0.00000E+00  9.000E+00
      21    -1     0     0   501   502  0.000000000E+00  0.000000000E+00 -2.962575710E+01  2.962575710E+01  0.000000000E+00  0.00000E+00  9.000E+00
      25     1     1     2     0     0 -1.889837027E+01 -1.052668590E+02  5.764683982E+02  5.994823384E+02  1.250000000E+02  0.00000E+00  9.000E+00
      25     1     1     2     0     0  1.395332281E+02  1.598870609E+02  1.401883855E+03  1.423354045E+03  1.250000000E+02  0.00000E+00  9.000E+00
       2     1     1     2   501     0 -1.206348579E+02 -5.462020193E+01  5.863617965E+02  6.011291807E+02  7.629394531E-06  0.00000E+00  9.000E+00
#rwgt            1           1  0.16210886440233074                6      295436           0
</event>
<event>
      5   9999  3.79277E-02  1.36500E+01 -1.00000E+00  1.81331E-01
       1    -1     0     0   502     0  0.000000000E+00  0.000000000E+00  1.389844854E+03  1.389844854E+03  0.000000000E+00  0.00000E+00  9.000E+00
      21    -1     0     0   501   502  0.000000000E+00  0.000000000E+00 -2.019072277E+02  2.019072277E+02  0.000000000E+00  0.00000E+00  9.000E+00
      25     1     1     2     0     0 -7.177239847E+01  1.047408191E+02 -7.872862722E+01  1.947950541E+02  1.250000000E+02  0.00000E+00  9.000E+00
      25     1     1     2     0     0  6.876872171E+01 -9.142539008E+01  4.514443321E+01  1.753589430E+02  1.250000000E+02  0.00000E+00  9.000E+00
       1     1     1     2   501     0  3.003676760E+00 -1.331542899E+01  1.221521820E+03  1.221598084E+03  1.525878906E-05  0.00000E+00  9.000E+00
#rwgt            1           1   3.3863021388998278E-002           6      295511           0
</event>
<event>
      5   9999  3.79277E-02  1.91926E+01 -1.00000E+00  1.67859E-01
      -3    -1     0     0     0   501  0.000000000E+00  0.000000000E+00  1.802785454E+02  1.802785454E+02  0.000000000E+00  0.00000E+00  9.000E+00
      21    -1     0     0   501   502  0.000000000E+00  0.000000000E+00 -1.963269630E+02  1.963269630E+02  0.000000000E+00  0.00000E+00  9.000E+00
      25     1     1     2     0     0 -4.017036031E+01 -2.428759254E+01 -1.137086719E+02  1.753801787E+02  1.250000000E+02  0.00000E+00  9.000E+00
      25     1     1     2     0     0  3.038661457E+01  7.775987486E+00  3.195973141E+01  1.327789018E+02  1.250000000E+02  0.00000E+00  9.000E+00
      -3     1     1     2     0   502  9.783745741E+00  1.651160505E+01  6.570052296E+01  6.844642795E+01  9.536743164E-07  0.00000E+00  9.000E+00
#rwgt            1           1   4.9201170819072874E-002           6      295677           0
</event>
<event>
      5   9999  3.79277E-02  3.49469E+01 -1.00000E+00  1.48574E-01
      21    -1     0     0   502   501  0.000000000E+00  0.000000000E+00  9.123570442E+02  9.123570442E+02  0.000000000E+00  0.00000E+00  9.000E+00
      21    -1     0     0   511   502  0.000000000E+00  0.000000000E+00 -7.997086609E+01  7.997086609E+01  0.000000000E+00  0.00000E+00  9.000E+00
      25     1     1     2     0     0 -1.798367463E+02 -1.266745222E+02  4.312986372E+02  5.000312034E+02  1.250000000E+02  0.00000E+00  9.000E+00
      25     1     1     2     0     0  1.916612840E+02  9.378885177E+01  3.726580222E+02  4.472464622E+02  1.250000000E+02  0.00000E+00  9.000E+00
      21     1     1     2   511   501 -1.182453768E+01  3.288567044E+01  2.842951875E+01  4.505024471E+01  1.011524364E-06  0.00000E+00  9.000E+00
#rwgt            1           1   3.7388246948132801E-002           6      295797           0
</event>
<event>
      5   9999  3.79277E-02  3.64428E+01 -1.00000E+00  1.47394E-01
      21    -1     0     0   502   501  0.000000000E+00  0.000000000E+00  5.642601505E+01  5.642601505E+01  0.000000000E+00  0.00000E+00  9.000E+00
      21    -1     0     0   501   512  0.000000000E+00  0.000000000E+00 -1.436186923E+03  1.436186923E+03  0.000000000E+00  0.00000E+00  9.000E+00
      25     1     1     2     0     0  1.723602249E+02 -2.352358458E+01 -3.381996543E+02  4.003316280E+02  1.250000000E+02  0.00000E+00  9.000E+00
      25     1     1     2     0     0 -2.084294028E+02  2.872890451E+01 -5.831210820E+02  6.323949416E+02  1.250000000E+02  0.00000E+00  9.000E+00
      21     1     1     2   502   512  3.606917794E+01 -5.205319932E+00 -4.584401713E+02  4.598863681E+02  1.206313194E-05  0.00000E+00  9.000E+00
#rwgt            1           1   3.8789552313271886E-002           6      295950           0
</event>
<event>
      5   9999  3.79277E-02  3.59698E+01 -1.00000E+00  1.47760E-01
      21    -1     0     0   502   501  0.000000000E+00  0.000000000E+00  1.876813900E+02  1.876813900E+02  0.000000000E+00  0.00000E+00  9.000E+00
      21    -1     0     0   511   502  0.000000000E+00  0.000000000E+00 -2.750403003E+02  2.750403003E+02  0.000000000E+00  0.00000E+00  9.000E+00
      25     1     1     2     0     0 -1.517910762E+02 -3.276598168E+01 -1.132407070E+02  2.292653443E+02  1.250000000E+02  0.00000E+00  9.000E+00
      25     1     1     2     0     0  1.244156810E+02  5.609863218E+01  4.804622237E+01  1.912060609E+02  1.250000000E+02  0.00000E+00  9.000E+00
      21     1     1     2   511   501  2.737539511E+01 -2.333265050E+01 -2.216442567E+01  4.225028524E+01  5.331201500E-07  0.00000E+00  9.000E+00
#rwgt            1           1   3.7320795393640770E-002           6      296155           0
</event>
<event>
      5   9999 -3.79277E-02  1.34144E+02 -1.00000E+00  1.18349E-01
      21    -1     0     0   512   501  0.000000000E+00  0.000000000E+00  7.939137664E+02  7.939137664E+02  0.000000000E+00  0.00000E+00  9.000E+00
      21    -1     0     0   501   502  0.000000000E+00  0.000000000E+00 -7.797093195E+02  7.797093195E+02  0.000000000E+00  0.00000E+00  9.000E+00
      25     1     1     2     0     0 -4.052191976E+02 -1.438099350E+02 -5.092933483E+02  6.781508757E+02  1.250000000E+02  0.00000E+00  9.000E+00
      25     1     1     2     0     0  3.696432115E+02  1.446909890E+01  3.861916965E+01  3.923797891E+02  1.250000000E+02  0.00000E+00  9.000E+00
      21     1     1     2   512   502  3.557598614E+01  1.293408361E+02  4.848786256E+02  5.030924211E+02  0.000000000E+00  0.00000E+00  9.000E+00
#rwgt            1           1 -0.13760651230191182                6      296315           0
</event>
<event>
      5   9999  3.79277E-02  8.62814E+00 -1.00000E+00  2.03469E-01
      21    -1     0     0   502   501  0.000000000E+00  0.000000000E+00  2.737561164E+02  2.737561164E+02  0.000000000E+00  0.00000E+00  9.000E+00
      21    -1     0     0   501   511  0.000000000E+00  0.000000000E+00 -2.124104203E+02  2.124104203E+02  0.000000000E+00  0.00000E+00  9.000E+00
      25     1     1     2     0     0  1.031624287E+01 -1.504476599E+02  1.608765875E+02  2.534703131E+02  1.250000000E+02  0.00000E+00  9.000E+00
      25     1     1     2     0     0 -6.382140567E+00  1.581267037E+02 -9.633210317E+01  2.234942063E+02  1.250000000E+02  0.00000E+00  9.000E+00
      21     1     1     2   502   511 -3.934102302E+00 -7.679043870E+00 -3.198788269E+00  9.202017282E+00  9.424321831E-08  0.00000E+00  9.000E+00
#rwgt            1           1   3.5190209626388663E-002           6      296359           0
</event>
<event>
      5   9999  3.79277E-02  7.59024E+01 -1.00000E+00  1.29465E-01
      21    -1     0     0   502   501  0.000000000E+00  0.000000000E+00  4.547206040E+02  4.547206040E+02  0.000000000E+00  0.00000E+00  9.000E+00
      -1    -1     0     0     0   502  0.000000000E+00  0.000000000E+00 -3.827121658E+02  3.827121658E+02  0.000000000E+00  0.00000E+00  9.000E+00
      25     1     1     2     0     0  4.860682744E+01 -1.184665156E+02  6.400730937E+01  1.900496636E+02  1.250000000E+02  0.00000E+00  9.000E+00
      25     1     1     2     0     0 -5.459550850E+01  4.280072087E+01  3.071313914E+02  3.387731732E+02  1.250000000E+02  0.00000E+00  9.000E+00
      -1     1     1     2     0   501  5.988681062E+00  7.566579469E+01 -2.991302626E+02  3.086099331E+02  3.814697266E-06  0.00000E+00  9.000E+00
#rwgt            1           1   4.6137994808941311E-002           6      296701           0
</event>
<event>
      5   9999 -3.79277E-02  4.61576E+01 -1.00000E+00  1.41086E-01
      21    -1     0     0   502   501  0.000000000E+00  0.000000000E+00  4.452454458E+02  4.452454458E+02  0.000000000E+00  0.00000E+00  9.000E+00
      21    -1     0     0   511   502  0.000000000E+00  0.000000000E+00 -3.448494254E+02  3.448494254E+02  0.000000000E+00  0.00000E+00  9.000E+00
      25     1     1     2     0     0  2.113143474E+02 -8.999161688E+01  2.912113689E+02  3.913838345E+02  1.250000000E+02  0.00000E+00  9.000E+00
      25     1     1     2     0     0 -1.714426371E+02  1.132460856E+02 -4.359360782E+01  2.444231093E+02  1.250000000E+02  0.00000E+00  9.000E+00
      21     1     1     2   511   501 -3.987171024E+01 -2.325446876E+01 -1.472217407E+02  1.542879274E+02  2.697398305E-06  0.00000E+00  9.000E+00
#rwgt            1           1 -0.44580354922347426                6      296916           0
</event>
<event>
      5   9999  3.79277E-02  1.74486E+01 -1.00000E+00  1.71412E-01
      21    -1     0     0   512   501  0.000000000E+00  0.000000000E+00  9.653917003E+02  9.653917003E+02  0.000000000E+00  0.00000E+00  9.000E+00
      21    -1     0     0   501   502  0.000000000E+00  0.000000000E+00 -7.142616485E+01  7.142616485E+01  0.000000000E+00  0.00000E+00  9.000E+00
      25     1     1     2     0     0 -1.497171096E+02 -1.076998389E+02  3.087765609E+02  3.807655877E+02  1.250000000E+02  0.00000E+00  9.000E+00
      25     1     1     2     0     0  1.513762863E+02  1.250694219E+02  3.507230584E+02  4.209380050E+02  1.250000000E+02  0.00000E+00  9.000E+00
      21     1     1     2   512   502 -1.659176661E+00 -1.736958300E+01  2.344659161E+02  2.351142725E+02  3.814697266E-06  0.00000E+00  9.000E+00
#rwgt            1           1   3.1705208767766807E-002           6      297038           0
</event>
<event>
      5   9999  3.79277E-02  5.17906E+01 -1.00000E+00  1.38209E-01
      21    -1     0     0   502   501  0.000000000E+00  0.000000000E+00  1.398526064E+03  1.398526064E+03  0.000000000E+00  0.00000E+00  9.000E+00
      21    -1     0     0   511   502  0.000000000E+00  0.000000000E+00 -4.590246696E+01  4.590246696E+01  0.000000000E+00  0.00000E+00  9.000E+00
      25     1     1     2     0     0 -1.353675141E+02  1.135505641E+02  9.273700406E+02  9.522910725E+02  1.250000000E+02  0.00000E+00  9.000E+00
      25     1     1     2     0     0  8.363906845E+01 -1.160880810E+02  3.728134689E+02  4.184337688E+02  1.250000000E+02  0.00000E+00  9.000E+00
      21     1     1     2   511   501  5.172844563E+01  2.537516932E+00  5.244008734E+01  7.370368946E+01  1.507891493E-06  0.00000E+00  9.000E+00
#rwgt            1           1   3.8753027291057368E-002           6      297238           0
</event>
<event>
      5   9999  3.79277E-02  2.19055E+02 -1.00000E+00  1.10228E-01
      21    -1     0     0   512   501  0.000000000E+00  0.000000000E+00  8.521904260E+02  8.521904260E+02  0.000000000E+00  0.00000E+00  9.000E+00
      21    -1     0     0   501   502  0.000000000E+00  0.000000000E+00 -2.356836518E+02  2.356836518E+02  0.000000000E+00  0.00000E+00  9.000E+00
      25     1     1     2     0     0  2.705778903E+02  1.749513643E+02  1.482375590E+02  3.760581717E+02  1.250000000E+02  0.00000E+00  9.000E+00
      25     1     1     2     0     0 -5.507278013E+01 -2.142268030E+02  8.061650837E+01  2.665523507E+02  1.250000000E+02  0.00000E+00  9.000E+00
      21     1     1     2   512   502 -2.155051102E+02  3.927543871E+01  3.876527068E+02  4.452635553E+02  5.394796609E-06  0.00000E+00  9.000E+00
#rwgt            1           1   1.7168154782292337E-002           6      297370           0
</event>
<event>
      5   9999  3.79277E-02  4.98883E+01 -1.00000E+00  1.39131E-01
      21    -1     0     0   502   501  0.000000000E+00  0.000000000E+00  2.393093481E+03  2.393093481E+03  0.000000000E+00  0.00000E+00  9.000E+00
      21    -1     0     0   501   511  0.000000000E+00  0.000000000E+00 -2.387918655E+01  2.387918655E+01  0.000000000E+00  0.00000E+00  9.000E+00
      25     1     1     2     0     0 -6.458952213E+01  7.260185313E+01  5.185329980E+02  5.421663079E+02  1.250000000E+02  0.00000E+00  9.000E+00
      25     1     1     2     0     0  1.093521740E+02 -9.462782309E+01  1.767542848E+03  1.777848431E+03  1.250000000E+02  0.00000E+00  9.000E+00
      21     1     1     2   502   511 -4.476265185E+01  2.202596997E+01  8.313844758E+01  9.695792809E+01  0.000000000E+00  0.00000E+00  9.000E+00
#rwgt            1           1   8.8453664239560262E-002           6      297433           0
</event>
<event>
      5   9999 -3.79277E-02  8.90757E+01 -1.00000E+00  1.26131E-01
      21    -1     0     0   512   501  0.000000000E+00  0.000000000E+00  7.765618915E+01  7.765618915E+01  0.000000000E+00  0.00000E+00  9.000E+00
      21    -1     0     0   501   502  0.000000000E+00  0.000000000E+00 -1.764879747E+03  1.764879747E+03  0.000000000E+00  0.00000E+00  9.000E+00
      25     1     1     2     0     0  1.511053673E+02  1.847915776E+01 -2.094315158E+02  2.875080366E+02  1.250000000E+02  0.00000E+00  9.000E+00
      25     1     1     2     0     0 -1.792812811E+02  6.602293948E+01 -1.440467036E+03  1.458448178E+03  1.250000000E+02  0.00000E+00  9.000E+00
      21     1     1     2   512   502  2.817591386E+01 -8.450209724E+01 -3.732500632E+01  9.657972177E+01  1.719260824E-06  0.00000E+00  9.000E+00
#rwgt            1           1  -9.6271234190092578E-002           6      297617           0
</event>
<event>
      5   9999  3.79277E-02  1.01613E+02 -1.00000E+00  1.23516E-01
      21    -1     0     0   502   501  0.000000000E+00  0.000000000E+00  4.500252561E+02  4.500252561E+02  0.000000000E+00  0.00000E+00  9.000E+00
      21    -1     0     0   511   502  0.000000000E+00  0.000000000E+00 -1.921353339E+02  1.921353339E+02  0.000000000E+00  0.00000E+00  9.000E+00
      25     1     1     2     0     0 -3.189774347E+01  2.408083026E+01 -4.681315008E+01  1.393334972E+02  1.250000000E+02  0.00000E+00  9.000E+00
      25     1     1     2     0     0 -5.101267829E+01  3.466532863E+01  3.607779663E+02  3.867683019E+02  1.250000000E+02  0.00000E+00  9.000E+00
      21     1     1     2   511   501  8.291042176E+01 -5.874615889E+01 -5.607489397E+01  1.160587909E+02  1.507891493E-06  0.00000E+00  9.000E+00
#rwgt            1           1   4.7734002862948280E-002           6      297712           0
</event>
<event>
      5   9999  3.79277E-02  6.04325E+01 -1.00000E+00  1.34537E-01
       2    -1     0     0   502     0  0.000000000E+00  0.000000000E+00  1.962018300E+03  1.962018300E+03  0.000000000E+00  0.00000E+00  9.000E+00
      21    -1     0     0   501   502  0.000000000E+00  0.000000000E+00 -5.248114076E+02  5.248114076E+02  0.000000000E+00  0.00000E+00  9.000E+00
      25     1     1     2     0     0  1.892565601E+02 -1.998532176E+02 -9.446352991E+01  3.167139287E+02  1.250000000E+02  0.00000E+00  9.000E+00
      25     1     1     2     0     0 -1.350157904E+02  2.264996109E+02 -2.519134481E+02  3.855083951E+02  1.250000000E+02  0.00000E+00  9.000E+00
       2     1     1     2   501     0 -5.424076974E+01 -2.664639329E+01  1.783583871E+03  1.784607384E+03  0.000000000E+00  0.00000E+00  9.000E+00
#rwgt            1           1   3.7018090217013980E-002           6      297808           0
</event>
<event>
      5   9999  3.79277E-02  5.89750E+01 -1.00000E+00  1.35104E-01
      21    -1     0     0   502   511  0.000000000E+00  0.000000000E+00  2.666521130E+02  2.666521130E+02  0.000000000E+00  0.00000E+00  9.000E+00
      21    -1     0     0   501   502  0.000000000E+00  0.000000000E+00 -2.651555089E+02  2.651555089E+02  0.000000000E+00  0.00000E+00  9.000E+00
      25     1     1     2     0     0 -1.177822357E+02  1.593949852E+02 -2.017354725E+01  2.351837332E+02  1.250000000E+02  0.00000E+00  9.000E+00
      25     1     1     2     0     0  1.347917542E+02 -1.029261265E+02 -3.646076191E+01  2.138153214E+02  1.250000000E+02  0.00000E+00  9.000E+00
      21     1     1     2   501   511 -1.700951844E+01 -5.646885872E+01  5.813091329E+01  8.280856721E+01  1.348699152E-06  0.00000E+00  9.000E+00
#rwgt            1           1   2.9786832308683453E-002           6      297980           0
</event>
<event>
      5   9999  3.79277E-02  1.51708E+01 -1.00000E+00  1.76922E-01
       2    -1     0     0   502     0  0.000000000E+00  0.000000000E+00  3.785885820E+02  3.785885820E+02  0.000000000E+00  0.00000E+00  9.000E+00
      21    -1     0     0   501   502  0.000000000E+00  0.000000000E+00 -1.008298379E+03  1.008298379E+03  0.000000000E+00  0.00000E+00  9.000E+00
      25     1     1     2     0     0  2.436139385E+02  1.864391863E+01 -2.253258623E+02  3.550944817E+02  1.250000000E+02  0.00000E+00  9.000E+00
      25     1     1     2     0     0 -2.400019830E+02 -3.909392278E+00 -6.923827774E+02  7.433943406E+02  1.250000000E+02  0.00000E+00  9.000E+00
       2     1     1     2   501     0 -3.611955503E+00 -1.473452635E+01  2.879988431E+02  2.883981382E+02  3.814697266E-06  0.00000E+00  9.000E+00
#rwgt            1           1   4.2722349460162685E-002           6      298026           0
</event>
<event>
      5   9999  3.79277E-02  3.77059E+01 -1.00000E+00  1.46449E-01
       2    -1     0     0   502     0  0.000000000E+00  0.000000000E+00  2.896782646E+03  2.896782646E+03  0.000000000E+00  0.00000E+00  9.000E+00
      21    -1     0     0   501   502  0.000000000E+00  0.000000000E+00 -8.181099418E+01  8.181099418E+01  0.000000000E+00  0.00000E+00  9.000E+00
      25     1     1     2     0     0  1.251161032E+02  3.814799708E+01  2.254325632E+02  2.890573464E+02  1.250000000E+02  0.00000E+00  9.000E+00
      25     1     1     2     0     0 -1.380587987E+02 -7.356297059E+01  1.512226718E+02  2.509283543E+02  1.250000000E+02  0.00000E+00  9.000E+00
       2     1     1     2   501     0  1.294269549E+01  3.541497351E+01  2.438316417E+03  2.438607939E+03  0.000000000E+00  0.00000E+00  9.000E+00
#rwgt            1           1   3.7364529893004338E-002           6      298417           0
</event>
<event>
      5   9999  3.79277E-02  2.63436E+01 -1.00000E+00  1.57067E-01
      21    -1     0     0   502   501  0.000000000E+00  0.000000000E+00  9.905767995E+01  9.905767995E+01  0.000000000E+00  0.00000E+00  9.000E+00
      21    -1     0     0   501   511  0.000000000E+00  0.000000000E+00 -9.209377655E+02  9.209377655E+02  0.000000000E+00  0.00000E+00  9.000E+00
      25     1     1     2     0     0 -1.271990937E+01  2.409241611E+02 -4.370778864E+02  5.146535984E+02  1.250000000E+02  0.00000E+00  9.000E+00
      25     1     1     2     0     0 -4.168067969E+00 -2.611425447E+02 -3.016973689E+02  4.181615763E+02  1.250000000E+02  0.00000E+00  9.000E+00
      21     1     1     2   502   511  1.688797734E+01  2.021838359E+01 -8.310483017E+01  8.718027076E+01  9.536743164E-07  0.00000E+00  9.000E+00
#rwgt            1           1   3.9303925757526066E-002           6      298543           0
</event>
<event>
      5   9999  3.79277E-02  1.34297E+01 -1.00000E+00  1.82031E-01
       1    -1     0     0   502     0  0.000000000E+00  0.000000000E+00  8.893716439E+02  8.893716439E+02  0.000000000E+00  0.00000E+00  9.000E+00
      21    -1     0     0   501   502  0.000000000E+00  0.000000000E+00 -6.180743011E+02  6.180743011E+02  0.000000000E+00  0.00000E+00  9.000E+00
      25     1     1     2     0     0 -1.259001050E+02 -2.283807785E+00 -4.126992179E+02  4.492234373E+02  1.250000000E+02  0.00000E+00  9.000E+00
      25     1     1     2     0     0  1.178940407E+02 -8.498518128E+00 -1.475040264E+02  2.266134758E+02  1.250000000E+02  0.00000E+00  9.000E+00
       1     1     1     2   501     0  8.006064305E+00  1.078232591E+01  8.315005870E+02  8.316090318E+02  1.525878906E-05  0.00000E+00  9.000E+00
#rwgt            1           1   4.4004748014681044E-002           6      298755           0
</event>
<event>
      5   9999  3.79277E-02  1.35144E+02 -1.00000E+00  1.18217E-01
      21    -1     0     0   502   501  0.000000000E+00  0.000000000E+00  1.130203991E+02  1.130203991E+02  0.000000000E+00  0.00000E+00  9.000E+00
       1    -1     0     0   501     0  0.000000000E+00  0.000000000E+00 -8.684917480E+02  8.684917480E+02  0.000000000E+00  0.00000E+00  9.000E+00
      25     1     1     2     0     0  3.370660399E+01 -1.233196708E+02 -1.104377410E+01  1.791391674E+02  1.250000000E+02  0.00000E+00  9.000E+00
      25     1     1     2     0     0 -3.559804244E+01 -1.181124996E+01 -1.821140970E+02  2.240474740E+02  1.250000000E+02  0.00000E+00  9.000E+00
       1     1     1     2   502     0  1.891438453E+00  1.351309208E+02 -5.623134778E+02  5.783255058E+02  7.629394531E-06  0.00000E+00  9.000E+00
#rwgt            1           1   3.6568580845152958E-002           6      299034           0
</event>
<event>
      5   9999  3.79277E-02  1.15429E+02  7.55638E-03  1.21089E-01
      -2    -1     0     0     0   501  0.000000000E+00  0.000000000E+00  2.936508373E+02  2.936508373E+02  0.000000000E+00  0.00000E+00  9.000E+00
       2    -1     0     0   502     0  0.000000000E+00  0.000000000E+00 -2.799102877E+02  2.799102877E+02  0.000000000E+00  0.00000E+00  9.000E+00
      25     1     1     2     0     0 -1.389593745E+02  4.979865353E+01  1.831074043E+02  2.663511501E+02  1.250000000E+02  0.00000E+00  9.000E+00
      25     1     1     2     0     0  5.549413812E+01  2.993487910E+01 -8.015494831E+01  1.613242452E+02  1.250000000E+02  0.00000E+00  9.000E+00
      21     1     1     2   502   501  8.346523639E+01 -7.973353262E+01 -8.921190634E+01  1.458857297E+02  1.907348633E-06  0.00000E+00  9.000E+00
#rwgt            3           4   2.2098909605202748E-005           6      299332           0
</event>
<event>
      5   9999  3.79277E-02  1.93491E+01 -1.00000E+00  1.67563E-01
      21    -1     0     0   502   501  0.000000000E+00  0.000000000E+00  1.273662603E+02  1.273662603E+02  0.000000000E+00  0.00000E+00  9.000E+00
      21    -1     0     0   511   502  0.000000000E+00  0.000000000E+00 -6.760484520E+02  6.760484520E+02  0.000000000E+00  0.00000E+00  9.000E+00
      25     1     1     2     0     0 -1.084271813E+02 -2.184335657E+02 -3.662850979E+02  4.574488488E+02  1.250000000E+02  0.00000E+00  9.000E+00
      25     1     1     2     0     0  9.832911939E+01  2.019285303E+02 -1.258380679E+02  2.861886902E+02  1.250000000E+02  0.00000E+00  9.000E+00
      21     1     1     2   511   501  1.009806196E+01  1.650503535E+01 -5.655902583E+01  5.977717332E+01  1.348699152E-06  0.00000E+00  9.000E+00
#rwgt            1           1   3.7878639659475834E-002           6      299411           0
</event>
<event>
      5   9999  3.79277E-02  3.00724E+01 -1.00000E+00  1.52967E-01
      21    -1     0     0   502   501  0.000000000E+00  0.000000000E+00  1.207851901E+03  1.207851901E+03  0.000000000E+00  0.00000E+00  9.000E+00
      21    -1     0     0   512   502  0.000000000E+00  0.000000000E+00 -1.909792006E+01  1.909792006E+01  0.000000000E+00  0.00000E+00  9.000E+00
      25     1     1     2     0     0  3.322669426E+01 -3.247761978E+01  5.640926634E+02  5.796415633E+02  1.250000000E+02  0.00000E+00  9.000E+00
      25     1     1     2     0     0 -3.398892854E+01  2.414874578E+00  5.735932865E+02  5.880436524E+02  1.250000000E+02  0.00000E+00  9.000E+00
      21     1     1     2   512   501  7.622342770E-01  3.006274520E+01  5.106803122E+01  5.926460548E+01  1.651812370E-06  0.00000E+00  9.000E+00
#rwgt            1           1   1.2218508066193044E-002           6      299621           0
</event>
<event>
      5   9999  3.79277E-02  1.50676E+01 -1.00000E+00  1.77200E-01
      21    -1     0     0   502   511  0.000000000E+00  0.000000000E+00  1.949376288E+02  1.949376288E+02  0.000000000E+00  0.00000E+00  9.000E+00
      21    -1     0     0   501   502  0.000000000E+00  0.000000000E+00 -3.549431316E+02  3.549431316E+02  0.000000000E+00  0.00000E+00  9.000E+00
      25     1     1     2     0     0  2.176656457E+02  2.037622577E+01 -1.338875596E+01  2.521860081E+02  1.250000000E+02  0.00000E+00  9.000E+00
      25     1     1     2     0     0 -2.050544318E+02 -2.862182145E+01 -1.462320166E+02  2.826222414E+02  1.250000000E+02  0.00000E+00  9.000E+00
      21     1     1     2   501   511 -1.261121392E+01  8.245595684E+00 -3.847302001E-01  1.507251081E+01  3.859228145E-07  0.00000E+00  9.000E+00
#rwgt            1           1   5.1198360186558503E-002           6      299706           0
</event>
<event>
      5   9999 -4.46009E-02  8.95512E+01 -1.00000E+00  1.26023E-01
      21    -1     0     0   512   501  0.000000000E+00  0.000000000E+00  1.399457040E+03  1.399457040E+03  0.000000000E+00  0.00000E+00  9.000E+00
      21    -1     0     0   501   502  0.000000000E+00  0.000000000E+00 -1.936043719E+03  1.936043719E+03  0.000000000E+00  0.00000E+00  9.000E+00
      25     1     1     2     0     0 -2.174698823E+02  1.064691554E+02 -1.101172125E+03  1.134387006E+03  1.250000000E+02  0.00000E+00  9.000E+00
      25     1     1     2     0     0  1.772631399E+02 -1.864869086E+02 -7.917429774E+02  8.418322458E+02  1.250000000E+02  0.00000E+00  9.000E+00
      21     1     1     2   512   502  4.020674240E+01  8.001775317E+01  1.356328423E+03  1.359281507E+03  2.157918644E-05  0.00000E+00  9.000E+00
#rwgt            1           1 -0.31326989795788546                6      300105           0
</event>
<event>
      5   9999  3.79277E-02  2.57396E+01 -1.00000E+00  1.57808E-01
      -3    -1     0     0     0   501  0.000000000E+00  0.000000000E+00  7.012474511E+01  7.012474511E+01  0.000000000E+00  0.00000E+00  9.000E+00
      21    -1     0     0   501   502  0.000000000E+00  0.000000000E+00 -7.528659002E+02  7.528659002E+02  0.000000000E+00  0.00000E+00  9.000E+00
      25     1     1     2     0     0  1.543955398E+02  4.041086685E+01 -4.835711575E+02  5.243444338E+02  1.250000000E+02  0.00000E+00  9.000E+00
      25     1     1     2     0     0 -1.290726884E+02 -3.579757506E+01 -2.020498366E+02  2.727459656E+02  1.250000000E+02  0.00000E+00  9.000E+00
      -3     1     1     2     0   502 -2.532285141E+01 -4.613291796E+00  2.879839054E+00  2.590024590E+01  4.749708608E-07  0.00000E+00  9.000E+00
#rwgt            1           1   4.0655099910574796E-002           6      300167           0
</event>
<event>
      5   9999  3.79277E-02  1.67191E+01 -1.00000E+00  1.73056E-01
      21    -1     0     0   502   501  0.000000000E+00  0.000000000E+00  2.187798532E+03  2.187798532E+03  0.000000000E+00  0.00000E+00  9.000E+00
      21    -1     0     0   501   511  0.000000000E+00  0.000000000E+00 -3.833319817E+01  3.833319817E+01  0.000000000E+00  0.00000E+00  9.000E+00
      25     1     1     2     0     0 -1.723820964E+02  8.411670647E+01  1.044707319E+03  1.069499691E+03  1.250000000E+02  0.00000E+00  9.000E+00
      25     1     1     2     0     0  1.579474200E+02 -9.255288451E+01  1.115135216E+03  1.136954253E+03  1.250000000E+02  0.00000E+00  9.000E+00
      21     1     1     2   502   511  1.443467646E+01  8.436178041E+00 -1.037720046E+01  1.967778630E+01  1.535904256E-06  0.00000E+00  9.000E+00
#rwgt            1           1  0.12113082769958680                6      300283           0
</event>
<event>
      5   9999  3.79277E-02  2.07096E+02 -1.00000E+00  1.11100E-01
      21    -1     0     0   502   501  0.000000000E+00  0.000000000E+00  1.401775877E+03  1.401775877E+03  0.000000000E+00  0.00000E+00  9.000E+00
      -2    -1     0     0     0   502  0.000000000E+00  0.000000000E+00 -5.661763096E+02  5.661763096E+02  0.000000000E+00  0.00000E+00  9.000E+00
      25     1     1     2     0     0 -2.174470011E+01 -4.097554151E+01  7.382955197E+01  1.524061342E+02  1.250000000E+02  0.00000E+00  9.000E+00
      25     1     1     2     0     0 -1.681698585E+02 -4.161586315E+01  1.258956009E+03  1.276952706E+03  1.250000000E+02  0.00000E+00  9.000E+00
      -2     1     1     2     0   501  1.899145586E+02  8.259140466E+01 -4.971859939E+02  5.385933459E+02  7.629394531E-06  0.00000E+00  9.000E+00
#rwgt            2           9   5.2773256287803297E-004           6      300618           0
</event>
<event>
      5   9999  3.79277E-02  2.60845E+02 -1.00000E+00  1.07604E-01
      21    -1     0     0   511   501  0.000000000E+00  0.000000000E+00  4.719869517E+02  4.719869517E+02  0.000000000E+00  0.00000E+00  9.000E+00
      21    -1     0     0   501   502  0.000000000E+00  0.000000000E+00 -7.769866547E+02  7.769866547E+02  0.000000000E+00  0.00000E+00  9.000E+00
      25     1     1     2     0     0  1.825042717E+02  4.396073282E+02 -3.585613218E+01  4.934299083E+02  1.250000000E+02  0.00000E+00  9.000E+00
      25     1     1     2     0     0 -1.027292285E+02 -1.912609395E+02 -3.935743290E+02  4.665402381E+02  1.250000000E+02  0.00000E+00  9.000E+00
      21     1     1     2   511   502 -7.977504323E+01 -2.483463887E+02  1.244307581E+02  2.890034599E+02  5.394796609E-06  0.00000E+00  9.000E+00
#rwgt            1           1  0.13986444954680016                6      300652           0
</event>
<event>
      5   9999  3.79277E-02  4.21594E+01 -1.00000E+00  1.43438E-01
      21    -1     0     0   502   501  0.000000000E+00  0.000000000E+00  2.092011939E+02  2.092011939E+02  0.000000000E+00  0.00000E+00  9.000E+00
       2    -1     0     0   501     0  0.000000000E+00  0.000000000E+00 -1.350882179E+03  1.350882179E+03  0.000000000E+00  0.00000E+00  9.000E+00
      25     1     1     2     0     0  1.189930392E+02  1.192493196E+02  4.209248408E+01  2.139544831E+02  1.250000000E+02  0.00000E+00  9.000E+00
      25     1     1     2     0     0 -1.181318857E+02 -7.709866804E+01 -2.913097117E+01  1.907169644E+02  1.250000000E+02  0.00000E+00  9.000E+00
       2     1     1     2   502     0 -8.611535491E-01 -4.215065152E+01 -1.154642498E+03  1.155411926E+03  0.000000000E+00  0.00000E+00  9.000E+00
#rwgt            1           1   4.1728548552790339E-002           6      300696           0
</event>
<event>
      5   9999  3.79277E-02  1.39343E+02 -1.00000E+00  1.17676E-01
      21    -1     0     0   502   501  0.000000000E+00  0.000000000E+00  6.951196208E+02  6.951196208E+02  0.000000000E+00  0.00000E+00  9.000E+00
      21    -1     0     0   501   511  0.000000000E+00  0.000000000E+00 -2.079036295E+02  2.079036295E+02  0.000000000E+00  0.00000E+00  9.000E+00
      25     1     1     2     0     0  1.333535613E+02  8.683649373E+01  2.396690483E+02  3.136718056E+02  1.250000000E+02  0.00000E+00  9.000E+00
      25     1     1     2     0     0 -2.513912904E+02 -1.608882927E+02  2.992284066E+02  4.407326434E+02  1.250000000E+02  0.00000E+00  9.000E+00
      21     1     1     2   502   511  1.180377291E+02  7.405179895E+01 -5.168146359E+01  1.486188013E+02  6.743495762E-07  0.00000E+00  9.000E+00
#rwgt            1           1  0.19264613423069077                6      300857           0
</event>
<event>
      5   9999 -4.22796E-02  1.11565E+02 -1.00000E+00  1.21727E-01
      21    -1     0     0   502   512  0.000000000E+00  0.000000000E+00  5.725724207E+02  5.725724207E+02  0.000000000E+00  0.00000E+00  9.000E+00
      21    -1     0     0   501   502  0.000000000E+00  0.000000000E+00 -2.373504513E+02  2.373504513E+02  0.000000000E+00  0.00000E+00  9.000E+00
      25     1     1     2     0     0 -1.451271323E+02 -2.298555507E+02  7.987320553E+01  3.096775544E+02  1.250000000E+02  0.00000E+00  9.000E+00
      25     1     1     2     0     0  2.144091813E+02  1.424099234E+02  8.846523633E+01  2.995045598E+02  1.250000000E+02  0.00000E+00  9.000E+00
      21     1     1     2   501   512 -6.928204900E+01  8.744562733E+01  1.668835276E+02  2.007407577E+02  0.000000000E+00  0.00000E+00  9.000E+00
#rwgt            1           1 -0.37143553259122247                6      300925           0
</event>
<event>
      5   9999  3.79277E-02  2.13766E+02 -1.00000E+00  1.10606E-01
      21    -1     0     0   502   511  0.000000000E+00  0.000000000E+00  1.705801704E+02  1.705801704E+02  0.000000000E+00  0.00000E+00  9.000E+00
      21    -1     0     0   501   502  0.000000000E+00  0.000000000E+00 -1.691519344E+03  1.691519344E+03  0.000000000E+00  0.00000E+00  9.000E+00
      25     1     1     2     0     0  4.756755313E+01  2.441626039E+02 -1.165391372E+03  1.198181997E+03  1.250000000E+02  0.00000E+00  9.000E+00
      25     1     1     2     0     0 -7.121121646E+01 -3.170793893E+01 -4.163739295E+02  4.416658012E+02  1.250000000E+02  0.00000E+00  9.000E+00
      21     1     1     2   501   511  2.364366333E+01 -2.124546650E+02  6.082612764E+01  2.222517160E+02  3.989505894E-06  0.00000E+00  9.000E+00
#rwgt            2          11   4.5398795520821059E-003           6      301306           0
</event>
<event>
      5   9999  3.79277E-02  7.11240E+01 -1.00000E+00  1.30871E-01
      21    -1     0     0   502   501  0.000000000E+00  0.000000000E+00  1.236274296E+02  1.236274296E+02  0.000000000E+00  0.00000E+00  9.000E+00
      21    -1     0     0   501   512  0.000000000E+00  0.000000000E+00 -2.321107542E+03  2.321107542E+03  0.000000000E+00  0.00000E+00  9.000E+00
      25     1     1     2     0     0  1.544674001E+02 -1.802049902E+02 -7.562600523E+01  2.787082863E+02  1.250000000E+02  0.00000E+00  9.000E+00
      25     1     1     2     0     0 -1.237769348E+02  1.160433816E+02 -4.997867635E+02  5.424007789E+02  1.250000000E+02  0.00000E+00  9.000E+00
      21     1     1     2   502   512 -3.069046525E+01  6.416160856E+01 -1.622067344E+03  1.623625907E+03  2.157918644E-05  0.00000E+00  9.000E+00
#rwgt            1           1   3.2732368697574697E-003           6      301356           0
</event>
<event>
      5   9999  3.79277E-02  2.45639E+02 -1.00000E+00  1.08492E-01
      21    -1     0     0   502   501  0.000000000E+00  0.000000000E+00  3.296331890E+02  3.296331890E+02  0.000000000E+00  0.00000E+00  9.000E+00
      21    -1     0     0   501   511  0.000000000E+00  0.000000000E+00 -5.466210105E+02  5.466210105E+02  0.000000000E+00  0.00000E+00  9.000E+00
      25     1     1     2     0     0 -2.632233704E+02 -1.059514946E+02  4.287680883E+01  3.130106750E+02  1.250000000E+02  0.00000E+00  9.000E+00
      25     1     1     2     0     0  3.139245792E+01  1.871476242E+02 -3.440759195E+01  2.298229798E+02  1.250000000E+02  0.00000E+00  9.000E+00
      21     1     1     2   502   511  2.318309125E+02 -8.119612965E+01 -2.254570384E+02  3.334205447E+02  3.814697266E-06  0.00000E+00  9.000E+00
#rwgt            2          11   1.8022155551836588E-003           6      301545           0
</event>
<event>
      5   9999  3.79277E-02  3.89234E+01 -1.00000E+00  1.45579E-01
      21    -1     0     0   502   501  0.000000000E+00  0.000000000E+00  5.073136505E+02  5.073136505E+02  0.000000000E+00  0.00000E+00  9.000E+00
      21    -1     0     0   512   502  0.000000000E+00  0.000000000E+00 -1.230431179E+02  1.230431179E+02  0.000000000E+00  0.00000E+00  9.000E+00
      25     1     1     2     0     0  4.247760589E+01 -1.827019341E+02  1.503846702E+02  2.709702802E+02  1.250000000E+02  0.00000E+00  9.000E+00
      25     1     1     2     0     0 -7.333583617E+01  1.589785152E+02  2.373230338E+02  3.203116225E+02  1.250000000E+02  0.00000E+00  9.000E+00
      21     1     1     2   512   501  3.085823028E+01  2.372341890E+01 -3.437171379E+00  3.907486568E+01  1.332800375E-07  0.00000E+00  9.000E+00
#rwgt            1           1   3.1946171219839350E-002           6      301565           0
</event>
<event>
      5   9999 -3.79277E-02  1.35061E+01 -1.00000E+00  1.81786E-01
      21    -1     0     0   502   501  0.000000000E+00  0.000000000E+00  5.791230676E+01  5.791230676E+01  0.000000000E+00  0.00000E+00  9.000E+00
      21    -1     0     0   501   511  0.000000000E+00  0.000000000E+00 -7.184753917E+02  7.184753917E+02  0.000000000E+00  0.00000E+00  9.000E+00
      25     1     1     2     0     0 -8.898376450E+01  1.080203746E+02 -2.167433173E+02  2.866865488E+02  1.250000000E+02  0.00000E+00  9.000E+00
      25     1     1     2     0     0  9.735670316E+01 -9.742275907E+01 -3.642127688E+02  4.089565534E+02  1.250000000E+02  0.00000E+00  9.000E+00
      21     1     1     2   502   511 -8.372938660E+00 -1.059761553E+01 -7.960699880E+01  8.074459620E+01  9.536743164E-07  0.00000E+00  9.000E+00
#rwgt            1           1  -3.2530162794237101E-002           6      301704           0
</event>
<event>
      5   9999  3.79277E-02  3.20358E+01 -1.00000E+00  1.51085E-01
      21    -1     0     0   502   501  0.000000000E+00  0.000000000E+00  2.889621652E+02  2.889621652E+02  0.000000000E+00  0.00000E+00  9.000E+00
      21    -1     0     0   501   512  0.000000000E+00  0.000000000E+00 -4.808027071E+02  4.808027071E+02  0.000000000E+00  0.00000E+00  9.000E+00
      25     1     1     2     0     0 -8.712600921E+01  1.010346010E+02  4.232999464E+01  1.876586276E+02  1.250000000E+02  0.00000E+00  9.000E+00
      25     1     1     2     0     0  8.394643272E+01 -1.329122128E+02  1.150221685E+02  2.314470979E+02  1.250000000E+02  0.00000E+00  9.000E+00
      21     1     1     2   502   512  3.179576492E+00  3.187761183E+01 -3.491927051E+02  3.506591466E+02  3.814697266E-06  0.00000E+00  9.000E+00
#rwgt            1           1   3.4095526683747414E-002           6      301960           0
</event>
<event>
      5   9999  3.79277E-02  2.56822E+02 -1.00000E+00  1.07832E-01
      21    -1     0     0   502   501  0.000000000E+00  0.000000000E+00  1.954051268E+02  1.954051268E+02  0.000000000E+00  0.00000E+00  9.000E+00
      21    -1     0     0   511   502  0.000000000E+00  0.000000000E+00 -7.813339334E+02  7.813339334E+02  0.000000000E+00  0.00000E+00  9.000E+00
      25     1     1     2     0     0  3.229567624E+02 -8.354454128E+01 -2.632821643E+02  4.429709458E+02  1.250000000E+02  0.00000E+00  9.000E+00
      25     1     1     2     0     0 -9.856267373E+01 -4.137559406E+01 -9.132280309E+01  1.881260078E+02  1.250000000E+02  0.00000E+00  9.000E+00
      21     1     1     2   511   501 -2.243940887E+02  1.249201353E+02 -2.313238393E+02  3.456421066E+02  4.672030912E-06  0.00000E+00  9.000E+00
#rwgt            1           1   3.3309946507145263E-002           6      302107           0
</event>
<event>
      5   9999 -3.79277E-02  6.46424E+01 -1.00000E+00  1.32996E-01
       3    -1     0     0   502     0  0.000000000E+00  0.000000000E+00  3.397086565E+02  3.397086565E+02  0.000000000E+00  0.00000E+00  9.000E+00
      21    -1     0     0   501   502  0.000000000E+00  0.000000000E+00 -1.792801998E+02  1.792801998E+02  0.000000000E+00  0.00000E+00  9.000E+00
      25     1     1     2     0     0  1.199010083E+02 -4.450920319E+01  5.488860947E+01  1.870697207E+02  1.250000000E+02  0.00000E+00  9.000E+00
      25     1     1     2     0     0 -1.804601278E+02  2.189888092E+01  1.560756068E+01  2.211651299E+02  1.250000000E+02  0.00000E+00  9.000E+00
       3     1     1     2   501     0  6.055911952E+01  2.261032227E+01  8.993228651E+01  1.107540057E+02  9.536743164E-07  0.00000E+00  9.000E+00
#rwgt            1           1 -0.11206002337084005                6      302231           0
</event>
<event>
      5   9999  3.79277E-02  8.86545E+00 -1.00000E+00  2.02004E-01
      21    -1     0     0   502   501  0.000000000E+00  0.000000000E+00  3.954336251E+02  3.954336251E+02  0.000000000E+00  0.00000E+00  9.000E+00
      21    -1     0     0   511   502  0.000000000E+00  0.000000000E+00 -2.586759284E+02  2.586759284E+02  0.000000000E+00  0.00000E+00  9.000E+00
      25     1     1     2     0     0  3.660128158E+00  2.647485429E+02  1.562066225E+02  3.318594528E+02  1.250000000E+02  0.00000E+00  9.000E+00
      25     1     1     2     0     0 -3.567531993E-01 -2.565215168E+02  1.590695351E+01  2.857996624E+02  1.250000000E+02  0.00000E+00  9.000E+00
      21     1     1     2   511   501 -3.303374958E+00 -8.227026080E+00 -3.535587935E+01  3.645043825E+01  4.768371582E-07  0.00000E+00  9.000E+00
#rwgt            1           1   3.9354399707488032E-002           6      302348           0
</event>
<event>
      5   9999  3.79277E-02  1.54756E+02 -1.00000E+00  1.15859E-01
      21    -1     0     0   502   512  0.000000000E+00  0.000000000E+00  5.914764295E+02  5.914764295E+02  0.000000000E+00  0.00000E+00  9.000E+00
      21    -1     0     0   501   502  0.000000000E+00  0.000000000E+00 -1.720128401E+02  1.720128401E+02  0.000000000E+00  0.00000E+00  9.000E+00
      25     1     1     2     0     0  7.193921057E+01 -2.468863876E+02  2.206996290E+02  3.611944969E+02  1.250000000E+02  0.00000E+00  9.000E+00
      25     1     1     2     0     0 -6.398422971E+01  9.233512634E+01  2.550754945E+01  1.699864474E+02  1.250000000E+02  0.00000E+00  9.000E+00
      21     1     1     2   501   512 -7.954980856E+00  1.545512612E+02  1.732564110E+02  2.323083253E+02  3.303624740E-06  0.00000E+00  9.000E+00
#rwgt            1           1  0.13285919466520399                6      302652           0
</event>
<event>
      5   9999  3.79277E-02  1.44104E+01 -1.00000E+00  1.79040E-01
      21    -1     0     0   502   501  0.000000000E+00  0.000000000E+00  7.200323698E+01  7.200323698E+01  0.000000000E+00  0.00000E+00  9.000E+00
      21    -1     0     0   501   511  0.000000000E+00  0.000000000E+00 -5.249192179E+02  5.249192179E+02  0.000000000E+00  0.00000E+00  9.000E+00
      25     1     1     2     0     0  1.066822467E+02  6.176377066E+01 -1.459660395E+02  2.283132712E+02  1.250000000E+02  0.00000E+00  9.000E+00
      25     1     1     2     0     0 -1.207609696E+02 -6.483763973E+01 -2.592715640E+02  3.188006826E+02  1.250000000E+02  0.00000E+00  9.000E+00
      21     1     1     2   502   511  1.407872284E+01  3.073869067E+00 -4.767837743E+01  4.980850110E+01  0.000000000E+00  0.00000E+00  9.000E+00
#rwgt            1           1   2.4666054010003626E-002           6      302682           0
</event>
<event>
      5   9999  3.79277E-02  2.99366E+01 -1.00000E+00  1.53104E-01
      21    -1     0     0   502   501  0.000000000E+00  0.000000000E+00  2.046370278E+02  2.046370278E+02  0.000000000E+00  0.00000E+00  9.000E+00
      21    -1     0     0   512   502  0.000000000E+00  0.000000000E+00 -3.829243305E+02  3.829243305E+02  0.000000000E+00  0.00000E+00  9.000E+00
      25     1     1     2     0     0  1.805015785E+02  7.460513317E+01 -3.638515627E+01  2.347245733E+02  1.250000000E+02  0.00000E+00  9.000E+00
      25     1     1     2     0     0 -1.607552658E+02 -5.210439034E+01 -2.452253954E+00  2.102097441E+02  1.250000000E+02  0.00000E+00  9.000E+00
      21     1     1     2   512   501 -1.974631268E+01 -2.250074283E+01 -1.394498924E+02  1.426270409E+02  1.907348633E-06  0.00000E+00  9.000E+00
#rwgt            1           1   5.0051740448281069E-002           6      302897           0
</event>
<event>
      5   9999  3.79277E-02  5.56611E+01 -1.00000E+00  1.36469E-01
      21    -1     0     0   502   501  0.000000000E+00  0.000000000E+00  7.504474333E+02  7.504474333E+02  0.000000000E+00  0.00000E+00  9.000E+00
       1    -1     0     0   501     0  0.000000000E+00  0.000000000E+00 -1.624170667E+02  1.624170667E+02  0.000000000E+00  0.00000E+00  9.000E+00
      25     1     1     2     0     0  1.324851710E+02 -9.324131147E+01  2.192119283E+02  2.998751943E+02  1.250000000E+02  0.00000E+00  9.000E+00
      25     1     1     2     0     0 -1.191284032E+02  3.920659908E+01  4.673794906E+02  4.997972810E+02  1.250000000E+02  0.00000E+00  9.000E+00
       1     1     1     2   502     0 -1.335676779E+01  5.403471239E+01 -9.856105234E+01  1.131920246E+02  2.697398305E-06  0.00000E+00  9.000E+00
#rwgt            1           1  0.16960222588507934                6      302996           0
</event>
<event>
      5   9999  3.79277E-02  2.19465E+02 -1.00000E+00  1.10199E-01
      21    -1     0     0   502   501  0.000000000E+00  0.000000000E+00  4.458709363E+02  4.458709363E+02  0.000000000E+00  0.00000E+00  9.000E+00
       1    -1     0     0   501     0  0.000000000E+00  0.000000000E+00 -1.701173020E+03  1.701173020E+03  0.000000000E+00  0.00000E+00  9.000E+00
      25     1     1     2     0     0  2.642178019E+02 -4.372205319E+02 -3.341714842E+02  6.231118850E+02  1.250000000E+02  0.00000E+00  9.000E+00
      25     1     1     2     0     0 -5.853937099E+01  5.137797459E+02  4.433021457E+01  5.338414121E+02  1.250000000E+02  0.00000E+00  9.000E+00
       1     1     1     2   502     0 -2.056784309E+02 -7.655921409E+01 -9.654608144E+02  9.900906597E+02  1.525878906E-05  0.00000E+00  9.000E+00
#rwgt            2          12   1.6110517278415538E-003           6      303169           0
</event>
<event>
      5   9999  3.79277E-02  3.98642E+01 -1.00000E+00  1.44932E-01
      21    -1     0     0   502   501  0.000000000E+00  0.000000000E+00  2.271021278E+02  2.271021278E+02  0.000000000E+00  0.00000E+00  9.000E+00
      21    -1     0     0   501   511  0.000000000E+00  0.000000000E+00 -2.152235999E+02  2.152235999E+02  0.000000000E+00  0.00000E+00  9.000E+00
      25     1     1     2     0     0  1.109401949E+02 -2.416600761E+01 -9.158402409E+01  1.921050656E+02  1.250000000E+02  0.00000E+00  9.000E+00
      25     1     1     2     0     0 -1.324509144E+02 -9.396581027E+00  1.048035932E+02  2.103338623E+02  1.250000000E+02  0.00000E+00  9.000E+00
      21     1     1     2   502   511  2.151071949E+01  3.356258863E+01 -1.341041122E+00  3.988679982E+01  7.374193091E-07  0.00000E+00  9.000E+00
#rwgt            1           1   3.6955218207446336E-002           6      303188           0
</event>
<event>
      5   9999  3.79277E-02  1.15134E+01 -1.00000E+00  1.88938E-01
      21    -1     0     0   512   501  0.000000000E+00  0.000000000E+00  1.875336373E+02  1.875336373E+02  0.000000000E+00  0.00000E+00  9.000E+00
      21    -1     0     0   501   502  0.000000000E+00  0.000000000E+00 -1.032474258E+03  1.032474258E+03  0.000000000E+00  0.00000E+00  9.000E+00
      25     1     1     2     0     0  4.783988836E+01  8.955354873E+01 -9.063516849E+02  9.205470492E+02  1.250000000E+02  0.00000E+00  9.000E+00
      25     1     1     2     0     0 -4.008639454E+01 -9.806486844E+01 -6.223755297E+01  1.752773529E+02  1.250000000E+02  0.00000E+00  9.000E+00
      21     1     1     2   512   502 -7.753493815E+00  8.511319714E+00  1.236486176E+02  1.241834927E+02  3.015782986E-06  0.00000E+00  9.000E+00
#rwgt            1           1   4.2294238801525927E-002           6      303288           0
</event>
<event>
      5   9999  3.79277E-02  8.21645E+01 -1.00000E+00  1.27791E-01
      21    -1     0     0   502   501  0.000000000E+00  0.000000000E+00  4.692478493E+02  4.692478493E+02  0.000000000E+00  0.00000E+00  9.000E+00
      21    -1     0     0   511   502  0.000000000E+00  0.000000000E+00 -4.181086560E+02  4.181086560E+02  0.000000000E+00  0.00000E+00  9.000E+00
      25     1     1     2     0     0  3.546039777E+01 -9.533369344E+01 -2.764896113E+02  3.200272771E+02  1.250000000E+02  0.00000E+00  9.000E+00
      25     1     1     2     0     0  4.538557483E+01  8.067282228E+01  4.175161758E+02  4.455476536E+02  1.250000000E+02  0.00000E+00  9.000E+00
      21     1     1     2   511   501 -8.084597260E+01  1.466087115E+01 -8.988737114E+01  1.217815746E+02  1.907348633E-06  0.00000E+00  9.000E+00
#rwgt            1           1   3.4401093803603809E-002           6      303583           0
</event>
<event>
      5   9999  3.79277E-02  2.24829E+02 -1.00000E+00  1.09829E-01
      21    -1     0     0   502   512  0.000000000E+00  0.000000000E+00  2.119821134E+02  2.119821134E+02  0.000000000E+00  0.00000E+00  9.000E+00
      21    -1     0     0   501   502  0.000000000E+00  0.000000000E+00 -4.953773293E+02  4.953773293E+02  0.000000000E+00  0.00000E+00  9.000E+00
      25     1     1     2     0     0  1.759463367E+02 -4.855491079E+01 -1.522885670E+01  2.217467268E+02  1.250000000E+02  0.00000E+00  9.000E+00
      25     1     1     2     0     0  4.722498687E+01  2.130197633E+01 -2.158850449E+02  2.547848626E+02  1.250000000E+02  0.00000E+00  9.000E+00
      21     1     1     2   501   512 -2.231713235E+02  2.725293446E+01 -5.228131432E+01  2.308278534E+02  2.023048729E-06  0.00000E+00  9.000E+00
#rwgt            1           1   3.5330876286367323E-002           6      303782           0
</event>
<event>
      5   9999  3.79277E-02  3.54423E+01 -1.00000E+00  1.48176E-01
      21    -1     0     0   502   501  0.000000000E+00  0.000000000E+00  7.112023894E+02  7.112023894E+02  0.000000000E+00  0.00000E+00  9.000E+00
      21    -1     0     0   511   502  0.000000000E+00  0.000000000E+00 -6.341309448E+01  6.341309448E+01  0.000000000E+00  0.00000E+00  9.000E+00
      25     1     1     2     0     0 -2.701177103E+01  1.115818732E+02  3.840508652E+02  4.198811942E+02  1.250000000E+02  0.00000E+00  9.000E+00
      25     1     1     2     0     0  1.554780396E+01 -1.451189576E+02  2.529956844E+02  3.176996418E+02  1.250000000E+02  0.00000E+00  9.000E+00
      21     1     1     2   511   501  1.146396707E+01  3.353708438E+01  1.074274538E+01  3.703464794E+01  5.462855929E-07  0.00000E+00  9.000E+00
#rwgt            1           1   5.7607972751640035E-002           6      303871           0
</event>
<event>
      5   9999  3.79277E-02  3.89722E+01 -1.00000E+00  1.45545E-01
      21    -1     0     0   502   501  0.000000000E+00  0.000000000E+00  6.351732653E+02  6.351732653E+02  0.000000000E+00  0.00000E+00  9.000E+00
      21    -1     0     0   512   502  0.000000000E+00  0.000000000E+00 -1.033915113E+02  1.033915113E+02  0.000000000E+00  0.00000E+00  9.000E+00
      25     1     1     2     0     0 -3.150739939E+01 -9.195760270E+01  3.281279321E+02  3.643375587E+02  1.250000000E+02  0.00000E+00  9.000E+00
      25     1     1     2     0     0 -6.350809352E+00  8.270608239E+01  2.632641489E+02  3.030076582E+02  1.250000000E+02  0.00000E+00  9.000E+00
      21     1     1     2   512   501  3.785820874E+01  9.251520309E+00 -5.961032700E+01  7.121955969E+01  1.784161275E-06  0.00000E+00  9.000E+00
#rwgt            1           1   4.7747752171273479E-002           6      304001           0
</event>
<event>
      5   9999  3.79277E-02  1.91712E+01 -1.00000E+00  1.67900E-01
      21    -1     0     0   502   511  0.000000000E+00  0.000000000E+00  1.025746981E+03  1.025746981E+03  0.000000000E+00  0.00000E+00  9.000E+00
      21    -1     0     0   501   502  0.000000000E+00  0.000000000E+00 -9.152152224E+01  9.152152224E+01  0.000000000E+00  0.00000E+00  9.000E+00
      25     1     1     2     0     0 -7.694991524E+01  2.131290978E+02  3.466214180E+02  4.325698894E+02  1.250000000E+02  0.00000E+00  9.000E+00
      25     1     1     2     0     0  6.391878135E+01 -1.990676479E+02  2.590720603E+02  3.556077494E+02  1.250000000E+02  0.00000E+00  9.000E+00
      21     1     1     2   501   511  1.303113389E+01 -1.406144993E+01  3.285319807E+02  3.290908646E+02  3.814697266E-06  0.00000E+00  9.000E+00
#rwgt            1           1   2.4944685033609804E-002           6      304111           0
</event>
<event>
      5   9999  3.79277E-02  1.31423E+02 -1.00000E+00  1.18716E-01
      21    -1     0     0   502   501  0.000000000E+00  0.000000000E+00  2.378511381E+02  2.378511381E+02  0.000000000E+00  0.00000E+00  9.000E+00
       2    -1     0     0   501     0  0.000000000E+00  0.000000000E+00 -4.268776144E+03  4.268776144E+03  0.000000000E+00  0.00000E+00  9.000E+00
      25     1     1     2     0     0  1.021688462E+02  5.428666282E+01 -2.908253002E+02  3.370309632E+02  1.250000000E+02  0.00000E+00  9.000E+00
      25     1     1     2     0     0  2.417822639E+01 -1.811376659E+01  1.942998233E+02  2.330023959E+02  1.250000000E+02  0.00000E+00  9.000E+00
       2     1     1     2   502     0 -1.263470726E+02 -3.617289623E+01 -3.934399529E+03  3.936593923E+03  7.475249459E-05  0.00000E+00  9.000E+00
#rwgt            1           1   3.5910618843710954E-002           6      304287           0
</event>
<event>
      5   9999  3.79277E-02  3.17835E+01 -1.00000E+00  1.51318E-01
      21    -1     0     0   502   501  0.000000000E+00  0.000000000E+00  8.297678717E+02  8.297678717E+02  0.000000000E+00  0.00000E+00  9.000E+00
      21    -1     0     0   501   511  0.000000000E+00  0.000000000E+00 -5.620262923E+01  5.620262923E+01  0.000000000E+00  0.00000E+00  9.000E+00
      25     1     1     2     0     0  9.518754323E+00 -1.178142097E+02  2.412847105E+02  2.963344499E+02  1.250000000E+02  0.00000E+00  9.000E+00
      25     1     1     2     0     0  1.251425553E+01  1.407213720E+02  5.238125388E+02  5.567438252E+02  1.250000000E+02  0.00000E+00  9.000E+00
      21     1     1     2   502   511 -2.203300985E+01 -2.290716235E+01  8.467993215E+00  3.289222581E+01  7.052516679E-07  0.00000E+00  9.000E+00
#rwgt            1           1   3.8350949317018886E-002           6      304428           0
</event>
<event>
      5   9999  3.79277E-02  1.10602E+01 -1.00000E+00  1.90830E-01
      21    -1     0     0   502   512  0.000000000E+00  0.000000000E+00  2.789186451E+02  2.789186451E+02  0.000000000E+00  0.00000E+00  9.000E+00
      21    -1     0     0   501   502  0.000000000E+00  0.000000000E+00 -1.850197194E+02  1.850197194E+02  0.000000000E+00  0.00000E+00  9.000E+00
      25     1     1     2     0     0  1.589539263E+02  1.829624441E+01 -4.015849170E+01  2.069753794E+02  1.250000000E+02  0.00000E+00  9.000E+00
      25     1     1     2     0     0 -1.615151609E+02 -7.536645277E+00  1.138995764E+02  2.339702154E+02  1.250000000E+02  0.00000E+00  9.000E+00
      21     1     1     2   501   512  2.561234573E+00 -1.075959913E+01  2.015784106E+01  2.299276956E+01  2.384185791E-07  0.00000E+00  9.000E+00
#rwgt            1           1   4.5834889439735640E-002           6      304602           0
</event>
<event>
      5   9999 -3.79277E-02  1.60547E+02 -1.00000E+00  1.15236E-01
      21    -1     0     0   511   501  0.000000000E+00  0.000000000E+00  4.840277769E+02  4.840277769E+02  0.000000000E+00  0.00000E+00  9.000E+00
      21    -1     0     0   501   502  0.000000000E+00  0.000000000E+00 -2.085409125E+02  2.085409125E+02  0.000000000E+00  0.00000E+00  9.000E+00
      25     1     1     2     0     0  1.170202632E+02 -1.706823002E+02  9.499882652E+01  2.597613648E+02  1.250000000E+02  0.00000E+00  9.000E+00
      25     1     1     2     0     0  4.266791877E+01  1.872691005E+02  7.680443338E+01  2.416902734E+02  1.250000000E+02  0.00000E+00  9.000E+00
      21     1     1     2   511   502 -1.596881820E+02 -1.658680033E+01  1.036836045E+02  1.911170512E+02  2.336015456E-06  0.00000E+00  9.000E+00
#rwgt            1           1 -0.30701842541244184                6      304801           0
</event>
<event>
      5   9999  3.79277E-02  1.16782E+02 -1.00000E+00  1.20872E-01
      21    -1     0     0   502   512  0.000000000E+00  0.000000000E+00  1.283916867E+03  1.283916867E+03  0.000000000E+00  0.00000E+00  9.000E+00
      21    -1     0     0   501   502  0.000000000E+00  0.000000000E+00 -5.861662293E+02  5.861662293E+02  0.000000000E+00  0.00000E+00  9.000E+00
      25     1     1     2     0     0 -1.209907701E+02  2.667229540E+01  4.714303199E+01  1.822022043E+02  1.250000000E+02  0.00000E+00  9.000E+00
      25     1     1     2     0     0  4.902413818E+01  6.529960915E+01 -5.048864438E+02  5.265004523E+02  1.250000000E+02  0.00000E+00  9.000E+00
      21     1     1     2   501   512  7.196663194E+01 -9.197190455E+01  1.155494049E+03  1.161380439E+03  1.525878906E-05  0.00000E+00  9.000E+00
#rwgt            1           1   3.3026076914343346E-002           6      304862           0
</event>
<event>
      5   9999  3.79277E-02  4.26154E+01 -1.00000E+00  1.43155E-01
      21    -1     0     0   502   501  0.000000000E+00  0.000000000E+00  2.829668092E+02  2.829668092E+02  0.000000000E+00  0.00000E+00  9.000E+00
      21    -1     0     0   511   502  0.000000000E+00  0.000000000E+00 -1.897824449E+02  1.897824449E+02  0.000000000E+00  0.00000E+00  9.000E+00
      25     1     1     2     0     0 -7.817101976E+01 -3.261817966E+01  1.897092824E+02  2.424649785E+02  1.250000000E+02  0.00000E+00  9.000E+00
      25     1     1     2     0     0  1.081580340E+02  2.338686929E+00 -6.666769892E+01  1.782504189E+02  1.250000000E+02  0.00000E+00  9.000E+00
      21     1     1     2   511   501 -2.998701423E+01  3.027949274E+01 -2.985721916E+01  5.203385666E+01  8.259061849E-07  0.00000E+00  9.000E+00
#rwgt            1           1   4.0565974183646859E-002           6      304937           0
</event>
<event>
      5   9999  3.79277E-02  2.94664E+01 -1.00000E+00  1.53583E-01
      21    -1     0     0   512   501  0.000000000E+00  0.000000000E+00  3.802927376E+02  3.802927376E+02  0.000000000E+00  0.00000E+00  9.000E+00
      21    -1     0     0   501   502  0.000000000E+00  0.000000000E+00 -9.210829518E+01  9.210829518E+01  0.000000000E+00  0.00000E+00  9.000E+00
      25     1     1     2     0     0  5.280412323E+01 -6.090484296E+01  2.095519745E+02  2.569721879E+02  1.250000000E+02  0.00000E+00  9.000E+00
      25     1     1     2     0     0 -8.037851449E+01  7.129347550E+01  4.530198410E+01  1.709407354E+02  1.250000000E+02  0.00000E+00  9.000E+00
      21     1     1     2   512   502  2.757439125E+01 -1.038863254E+01  3.333048379E+01  4.448810952E+01  8.259061849E-07  0.00000E+00  9.000E+00
#rwgt            1           1   4.7380031403915848E-002           6      305033           0
</event>
<event>
      5   9999  3.79277E-02  1.06826E+01 -1.00000E+00  1.92499E-01
      21    -1     0     0   502   501  0.000000000E+00  0.000000000E+00  3.805351731E+02  3.805351731E+02  0.000000000E+00  0.00000E+00  9.000E+00
      21    -1     0     0   501   511  0.000000000E+00  0.000000000E+00 -1.068712135E+02  1.068712135E+02  0.000000000E+00  0.00000E+00  9.000E+00
      25     1     1     2     0     0 -9.352949690E+01  3.384013476E+01  2.663254849E+02  3.105594716E+02  1.250000000E+02  0.00000E+00  9.000E+00
      25     1     1     2     0     0  1.032616748E+02 -2.943518414E+01  1.759778447E+00  1.647953287E+02  1.250000000E+02  0.00000E+00  9.000E+00
      21     1     1     2   502   511 -9.732177933E+00 -4.404950619E+00  5.578696275E+00  1.205158618E+01  1.332800375E-07  0.00000E+00  9.000E+00
#rwgt            1           1   3.6523813300645393E-002           6      305287           0
</event>
<event>
      5   9999  3.79277E-02  1.76525E+01 -1.00000E+00  1.70971E-01
      21    -1     0     0   502   501  0.000000000E+00  0.000000000E+00  8.380294451E+01  8.380294451E+01  0.000000000E+00  0.00000E+00  9.000E+00
      21    -1     0     0   512   502  0.000000000E+00  0.000000000E+00 -5.496625168E+02  5.496625168E+02  0.000000000E+00  0.00000E+00  9.000E+00
      25     1     1     2     0     0 -7.444832253E+01  8.691117432E+01 -5.485399711E+01  1.781293517E+02  1.250000000E+02  0.00000E+00  9.000E+00
      25     1     1     2     0     0  7.243120822E+01 -1.044480821E+02 -3.768077237E+02  4.168509834E+02  1.250000000E+02  0.00000E+00  9.000E+00
      21     1     1     2   512   501  2.017114312E+00  1.753690781E+01 -3.419785154E+01  3.848512616E+01  4.768371582E-07  0.00000E+00  9.000E+00
#rwgt            1           1   4.5801839917727662E-002           6      305615           0
</event>
<event>
      5   9999  3.79277E-02  4.12051E+01 -1.00000E+00  1.44045E-01
      21    -1     0     0   502   501  0.000000000E+00  0.000000000E+00  2.053925229E+03  2.053925229E+03  0.000000000E+00  0.00000E+00  9.000E+00
      21    -1     0     0   511   502  0.000000000E+00  0.000000000E+00 -2.018792824E+01  2.018792824E+01  0.000000000E+00  0.00000E+00  9.000E+00
      25     1     1     2     0     0 -1.016848838E+02  6.515359791E+01  8.815377989E+02  8.985091528E+02  1.250000000E+02  0.00000E+00  9.000E+00
      25     1     1     2     0     0  1.000367993E+02 -1.063257643E+02  9.538681063E+02  9.730374574E+02  1.250000000E+02  0.00000E+00  9.000E+00
      21     1     1     2   511   501  1.648084556E+00  4.117216638E+01  1.983313953E+02  2.025665467E+02  0.000000000E+00  0.00000E+00  9.000E+00
#rwgt            1           1  0.16665505685822699                6      305938           0
</event>
<event>
      5   9999  3.79277E-02  1.53093E+01 -1.00000E+00  1.76553E-01
      21    -1     0     0   512   501  0.000000000E+00  0.000000000E+00  7.473749830E+02  7.473749830E+02  0.000000000E+00  0.00000E+00  9.000E+00
      21    -1     0     0   501   502  0.000000000E+00  0.000000000E+00 -1.523058983E+02  1.523058983E+02  0.000000000E+00  0.00000E+00  9.000E+00
      25     1     1     2     0     0  1.150575457E+02 -1.532728572E+02  5.843912054E+01  2.361587144E+02  1.250000000E+02  0.00000E+00  9.000E+00
      25     1     1     2     0     0 -1.248958876E+02  1.415433855E+02  1.391480539E+02  2.657455430E+02  1.250000000E+02  0.00000E+00  9.000E+00
      21     1     1     2   512   502  9.838341901E+00  1.172947163E+01  3.974819103E+02  3.977766239E+02  5.394796609E-06  0.00000E+00  9.000E+00
#rwgt            1           1   3.8468932335930253E-002           6      306085           0
</event>
<event>
      5   9999  3.79277E-02  4.05913E+01 -1.00000E+00  1.44446E-01
      21    -1     0     0   502   501  0.000000000E+00  0.000000000E+00  1.051166808E+03  1.051166808E+03  0.000000000E+00  0.00000E+00  9.000E+00
      21    -1     0     0   511   502  0.000000000E+00  0.000000000E+00 -1.379632919E+02  1.379632919E+02  0.000000000E+00  0.00000E+00  9.000E+00
      25     1     1     2     0     0  9.217496304E+01 -2.792314045E+02  3.164629828E+02  4.497112635E+02  1.250000000E+02  0.00000E+00  9.000E+00
      25     1     1     2     0     0 -1.327413763E+02  2.778108251E+02  6.117210816E+02  6.961514269E+02  1.250000000E+02  0.00000E+00  9.000E+00
      21     1     1     2   511   501  4.056641324E+01  1.420579487E+00 -1.498054802E+01  4.326740977E+01  8.760057960E-07  0.00000E+00  9.000E+00
#rwgt            1           1   1.5017787942626508E-002           6      306316           0
</event>
<event>
      5   9999  3.79277E-02  8.91187E+01 -1.00000E+00  1.26121E-01
      21    -1     0     0   512   501  0.000000000E+00  0.000000000E+00  2.156087493E+02  2.156087493E+02  0.000000000E+00  0.00000E+00  9.000E+00
      21    -1     0     0   501   502  0.000000000E+00  0.000000000E+00 -7.364320258E+02  7.364320258E+02  0.000000000E+00  0.00000E+00  9.000E+00
      25     1     1     2     0     0 -4.386407501E+01  1.334355807E+00  3.204962144E+00  1.325183360E+02  1.250000000E+02  0.00000E+00  9.000E+00
      25     1     1     2     0     0 -3.326385706E+01 -4.598217635E+01 -6.504876868E+02  6.648158207E+02  1.250000000E+02  0.00000E+00  9.000E+00
      21     1     1     2   512   502  7.712793208E+01  4.464782055E+01  1.264594481E+02  1.547066185E+02  1.907348633E-06  0.00000E+00  9.000E+00
#rwgt            1           1   5.6656782769159329E-002           6      306506           0
</event>
<event>
      5   9999  3.79277E-02  9.34449E+00 -1.00000E+00  1.99224E-01
      21    -1     0     0   502   511  0.000000000E+00  0.000000000E+00  1.637227154E+03  1.637227154E+03  0.000000000E+00  0.00000E+00  9.000E+00
      21    -1     0     0   501   502  0.000000000E+00  0.000000000E+00 -1.236615962E+02  1.236615962E+02  0.000000000E+00  0.00000E+00  9.000E+00
      25     1     1     2     0     0 -1.893458131E+01 -1.334030177E+02  7.927072217E+01  2.001592638E+02  1.250000000E+02  0.00000E+00  9.000E+00
      25     1     1     2     0     0  2.758246298E+01  1.298627262E+02  6.832323105E+01  1.947259197E+02  1.250000000E+02  0.00000E+00  9.000E+00
      21     1     1     2   501   511 -8.647881675E+00  3.540291533E+00  1.365971605E+03  1.366003567E+03  2.157918644E-05  0.00000E+00  9.000E+00
#rwgt            1           1   3.5384271369639710E-002           6      306578           0
</event>
<event>
      5   9999  3.79277E-02  4.96435E+01 -1.00000E+00  1.39253E-01
      21    -1     0     0   502   512  0.000000000E+00  0.000000000E+00  1.866825210E+02  1.866825210E+02  0.000000000E+00  0.00000E+00  9.000E+00
      21    -1     0     0   501   502  0.000000000E+00  0.000000000E+00 -6.372177237E+02  6.372177237E+02  0.000000000E+00  0.00000E+00  9.000E+00
      25     1     1     2     0     0  6.938295024E+01 -1.213391590E+01 -1.939895584E+02  2.412844265E+02  1.250000000E+02  0.00000E+00  9.000E+00
      25     1     1     2     0     0 -8.605355838E+01  5.889469352E+01 -3.994438477E+02  4.313399904E+02  1.250000000E+02  0.00000E+00  9.000E+00
      21     1     1     2   501   512  1.667060814E+01 -4.676077761E+01  1.428982035E+02  1.512758278E+02  1.907348633E-06  0.00000E+00  9.000E+00
#rwgt            1           1   4.4283246004959975E-002           6      306855           0
</event>
<event>
      5   9999  3.79277E-02  2.46497E+01 -1.00000E+00  1.59211E-01
      21    -1     0     0   511   501  0.000000000E+00  0.000000000E+00  2.535341915E+02  2.535341915E+02  0.000000000E+00  0.00000E+00  9.000E+00
      21    -1     0     0   501   502  0.000000000E+00  0.000000000E+00 -4.102056039E+02  4.102056039E+02  0.000000000E+00  0.00000E+00  9.000E+00
      25     1     1     2     0     0  5.017507377E+01 -2.645116090E+02 -1.240332099E+02  3.217035382E+02  1.250000000E+02  0.00000E+00  9.000E+00
      25     1     1     2     0     0 -6.898247146E+01  2.804455214E+02 -3.746696621E+01  3.169180420E+02  1.250000000E+02  0.00000E+00  9.000E+00
      21     1     1     2   511   502  1.880739768E+01 -1.593391233E+01  4.828763742E+00  2.511821508E+01  3.625608999E-07  0.00000E+00  9.000E+00
#rwgt            1           1   3.4115675253252188E-002           6      306961           0
</event>
<event>
      5   9999  3.79277E-02  3.04311E+01 -1.00000E+00  1.52611E-01
       3    -1     0     0   502     0  0.000000000E+00  0.000000000E+00  6.777132431E+02  6.777132431E+02  0.000000000E+00  0.00000E+00  9.000E+00
      21    -1     0     0   501   502  0.000000000E+00  0.000000000E+00 -4.406065544E+02  4.406065544E+02  0.000000000E+00  0.00000E+00  9.000E+00
      25     1     1     2     0     0  1.656302046E+02  1.578697730E+02 -1.094922045E+02  2.827892727E+02  1.250000000E+02  0.00000E+00  9.000E+00
      25     1     1     2     0     0 -1.742724186E+02 -1.870479060E+02 -1.610394480E+02  3.269808845E+02  1.250000000E+02  0.00000E+00  9.000E+00
       3     1     1     2   501     0  8.642214003E+00  2.917813299E+01  5.076383411E+02  5.085496403E+02  0.000000000E+00  0.00000E+00  9.000E+00
#rwgt            1           1   2.6682922674186930E-002           6      307191           0
</event>
<event>
      5   9999  3.79277E-02  6.69367E+01 -1.00000E+00  1.32213E-01
      21    -1     0     0   502   501  0.000000000E+00  0.000000000E+00  5.092467787E+02  5.092467787E+02  0.000000000E+00  0.00000E+00  9.000E+00
      21    -1     0     0   511   502  0.000000000E+00  0.000000000E+00 -1.075416995E+02  1.075416995E+02  0.000000000E+00  0.00000E+00  9.000E+00
      25     1     1     2     0     0  3.695806176E+01 -1.071676530E+02  3.688116133E+02  4.055832964E+02  1.250000000E+02  0.00000E+00  9.000E+00
      25     1     1     2     0     0 -5.024934486E+01  4.156382819E+01  1.416349796E+01  1.416973999E+02  1.250000000E+02  0.00000E+00  9.000E+00
      21     1     1     2   511   501  1.329128310E+01  6.560382486E+01  1.872996793E+01  6.950778188E+01  6.307962682E-07  0.00000E+00  9.000E+00
#rwgt            1           1   4.5277332445369543E-002           6      307306           0
</event>
<event>
      5   9999 -3.79277E-02  3.15690E+01 -1.00000E+00  1.51518E-01
      21    -1     0     0   502   501  0.000000000E+00  0.000000000E+00  8.354554829E+02  8.354554829E+02  0.000000000E+00  0.00000E+00  9.000E+00
      21    -1     0     0   512   502  0.000000000E+00  0.000000000E+00 -2.306951053E+02  2.306951053E+02  0.000000000E+00  0.00000E+00  9.000E+00
      25     1     1     2     0     0  1.007741315E+02 -6.318475186E+01  3.878098492E+02  4.244634467E+02  1.250000000E+02  0.00000E+00  9.000E+00
      25     1     1     2     0     0 -1.151226081E+02  9.130458081E+01  4.062748769E+02  4.497488376E+02  1.250000000E+02  0.00000E+00  9.000E+00
      21     1     1     2   512   501  1.434847657E+01 -2.811982896E+01 -1.893243485E+02  1.919383038E+02  0.000000000E+00  0.00000E+00  9.000E+00
#rwgt            1           1 -0.22942237914530861                6      307384           0
</event>
<event>
      5   9999  3.79277E-02  9.97353E+01 -1.00000E+00  1.23880E-01
      21    -1     0     0   502   501  0.000000000E+00  0.000000000E+00  7.425412710E+01  7.425412710E+01  0.000000000E+00  0.00000E+00  9.000E+00
      21    -1     0     0   501   511  0.000000000E+00  0.000000000E+00 -9.123576184E+02  9.123576184E+02  0.000000000E+00  0.00000E+00  9.000E+00
      25     1     1     2     0     0 -9.406327341E+01 -3.065194559E+01 -1.350290171E+02  2.089145199E+02  1.250000000E+02  0.00000E+00  9.000E+00
      25     1     1     2     0     0  1.925670155E+02  1.502665831E+01 -4.435731704E+02  4.996899173E+02  1.250000000E+02  0.00000E+00  9.000E+00
      21     1     1     2   502   511 -9.850374209E+01  1.562528728E+01 -2.595013038E+02  2.780073083E+02  3.814697266E-06  0.00000E+00  9.000E+00
#rwgt            1           1  0.29261404794607426                6      307502           0
</event>
<event>
      5   9999  3.79277E-02  1.27525E+01 -1.00000E+00  1.84293E-01
      21    -1     0     0   502   501  0.000000000E+00  0.000000000E+00  7.653398498E+01  7.653398498E+01  0.000000000E+00  0.00000E+00  9.000E+00
       2    -1     0     0   501     0  0.000000000E+00  0.000000000E+00 -1.764666448E+03  1.764666448E+03  0.000000000E+00  0.00000E+00  9.000E+00
      25     1     1     2     0     0  1.488793759E+02 -6.056601675E+01 -2.088366490E+02  2.916694309E+02  1.250000000E+02  0.00000E+00  9.000E+00
      25     1     1     2     0     0 -1.389425772E+02  6.855886702E+01 -2.473068570E+02  3.174760456E+02  1.250000000E+02  0.00000E+00  9.000E+00
       2     1     1     2   502     0 -9.936798710E+00 -7.992850275E+00 -1.231988957E+03  1.232054957E+03  1.525878906E-05  0.00000E+00  9.000E+00
#rwgt            1           1   3.5556246110246846E-002           6      307590           0
</event>
<event>
      5   9999  3.79277E-02  1.46455E+01 -1.00000E+00  1.78368E-01
      21    -1     0     0   502   501  0.000000000E+00  0.000000000E+00  2.381819209E+02  2.381819209E+02  0.000000000E+00  0.00000E+00  9.000E+00
      21    -1     0     0   511   502  0.000000000E+00  0.000000000E+00 -7.772804109E+02  7.772804109E+02  0.000000000E+00  0.00000E+00  9.000E+00
      25     1     1     2     0     0  7.117700455E+01  1.365524513E+02  1.151924509E+02  2.293622433E+02  1.250000000E+02  0.00000E+00  9.000E+00
      25     1     1     2     0     0 -5.977886804E+01 -1.273561224E+02 -6.872760682E+01  2.003536346E+02  1.250000000E+02  0.00000E+00  9.000E+00
      21     1     1     2   511   501 -1.139813651E+01 -9.196328907E+00 -5.855633340E+02  5.857464538E+02  0.000000000E+00  0.00000E+00  9.000E+00
#rwgt            1           1   3.7428597511243833E-002           6      307792           0
</event>
<event>
      5   9999  3.79277E-02  4.42579E+01 -1.00000E+00  1.42167E-01
      21    -1     0     0   502   501  0.000000000E+00  0.000000000E+00  8.451255337E+02  8.451255337E+02  0.000000000E+00  0.00000E+00  9.000E+00
      21    -1     0     0   501   512  0.000000000E+00  0.000000000E+00 -1.013918088E+02  1.013918088E+02  0.000000000E+00  0.00000E+00  9.000E+00
      25     1     1     2     0     0  6.139433084E+01  2.345678472E+02  4.696543183E+02  5.431312157E+02  1.250000000E+02  0.00000E+00  9.000E+00
      25     1     1     2     0     0 -2.144611550E+01 -2.155179372E+02  2.470871933E+02  3.515465804E+02  1.250000000E+02  0.00000E+00  9.000E+00
      21     1     1     2   502   512 -3.994821534E+01 -1.904991003E+01  2.699221324E+01  5.183954626E+01  1.215700987E-06  0.00000E+00  9.000E+00
#rwgt            1           1   3.6965422087018716E-002           6      308019           0
</event>
<event>
      5   9999 -3.79277E-02  3.81227E+02 -1.00000E+00  1.02318E-01
      21    -1     0     0   502   501  0.000000000E+00  0.000000000E+00  1.125936853E+03  1.125936853E+03  0.000000000E+00  0.00000E+00  9.000E+00
      21    -1     0     0   501   511  0.000000000E+00  0.000000000E+00 -4.618909960E+02  4.618909960E+02  0.000000000E+00  0.00000E+00  9.000E+00
      25     1     1     2     0     0 -6.059586345E+02  2.753032345E+01  3.420400443E+02  7.075027755E+02  1.250000000E+02  0.00000E+00  9.000E+00
      25     1     1     2     0     0  3.251637734E+02  2.303235950E+02  2.656622370E+02  4.949564245E+02  1.250000000E+02  0.00000E+00  9.000E+00
      21     1     1     2   502   511  2.807948610E+02 -2.578539185E+02  5.634357586E+01  3.853686492E+02  5.135693366E-06  0.00000E+00  9.000E+00
#rwgt            1           1 -0.53797079978283502                6      308604           0
</event>
<event>
      5   9999  3.79277E-02  1.49337E+02 -1.00000E+00  1.16470E-01
      21    -1     0     0   502   501  0.000000000E+00  0.000000000E+00  7.587855306E+01  7.587855306E+01  0.000000000E+00  0.00000E+00  9.000E+00
       2    -1     0     0   501     0  0.000000000E+00  0.000000000E+00 -1.327534463E+03  1.327534463E+03  0.000000000E+00  0.00000E+00  9.000E+00
      25     1     1     2     0     0  1.097630398E+02  7.718742177E+01 -3.007756001E+02  3.522737353E+02  1.250000000E+02  0.00000E+00  9.000E+00
      25     1     1     2     0     0 -1.664960308E+02  6.095317148E+01 -2.348917998E+02  3.197426699E+02  1.250000000E+02  0.00000E+00  9.000E+00
       2     1     1     2   502     0  5.673299096E+01 -1.381405933E+02 -7.159885099E+02  7.313966106E+02  7.629394531E-06  0.00000E+00  9.000E+00
#rwgt            1           1   4.9331176700532296E-002           6      308664           0
</event>
<event>
      5   9999  3.79277E-02  6.82625E+01 -1.00000E+00  1.31776E-01
      21    -1     0     0   502   511  0.000000000E+00  0.000000000E+00  2.348122284E+02  2.348122284E+02  0.000000000E+00  0.00000E+00  9.000E+00
      21    -1     0     0   501   502  0.000000000E+00  0.000000000E+00 -2.525148882E+02  2.525148882E+02  0.000000000E+00  0.00000E+00  9.000E+00
      25     1     1     2     0     0 -4.680948331E+01  7.695170836E+01 -1.510433195E+02  2.157586093E+02  1.250000000E+02  0.00000E+00  9.000E+00
      25     1     1     2     0     0 -4.443165181E+00 -3.186356368E+01  8.585794187E+00  1.293589744E+02  1.250000000E+02  0.00000E+00  9.000E+00
      21     1     1     2   501   511  5.125264849E+01 -4.508814468E+01  1.247548654E+02  1.422095328E+02  1.348699152E-06  0.00000E+00  9.000E+00
#rwgt            1           1   3.5662592641049734E-002           6      308770           0
</event>
<event>
      5   9999  3.79277E-02  1.48537E+01 -1.00000E+00  1.77785E-01
      21    -1     0     0   502   501  0.000000000E+00  0.000000000E+00  1.624067734E+02  1.624067734E+02  0.000000000E+00  0.00000E+00  9.000E+00
      21    -1     0     0   512   502  0.000000000E+00  0.000000000E+00 -2.191016089E+02  2.191016089E+02  0.000000000E+00  0.00000E+00  9.000E+00
      25     1     1     2     0     0 -4.883846547E+01 -1.263530211E+02 -4.604994874E+01  1.899891561E+02  1.250000000E+02  0.00000E+00  9.000E+00
      25     1     1     2     0     0  5.224803037E+01  1.118958861E+02 -5.502538979E+00  1.758005232E+02  1.250000000E+02  0.00000E+00  9.000E+00
      21     1     1     2   512   501 -3.409564902E+00  1.445713502E+01 -5.142347728E+00  1.571870306E+01  8.429369702E-08  0.00000E+00  9.000E+00
#rwgt            1           1   4.1567349988006388E-002           6      308875           0
</event>
<event>
      5   9999  3.79277E-02  4.72679E+00 -1.00000E+00  2.47479E-01
      21    -1     0     0   502   501  0.000000000E+00  0.000000000E+00  1.544787536E+02  1.544787536E+02  0.000000000E+00  0.00000E+00  9.000E+00
      21    -1     0     0   511   502  0.000000000E+00  0.000000000E+00 -9.505096978E+02  9.505096978E+02  0.000000000E+00  0.00000E+00  9.000E+00
      25     1     1     2     0     0 -1.462616834E+02 -3.345945591E+00 -6.263781622E+02  6.552696219E+02  1.250000000E+02  0.00000E+00  9.000E+00
      25     1     1     2     0     0  1.485001078E+02 -8.172280271E-01  7.273272472E+01  2.072872382E+02  1.250000000E+02  0.00000E+00  9.000E+00
      21     1     1     2   511   501 -2.238424458E+00  4.163173618E+00 -2.423855067E+02  2.424315912E+02  2.697398305E-06  0.00000E+00  9.000E+00
#rwgt            1           1   3.5957377286996828E-002           6      309045           0
</event>
<event>
      5   9999  3.79277E-02  8.21757E+01 -1.00000E+00  1.27788E-01
      21    -1     0     0   512   501  0.000000000E+00  0.000000000E+00  6.813169178E+02  6.813169178E+02  0.000000000E+00  0.00000E+00  9.000E+00
      21    -1     0     0   501   502  0.000000000E+00  0.000000000E+00 -2.551436646E+02  2.551436646E+02  0.000000000E+00  0.00000E+00  9.000E+00
      25     1     1     2     0     0  1.701338544E+02  2.982551678E+02  5.773666082E+01  3.699462062E+02  1.250000000E+02  0.00000E+00  9.000E+00
      25     1     1     2     0     0 -2.171574485E+02 -2.308635135E+02  2.509917602E+02  4.231751209E+02  1.250000000E+02  0.00000E+00  9.000E+00
      21     1     1     2   512   502  4.702359404E+01 -6.739165424E+01  1.174448322E+02  1.433392552E+02  1.907348633E-06  0.00000E+00  9.000E+00
#rwgt            1           1   3.7959738917700436E-002           6      309592           0
</event>
<event>
      5   9999 -3.79277E-02  4.73840E+01 -1.00000E+00  1.40420E-01
      21    -1     0     0   502   501  0.000000000E+00  0.000000000E+00  6.328074752E+01  6.328074752E+01  0.000000000E+00  0.00000E+00  9.000E+00
      21    -1     0     0   511   502  0.000000000E+00  0.000000000E+00 -1.114361506E+03  1.114361506E+03  0.000000000E+00  0.00000E+00  9.000E+00
      25     1     1     2     0     0 -1.895069427E+02  7.384248296E+00 -4.243852696E+02  4.813473439E+02  1.250000000E+02  0.00000E+00  9.000E+00
      25     1     1     2     0     0  1.528928614E+02 -3.746168200E+01 -2.707501312E+02  3.372094871E+02  1.250000000E+02  0.00000E+00  9.000E+00
      21     1     1     2   511   501  3.661408133E+01  3.007743371E+01 -3.559453577E+02  3.590854225E+02  5.394796609E-06  0.00000E+00  9.000E+00
#rwgt            1           1 -0.19234457680610745                6      309689           0
</event>
<event>
      5   9999  3.79277E-02  7.78950E+00 -1.00000E+00  2.09196E-01
      21    -1     0     0   502   501  0.000000000E+00  0.000000000E+00  1.051809371E+02  1.051809371E+02  0.000000000E+00  0.00000E+00  9.000E+00
      21    -1     0     0   512   502  0.000000000E+00  0.000000000E+00 -3.698682179E+02  3.698682179E+02  0.000000000E+00  0.00000E+00  9.000E+00
      25     1     1     2     0     0  1.106124407E+02  1.019470387E+02 -1.408832710E+02  2.410423340E+02  1.250000000E+02  0.00000E+00  9.000E+00
      25     1     1     2     0     0 -1.032042637E+02 -9.953970199E+01 -1.151330068E+02  2.223508074E+02  1.250000000E+02  0.00000E+00  9.000E+00
      21     1     1     2   512   501 -7.408177044E+00 -2.407336759E+00 -8.671003069E+00  1.165601354E+01  1.192092896E-07  0.00000E+00  9.000E+00
#rwgt            1           1   2.6711967930982933E-002           6      309923           0
</event>
<event>
      5   9999  3.79277E-02  1.84118E+01 -1.00000E+00  1.69390E-01
      21    -1     0     0   502   501  0.000000000E+00  0.000000000E+00  7.226020830E+01  7.226020830E+01  0.000000000E+00  0.00000E+00  9.000E+00
       3    -1     0     0   501     0  0.000000000E+00  0.000000000E+00 -1.438095380E+03  1.438095380E+03  0.000000000E+00  0.00000E+00  9.000E+00
      25     1     1     2     0     0  9.683217904E+01 -6.796548030E+01 -4.590305888E+02  4.902344937E+02  1.250000000E+02  0.00000E+00  9.000E+00
      25     1     1     2     0     0 -9.223649898E+01  5.013649050E+01 -6.122467302E+01  1.743407583E+02  1.250000000E+02  0.00000E+00  9.000E+00
       3     1     1     2   502     0 -4.595680063E+00  1.782898981E+01 -8.455799099E+02  8.457803362E+02  0.000000000E+00  0.00000E+00  9.000E+00
#rwgt            1           1   2.6000319914957781E-002           6      310173           0
</event>
<event>
      5   9999  3.79277E-02  8.27982E+01 -1.00000E+00  1.27631E-01
      21    -1     0     0   511   501  0.000000000E+00  0.000000000E+00  1.002054648E+03  1.002054648E+03  0.000000000E+00  0.00000E+00  9.000E+00
      21    -1     0     0   501   502  0.000000000E+00  0.000000000E+00 -9.080194729E+01  9.080194729E+01  0.000000000E+00  0.00000E+00  9.000E+00
      25     1     1     2     0     0  1.588834862E+02  2.083812065E+00  3.135606973E+02  3.730866057E+02  1.250000000E+02  0.00000E+00  9.000E+00
      25     1     1     2     0     0 -8.160935371E+01 -3.182003583E+01  4.250559351E+01  1.584434498E+02  1.250000000E+02  0.00000E+00  9.000E+00
      21     1     1     2   511   502 -7.727413254E+01  2.973622377E+01  5.551864099E+02  5.613265398E+02  7.629394531E-06  0.00000E+00  9.000E+00
#rwgt            2          11   9.3601173828935515E-004           6      310407           0
</event>
<event>
      5   9999  3.79277E-02  9.77883E+01 -1.00000E+00  1.24266E-01
      21    -1     0     0   502   501  0.000000000E+00  0.000000000E+00  9.354402383E+01  9.354402383E+01  0.000000000E+00  0.00000E+00  9.000E+00
       2    -1     0     0   501     0  0.000000000E+00  0.000000000E+00 -1.817267295E+03  1.817267295E+03  0.000000000E+00  0.00000E+00  9.000E+00
      25     1     1     2     0     0  1.527668300E+02  1.043395398E+02 -9.495748625E+02  9.754700731E+02  1.250000000E+02  0.00000E+00  9.000E+00
      25     1     1     2     0     0 -1.243513416E+02 -1.979082987E+02 -1.519877394E+02  3.055425073E+02  1.250000000E+02  0.00000E+00  9.000E+00
       2     1     1     2   502     0 -2.841548835E+01  9.356875888E+01 -6.221606696E+02  6.297987388E+02  7.629394531E-06  0.00000E+00  9.000E+00
#rwgt            1           1   3.7840214187060149E-002           6      310427           0
</event>
<event>
      5   9999  3.79277E-02  2.72646E+01 -1.00000E+00  1.55981E-01
      21    -1     0     0   502   501  0.000000000E+00  0.000000000E+00  1.117115608E+03  1.117115608E+03  0.000000000E+00  0.00000E+00  9.000E+00
      21    -1     0     0   501   511  0.000000000E+00  0.000000000E+00 -1.005634083E+02  1.005634083E+02  0.000000000E+00  0.00000E+00  9.000E+00
      25     1     1     2     0     0 -3.519967879E+01 -2.353158523E+02  6.004434265E+02  6.578524729E+02  1.250000000E+02  0.00000E+00  9.000E+00
      25     1     1     2     0     0  4.308589062E+01  2.614149783E+02  4.365620578E+02  5.257429173E+02  1.250000000E+02  0.00000E+00  9.000E+00
      21     1     1     2   502   511 -7.886211830E+00 -2.609912603E+01 -2.045328456E+01  3.408362606E+01  0.000000000E+00  0.00000E+00  9.000E+00
#rwgt            1           1   2.4845811405459373E-002           6      310935           0
</event>
<event>
      5   9999  3.79277E-02  1.06915E+02 -1.00000E+00  1.22536E-01
       1    -1     0     0   502     0  0.000000000E+00  0.000000000E+00  2.142928151E+02  2.142928151E+02  0.000000000E+00  0.00000E+00  9.000E+00
      21    -1     0     0   501   502  0.000000000E+00  0.000000000E+00 -4.506862568E+02  4.506862568E+02  0.000000000E+00  0.00000E+00  9.000E+00
      25     1     1     2     0     0  1.794249185E+02  1.382678655E+02  2.544285921E+01  2.599685426E+02  1.250000000E+02  0.00000E+00  9.000E+00
      25     1     1     2     0     0 -1.541350527E+02 -3.438662477E+01 -1.835360635E+02  2.724895246E+02  1.250000000E+02  0.00000E+00  9.000E+00
       1     1     1     2   501     0 -2.528986585E+01 -1.038812408E+02 -7.830023745E+01  1.325210047E+02  1.348699152E-06  0.00000E+00  9.000E+00
#rwgt            1           1   4.3792470736254377E-002           6      311111           0
</event>
<event>
      5   9999  3.79277E-02  1.71810E+01 -1.00000E+00  1.72004E-01
      21    -1     0     0   511   501  0.000000000E+00  0.000000000E+00  4.629579211E+02  4.629579211E+02  0.000000000E+00  0.00000E+00  9.000E+00
      21    -1     0     0   501   502  0.000000000E+00  0.000000000E+00 -1.820265966E+02  1.820265966E+02  0.000000000E+00  0.00000E+00  9.000E+00
      25     1     1     2     0     0  1.110134428E+02  1.258342394E+02  7.577447188E+01  2.225421553E+02  1.250000000E+02  0.00000E+00  9.000E+00
      25     1     1     2     0     0 -9.459757614E+01 -1.207639964E+02 -1.793122622E+01  1.986936665E+02  1.250000000E+02  0.00000E+00  9.000E+00
      21     1     1     2   511   502 -1.641586665E+01 -5.070243082E+00  2.230880788E+02  2.237486959E+02  2.697398305E-06  0.00000E+00  9.000E+00
#rwgt            1           1   2.8800540964470302E-002           6      311210           0
</event>
<event>
      5   9999  3.79277E-02  2.28101E+01 -1.00000E+00  1.61792E-01
      21    -1     0     0   502   501  0.000000000E+00  0.000000000E+00  3.983928392E+02  3.983928392E+02  0.000000000E+00  0.00000E+00  9.000E+00
      21    -1     0     0   501   512  0.000000000E+00  0.000000000E+00 -2.112936021E+02  2.112936021E+02  0.000000000E+00  0.00000E+00  9.000E+00
      25     1     1     2     0     0  3.598590275E+01 -1.097472514E+02 -1.369614825E+02  2.184556982E+02  1.250000000E+02  0.00000E+00  9.000E+00
      25     1     1     2     0     0 -5.721642334E+01  1.014067350E+02  3.262989983E+02  3.683111202E+02  1.250000000E+02  0.00000E+00  9.000E+00
      21     1     1     2   502   512  2.123052059E+01  8.340516407E+00 -2.238278618E+00  2.291962280E+01  5.118716966E-07  0.00000E+00  9.000E+00
#rwgt            1           1   4.1090765382553900E-002           6      311382           0
</event>
<event>
      5   9999 -3.79277E-02  2.87485E+01 -1.00000E+00  1.54336E-01
      21    -1     0     0   502   501  0.000000000E+00  0.000000000E+00  1.365295681E+02  1.365295681E+02  0.000000000E+00  0.00000E+00  9.000E+00
       2    -1     0     0   501     0  0.000000000E+00  0.000000000E+00 -5.135899335E+02  5.135899335E+02  0.000000000E+00  0.00000E+00  9.000E+00
      25     1     1     2     0     0 -6.363292412E+01  8.597770902E+01 -8.274046533E+01  1.841529258E+02  1.250000000E+02  0.00000E+00  9.000E+00
      25     1     1     2     0     0  3.751603565E+01 -7.396168283E+01  1.910945365E+01  1.512215417E+02  1.250000000E+02  0.00000E+00  9.000E+00
       2     1     1     2   502     0  2.611688846E+01 -1.201602619E+01 -3.134293537E+02  3.147450341E+02  5.394796609E-06  0.00000E+00  9.000E+00
#rwgt            1           1  -8.3005968865153008E-003           6      311620           0
</event>
<event>
      5   9999  3.79277E-02  8.65381E+00 -1.00000E+00  2.03308E-01
      21    -1     0     0   502   501  0.000000000E+00  0.000000000E+00  6.633764515E+01  6.633764515E+01  0.000000000E+00  0.00000E+00  9.000E+00
      21    -1     0     0   511   502  0.000000000E+00  0.000000000E+00 -7.494280953E+02  7.494280953E+02  0.000000000E+00  0.00000E+00  9.000E+00
      25     1     1     2     0     0 -8.199537280E+01  1.504261123E+02 -2.981563381E+02  3.658872208E+02  1.250000000E+02  0.00000E+00  9.000E+00
      25     1     1     2     0     0  8.840375942E+01 -1.562417008E+02 -3.412347849E+02  4.053305715E+02  1.250000000E+02  0.00000E+00  9.000E+00
      21     1     1     2   511   501 -6.408386620E+00  5.815588552E+00 -4.369932711E+01  4.454794809E+01  4.768371582E-07  0.00000E+00  9.000E+00
#rwgt            1           1   7.0206519607595608E-002           6      311786           0
</event>
<event>
      5   9999  3.79277E-02  3.71376E+01 -1.00000E+00  1.46869E-01
      21    -1     0     0   502   501  0.000000000E+00  0.000000000E+00  9.348884174E+01  9.348884174E+01  0.000000000E+00  0.00000E+00  9.000E+00
      21    -1     0     0   501   512  0.000000000E+00  0.000000000E+00 -5.067775455E+02  5.067775455E+02  0.000000000E+00  0.00000E+00  9.000E+00
      25     1     1     2     0     0 -1.051361334E+02  4.415298085E+01 -3.166224686E+02  3.589956544E+02  1.250000000E+02  0.00000E+00  9.000E+00
      25     1     1     2     0     0  1.255122954E+02 -1.310436049E+01 -5.609931953E+01  1.862718288E+02  1.250000000E+02  0.00000E+00  9.000E+00
      21     1     1     2   502   512 -2.037616195E+01 -3.104862036E+01 -4.056691570E+01  5.499890410E+01  8.259061849E-07  0.00000E+00  9.000E+00
#rwgt            1           1   3.3461929520948383E-002           6      312048           0
</event>
<event>
      5   9999  3.79277E-02  4.50358E+01 -1.00000E+00  1.41717E-01
      21    -1     0     0   511   501  0.000000000E+00  0.000000000E+00  5.681870568E+02  5.681870568E+02  0.000000000E+00  0.00000E+00  9.000E+00
      21    -1     0     0   501   502  0.000000000E+00  0.000000000E+00 -1.587017392E+02  1.587017392E+02  0.000000000E+00  0.00000E+00  9.000E+00
      25     1     1     2     0     0  8.253648472E+01  1.915224585E+02  3.457860913E+00  2.431667745E+02  1.250000000E+02  0.00000E+00  9.000E+00
      25     1     1     2     0     0 -4.678818337E+01 -1.641312337E+02  2.876362145E+02  3.570543206E+02  1.250000000E+02  0.00000E+00  9.000E+00
      21     1     1     2   511   502 -3.574830135E+01 -2.739122473E+01  1.183912421E+02  1.266677009E+02  2.697398305E-06  0.00000E+00  9.000E+00
#rwgt            1           1   3.6650159503043379E-002           6      312318           0
</event>
<event>
      5   9999  3.79277E-02  1.27226E+02 -1.00000E+00  1.19300E-01
      21    -1     0     0   502   501  0.000000000E+00  0.000000000E+00  4.329147178E+02  4.329147178E+02  0.000000000E+00  0.00000E+00  9.000E+00
      21    -1     0     0   512   502  0.000000000E+00  0.000000000E+00 -4.444690001E+02  4.444690001E+02  0.000000000E+00  0.00000E+00  9.000E+00
      25     1     1     2     0     0  6.558871928E+01  7.405853779E+01  3.149508370E+02  3.529951513E+02  1.250000000E+02  0.00000E+00  9.000E+00
      25     1     1     2     0     0  4.327384376E+01 -1.399022106E+02 -2.127944378E+01  1.937087216E+02  1.250000000E+02  0.00000E+00  9.000E+00
      21     1     1     2   512   501 -1.088625630E+02  6.584367280E+01 -3.052256756E+02  3.306798450E+02  3.814697266E-06  0.00000E+00  9.000E+00
#rwgt            2          11   2.7000814694024722E-003           6      312438           0
</event>
<event>
      5   9999  3.79277E-02  6.45216E+01 -1.00000E+00  1.33039E-01
      21    -1     0     0   502   511  0.000000000E+00  0.000000000E+00  4.038026827E+02  4.038026827E+02  0.000000000E+00  0.00000E+00  9.000E+00
      21    -1     0     0   501   502  0.000000000E+00  0.000000000E+00 -1.998106438E+02  1.998106438E+02  0.000000000E+00  0.00000E+00  9.000E+00
      25     1     1     2     0     0 -7.674379747E+01 -2.752138012E+01  1.028099858E+02  1.812234256E+02  1.250000000E+02  0.00000E+00  9.000E+00
      25     1     1     2     0     0  1.342691313E+02 -1.699769807E+00 -1.015162232E+02  2.096702946E+02  1.250000000E+02  0.00000E+00  9.000E+00
      21     1     1     2   501   511 -5.752533386E+01  2.922114993E+01  2.026982764E+02  2.127196062E+02  0.000000000E+00  0.00000E+00  9.000E+00
#rwgt            1           1   3.6927962410971765E-002           6      312458           0
</event>
<event>
      5   9999  3.79277E-02  2.05651E+02 -1.00000E+00  1.11209E-01
      21    -1     0     0   512   501  0.000000000E+00  0.000000000E+00  1.049096995E+02  1.049096995E+02  0.000000000E+00  0.00000E+00  9.000E+00
      21    -1     0     0   501   502  0.000000000E+00  0.000000000E+00 -1.298265856E+03  1.298265856E+03  0.000000000E+00  0.00000E+00  9.000E+00
      25     1     1     2     0     0  1.326527340E+01 -1.783466609E+02 -2.972136813E+02  3.687064839E+02  1.250000000E+02  0.00000E+00  9.000E+00
      25     1     1     2     0     0 -1.397925942E+02  1.622638210E+01 -7.712011918E+02  7.938397465E+02  1.250000000E+02  0.00000E+00  9.000E+00
      21     1     1     2   512   502  1.265273208E+02  1.621202788E+02 -1.249412829E+02  2.406293246E+02  3.015782986E-06  0.00000E+00  9.000E+00
#rwgt            2          11   2.0788589982731003E-003           6      312530           0
</event>
<event>
      5   9999  3.79277E-02  1.45745E+02 -1.00000E+00  1.16891E-01
      21    -1     0     0   502   501  0.000000000E+00  0.000000000E+00  1.301683198E+02  1.301683198E+02  0.000000000E+00  0.00000E+00  9.000E+00
       1    -1     0     0   501     0  0.000000000E+00  0.000000000E+00 -1.712198787E+03  1.712198787E+03  0.000000000E+00  0.00000E+00  9.000E+00
      25     1     1     2     0     0 -1.390296262E+01  1.023069492E+02 -7.599272175E+01  1.790527799E+02  1.250000000E+02  0.00000E+00  9.000E+00
      25     1     1     2     0     0  3.559116399E+01 -2.464289287E+02 -1.853851017E+02  3.346439657E+02  1.250000000E+02  0.00000E+00  9.000E+00
       1     1     1     2   502     0 -2.168820137E+01  1.441219795E+02 -1.320652644E+03  1.328670361E+03  1.525878906E-05  0.00000E+00  9.000E+00
#rwgt            1           1   4.6861809785790090E-002           6      312610           0
</event>
<event>
      5   9999  3.79277E-02  2.68257E+01 -1.00000E+00  1.56492E-01
      21    -1     0     0   502   501  0.000000000E+00  0.000000000E+00  1.318179519E+02  1.318179519E+02  0.000000000E+00  0.00000E+00  9.000E+00
      21    -1     0     0   501   511  0.000000000E+00  0.000000000E+00 -2.809294963E+02  2.809294963E+02  0.000000000E+00  0.00000E+00  9.000E+00
      25     1     1     2     0     0  5.941921115E+01  2.247039721E+00 -1.922589250E+02  2.369054370E+02  1.250000000E+02  0.00000E+00  9.000E+00
      25     1     1     2     0     0 -4.949027075E+01  2.267354386E+01  5.434754770E+01  1.467720424E+02  1.250000000E+02  0.00000E+00  9.000E+00
      21     1     1     2   502   511 -9.928940400E+00 -2.492058358E+01 -1.120016698E+01  2.906996876E+01  5.331201500E-07  0.00000E+00  9.000E+00
#rwgt            1           1   3.0652735748309189E-002           6      312661           0
</event>
<event>
      5   9999  3.79277E-02  4.73403E+01 -1.00000E+00  1.40444E-01
      21    -1     0     0   502   512  0.000000000E+00  0.000000000E+00  4.490007804E+02  4.490007804E+02  0.000000000E+00  0.00000E+00  9.000E+00
      21    -1     0     0   501   502  0.000000000E+00  0.000000000E+00 -2.860170280E+03  2.860170280E+03  0.000000000E+00  0.00000E+00  9.000E+00
      25     1     1     2     0     0 -1.190370457E+01  1.122904351E+02 -2.383252449E+03  2.389198207E+03  1.250000000E+02  0.00000E+00  9.000E+00
      25     1     1     2     0     0 -2.320853028E+01 -8.053776005E+01 -4.606739353E+02  4.846343378E+02  1.250000000E+02  0.00000E+00  9.000E+00
      21     1     1     2   501   512  3.511223485E+01 -3.175267507E+01  4.327568846E+02  4.353385149E+02  5.394796609E-06  0.00000E+00  9.000E+00
#rwgt            1           1   2.3061098264500358E-002           6      312803           0
</event>
<event>
      5   9999  3.79277E-02  1.09611E+01 -1.00000E+00  1.91260E-01
      21    -1     0     0   502   501  0.000000000E+00  0.000000000E+00  1.547600818E+02  1.547600818E+02  0.000000000E+00  0.00000E+00  9.000E+00
      21    -1     0     0   501   511  0.000000000E+00  0.000000000E+00 -4.010227980E+02  4.010227980E+02  0.000000000E+00  0.00000E+00  9.000E+00
      25     1     1     2     0     0 -4.721693848E+00 -1.997006359E+02 -5.541023698E+01  2.420700988E+02  1.250000000E+02  0.00000E+00  9.000E+00
      25     1     1     2     0     0 -5.929480505E+00  2.022888068E+02 -1.845911331E+02  3.010893663E+02  1.250000000E+02  0.00000E+00  9.000E+00
      21     1     1     2   502   511  1.065117435E+01 -2.588170932E+00 -6.261346119E+00  1.262341472E+01  2.920019320E-07  0.00000E+00  9.000E+00
#rwgt            1           1   4.0778498207113337E-002           6      312932           0
</event>
<event>
      5   9999  3.79277E-02  6.24927E+01 -1.00000E+00  1.33765E-01
      21    -1     0     0   502   501  0.000000000E+00  0.000000000E+00  4.713254650E+02  4.713254650E+02  0.000000000E+00  0.00000E+00  9.000E+00
       1    -1     0     0   501     0  0.000000000E+00  0.000000000E+00 -1.655240280E+03  1.655240280E+03  0.000000000E+00  0.00000E+00  9.000E+00
      25     1     1     2     0     0  5.674022245E+00 -1.333103630E+02  2.788740285E+02  3.334659970E+02  1.250000000E+02  0.00000E+00  9.000E+00
      25     1     1     2     0     0 -6.810646109E+01  1.305664863E+02  1.078420279E+02  2.212261295E+02  1.250000000E+02  0.00000E+00  9.000E+00
       1     1     1     2   502     0  6.243243885E+01  2.743876700E+00 -1.570630871E+03  1.571873619E+03  0.000000000E+00  0.00000E+00  9.000E+00
#rwgt            1           1   4.2042262685526320E-002           6      313187           0
</event>
<event>
      5   9999  4.40125E-02  1.29067E+01 -1.00000E+00  1.83762E-01
      21    -1     0     0   511   501  0.000000000E+00  0.000000000E+00  1.237343537E+02  1.237343537E+02  0.000000000E+00  0.00000E+00  9.000E+00
      21    -1     0     0   501   502  0.000000000E+00  0.000000000E+00 -7.795754740E+02  7.795754740E+02  0.000000000E+00  0.00000E+00  9.000E+00
      25     1     1     2     0     0 -1.395991879E+02  1.902932945E+02 -5.472171083E+02  6.089097099E+02  1.250000000E+02  0.00000E+00  9.000E+00
      25     1     1     2     0     0  1.426120319E+02 -1.777431819E+02 -9.833789175E+01  2.778959721E+02  1.250000000E+02  0.00000E+00  9.000E+00
      21     1     1     2   511   502 -3.012843945E+00 -1.255011259E+01 -1.028612024E+01  1.650414567E+01  2.064765462E-07  0.00000E+00  9.000E+00
#rwgt            1           1  0.44760365815626763                6      313258           0
</event>
<event>
      5   9999  3.79277E-02  7.83629E+00 -1.00000E+00  2.08852E-01
      21    -1     0     0   512   501  0.000000000E+00  0.000000000E+00  1.084743403E+03  1.084743403E+03  0.000000000E+00  0.00000E+00  9.000E+00
      21    -1     0     0   501   502  0.000000000E+00  0.000000000E+00 -4.104564327E+01  4.104564327E+01  0.000000000E+00  0.00000E+00  9.000E+00
      25     1     1     2     0     0 -9.211740510E+01  9.960446446E+01  3.719799914E+02  4.152117287E+02  1.250000000E+02  0.00000E+00  9.000E+00
      25     1     1     2     0     0  9.994982164E+01 -9.985073482E+01  4.400717322E+02  4.787987736E+02  1.250000000E+02  0.00000E+00  9.000E+00
      21     1     1     2   512   502 -7.832416538E+00  2.462703635E-01  2.316460360E+02  2.317785438E+02  2.697398305E-06  0.00000E+00  9.000E+00
#rwgt            1           1   4.8749616243188298E-002           6      313569           0
</event>
<event>
      5   9999  3.79277E-02  1.75985E+02 -1.00000E+00  1.13708E-01
      21    -1     0     0   502   501  0.000000000E+00  0.000000000E+00  1.102180059E+02  1.102180059E+02  0.000000000E+00  0.00000E+00  9.000E+00
       1    -1     0     0   501     0  0.000000000E+00  0.000000000E+00 -2.471432849E+03  2.471432849E+03  0.000000000E+00  0.00000E+00  9.000E+00
      25     1     1     2     0     0 -9.268480305E+01  1.329506598E+02 -4.126374289E+00  2.047153576E+02  1.250000000E+02  0.00000E+00  9.000E+00
      25     1     1     2     0     0 -3.530324638E+01 -1.216202539E+01 -9.767219818E+02  9.853958919E+02  1.250000000E+02  0.00000E+00  9.000E+00
       1     1     1     2   502     0  1.279880494E+02 -1.207886344E+02 -1.380366487E+03  1.391539606E+03  2.157918644E-05  0.00000E+00  9.000E+00
#rwgt            1           1   5.9555676887243399E-002           6      313718           0
</event>
<event>
      5   9999  3.79277E-02  2.20094E+01 -1.00000E+00  1.63010E-01
      21    -1     0     0   502   511  0.000000000E+00  0.000000000E+00  9.345019411E+02  9.345019411E+02  0.000000000E+00  0.00000E+00  9.000E+00
      21    -1     0     0   501   502  0.000000000E+00  0.000000000E+00 -9.301298678E+01  9.301298678E+01  0.000000000E+00  0.00000E+00  9.000E+00
      25     1     1     2     0     0 -2.415793545E+02 -4.876752326E+01  3.899989559E+02  4.779780763E+02  1.250000000E+02  0.00000E+00  9.000E+00
      25     1     1     2     0     0  2.420940013E+02  7.077090049E+01  3.687388871E+02  4.639088194E+02  1.250000000E+02  0.00000E+00  9.000E+00
      21     1     1     2   501   511 -5.146467987E-01 -2.200337723E+01  8.275111133E+01  8.562803219E+01  9.536743164E-07  0.00000E+00  9.000E+00
#rwgt            1           1   3.4538595625883017E-002           6      313834           0
</event>
<event>
      5   9999  3.79277E-02  5.64462E+01 -1.00000E+00  1.36136E-01
      21    -1     0     0   502   512  0.000000000E+00  0.000000000E+00  2.060691829E+03  2.060691829E+03  0.000000000E+00  0.00000E+00  9.000E+00
      21    -1     0     0   501   502  0.000000000E+00  0.000000000E+00 -2.869247759E+01  2.869247759E+01  0.000000000E+00  0.00000E+00  9.000E+00
      25     1     1     2     0     0 -2.268398876E+00 -1.692444457E+02  6.874080804E+02  7.188906016E+02  1.250000000E+02  0.00000E+00  9.000E+00
      25     1     1     2     0     0 -2.295941838E+01  1.187495801E+02  6.267826664E+02  6.504691450E+02  1.250000000E+02  0.00000E+00  9.000E+00
      21     1     1     2   501   512  2.522781725E+01  5.049486566E+01  7.178086045E+02  7.200245599E+02  7.629394531E-06  0.00000E+00  9.000E+00
#rwgt            1           1   4.6238169793161074E-002           6      314173           0
</event>
<event>
      5   9999  3.79277E-02  1.83780E+01 -1.00000E+00  1.69458E-01
      21    -1     0     0   502   511  0.000000000E+00  0.000000000E+00  3.755083927E+02  3.755083927E+02  0.000000000E+00  0.00000E+00  9.000E+00
      21    -1     0     0   501   502  0.000000000E+00  0.000000000E+00 -1.189703854E+02  1.189703854E+02  0.000000000E+00  0.00000E+00  9.000E+00
      25     1     1     2     0     0  1.197553302E+02  1.023101402E+02  1.100031260E+02  2.292038211E+02  1.250000000E+02  0.00000E+00  9.000E+00
      25     1     1     2     0     0 -1.117840934E+02 -8.575085774E+01  9.578980471E+01  2.113044719E+02  1.250000000E+02  0.00000E+00  9.000E+00
      21     1     1     2   501   511 -7.971236774E+00 -1.655928246E+01  5.074507664E+01  5.397048503E+01  0.000000000E+00  0.00000E+00  9.000E+00
#rwgt            1           1   4.0924944162590418E-002           6      314408           0
</event>
<event>
      5   9999  3.79277E-02  4.03936E+01 -1.00000E+00  1.44577E-01
      21    -1     0     0   502   501  0.000000000E+00  0.000000000E+00  2.911968663E+02  2.911968663E+02  0.000000000E+00  0.00000E+00  9.000E+00
      21    -1     0     0   501   512  0.000000000E+00  0.000000000E+00 -1.826472485E+02  1.826472485E+02  0.000000000E+00  0.00000E+00  9.000E+00
      25     1     1     2     0     0 -1.278698115E+02 -4.575454632E+01  8.378097705E+00  1.847683948E+02  1.250000000E+02  0.00000E+00  9.000E+00
      25     1     1     2     0     0  1.682128056E+02  4.777685724E+01  1.176756653E+02  2.450525214E+02  1.250000000E+02  0.00000E+00  9.000E+00
      21     1     1     2   502   512 -4.034299413E+01 -2.022310919E+00 -1.750414512E+01  4.402319858E+01  5.840038640E-07  0.00000E+00  9.000E+00
#rwgt            1           1   2.1369356554093201E-002           6      314616           0
</event>
<event>
      5   9999  3.79277E-02  8.08206E+01 -1.00000E+00  1.28135E-01
      21    -1     0     0   502   511  0.000000000E+00  0.000000000E+00  1.375736294E+02  1.375736294E+02  0.000000000E+00  0.00000E+00  9.000E+00
      21    -1     0     0   501   502  0.000000000E+00  0.000000000E+00 -3.398549143E+02  3.398549143E+02  0.000000000E+00  0.00000E+00  9.000E+00
      25     1     1     2     0     0 -4.978034793E+01 -7.270793278E+01 -1.658366710E+02  2.255910636E+02  1.250000000E+02  0.00000E+00  9.000E+00
      25     1     1     2     0     0 -2.263358874E+01  1.085992294E+02 -1.273243492E+01  1.676102231E+02  1.250000000E+02  0.00000E+00  9.000E+00
      21     1     1     2   501   511  7.241393667E+01 -3.589129665E+01 -2.371217896E+01  8.422725705E+01  5.840038640E-07  0.00000E+00  9.000E+00
#rwgt            1           1   5.6009520510293974E-002           6      314783           0
</event>
<event>
      5   9999  3.79277E-02  1.22325E+02 -1.00000E+00  1.20016E-01
      21    -1     0     0   502   501  0.000000000E+00  0.000000000E+00  1.527479884E+02  1.527479884E+02  0.000000000E+00  0.00000E+00  9.000E+00
      21    -1     0     0   512   502  0.000000000E+00  0.000000000E+00 -5.978555604E+02  5.978555604E+02  0.000000000E+00  0.00000E+00  9.000E+00
      25     1     1     2     0     0  1.214631994E+02 -1.495858435E+02 -1.549728211E+02  2.770754566E+02  1.250000000E+02  0.00000E+00  9.000E+00
      25     1     1     2     0     0 -2.043246898E+02  5.960049820E+01 -1.560229327E+02  2.920084823E+02  1.250000000E+02  0.00000E+00  9.000E+00
      21     1     1     2   512   501  8.286149032E+01  8.998534525E+01 -1.341118183E+02  1.815196098E+02  1.907348633E-06  0.00000E+00  9.000E+00
#rwgt            1           1   1.5202487736561481E-002           6      314929           0
</event>
<event>
      5   9999  3.79277E-02  1.17146E+02 -1.00000E+00  1.20814E-01
       1    -1     0     0   502     0  0.000000000E+00  0.000000000E+00  2.788428652E+03  2.788428652E+03  0.000000000E+00  0.00000E+00  9.000E+00
      21    -1     0     0   501   502  0.000000000E+00  0.000000000E+00 -1.444356665E+02  1.444356665E+02  0.000000000E+00  0.00000E+00  9.000E+00
      25     1     1     2     0     0 -1.702490470E+01  2.058580323E+02  1.248113502E+02  2.717908203E+02  1.250000000E+02  0.00000E+00  9.000E+00
      25     1     1     2     0     0 -5.900796853E+01 -2.949768503E+02  3.129225421E+02  4.517065418E+02  1.250000000E+02  0.00000E+00  9.000E+00
       1     1     1     2   501     0  7.603287324E+01  8.911881795E+01  2.206259093E+03  2.209366956E+03  0.000000000E+00  0.00000E+00  9.000E+00
#rwgt            1           1   3.5330919137571914E-002           6      315161           0
</event>
<event>
      5   9999  3.79277E-02  1.69573E+01 -1.00000E+00  1.72508E-01
      21    -1     0     0   502   511  0.000000000E+00  0.000000000E+00  1.238790628E+02  1.238790628E+02  0.000000000E+00  0.00000E+00  9.000E+00
      21    -1     0     0   501   502  0.000000000E+00  0.000000000E+00 -3.981980270E+02  3.981980270E+02  0.000000000E+00  0.00000E+00  9.000E+00
      25     1     1     2     0     0 -2.214592641E+01 -4.087152087E+01 -3.220130016E+02  3.485373674E+02  1.250000000E+02  0.00000E+00  9.000E+00
      25     1     1     2     0     0  5.427967995E+00  4.371070639E+01  1.084519918E+01  1.329763401E+02  1.250000000E+02  0.00000E+00  9.000E+00
      21     1     1     2   501   511  1.671795842E+01 -2.839185517E+00  3.684883815E+01  4.056338227E+01  4.768371582E-07  0.00000E+00  9.000E+00
#rwgt            2          11   5.4559477877032161E-004           6      315243           0
</event>
<event>
      5   9999  3.79277E-02  5.82802E+01 -1.00000E+00  1.35382E-01
      21    -1     0     0   502   512  0.000000000E+00  0.000000000E+00  2.143628011E+02  2.143628011E+02  0.000000000E+00  0.00000E+00  9.000E+00
      21    -1     0     0   501   502  0.000000000E+00  0.000000000E+00 -3.835759080E+02  3.835759080E+02  0.000000000E+00  0.00000E+00  9.000E+00
      25     1     1     2     0     0  1.875768236E+02 -8.281265493E+01 -9.616498971E+01  2.586807024E+02  1.250000000E+02  0.00000E+00  9.000E+00
      25     1     1     2     0     0 -1.786859020E+02  2.521464119E+01 -1.321710143E+02  2.562393544E+02  1.250000000E+02  0.00000E+00  9.000E+00
      21     1     1     2   501   512 -8.890921564E+00  5.759801374E+01  5.912289711E+01  8.301865234E+01  1.168007728E-06  0.00000E+00  9.000E+00
#rwgt            1           1   1.5599530395662687E-002           6      315323           0
</event>
<event>
      5   9999  3.79277E-02  2.30880E+01 -1.00000E+00  1.61383E-01
      21    -1     0     0   502   501  0.000000000E+00  0.000000000E+00  6.072203445E+01  6.072203445E+01  0.000000000E+00  0.00000E+00  9.000E+00
      21    -1     0     0   511   502  0.000000000E+00  0.000000000E+00 -8.454711258E+02  8.454711258E+02  0.000000000E+00  0.00000E+00  9.000E+00
      25     1     1     2     0     0 -6.688674986E+01  1.568456588E+02 -3.922975033E+02  4.456419292E+02  1.250000000E+02  0.00000E+00  9.000E+00
      25     1     1     2     0     0  4.683811281E+01 -1.682958540E+02 -3.279080701E+02  3.920025583E+02  1.250000000E+02  0.00000E+00  9.000E+00
      21     1     1     2   511   501  2.004863705E+01  1.145019524E+01 -6.454351805E+01  6.854867279E+01  9.536743164E-07  0.00000E+00  9.000E+00
#rwgt            1           1   3.4572387007298332E-002           6      315540           0
</event>
<event>
      5   9999  3.79277E-02  1.70591E+01 -1.00000E+00  1.72277E-01
      21    -1     0     0   502   501  0.000000000E+00  0.000000000E+00  4.569215782E+01  4.569215782E+01  0.000000000E+00  0.00000E+00  9.000E+00
      21    -1     0     0   501   512  0.000000000E+00  0.000000000E+00 -1.078021722E+03  1.078021722E+03  0.000000000E+00  0.00000E+00  9.000E+00
      25     1     1     2     0     0 -9.914943218E+01  4.177879358E+01 -1.579494286E+02  2.283617733E+02  1.250000000E+02  0.00000E+00  9.000E+00
      25     1     1     2     0     0  1.085534474E+02 -5.601182174E+01 -7.699091168E+02  7.894974498E+02  1.250000000E+02  0.00000E+00  9.000E+00
      21     1     1     2   502   512 -9.404015246E+00  1.423302816E+01 -1.044710191E+02  1.058546571E+02  1.348699152E-06  0.00000E+00  9.000E+00
#rwgt            1           1   3.8262661410172129E-002           6      315735           0
</event>
<event>
      5   9999  3.79277E-02  1.94243E+01 -1.00000E+00  1.67423E-01
      21    -1     0     0   502   511  0.000000000E+00  0.000000000E+00  4.194068073E+02  4.194068073E+02  0.000000000E+00  0.00000E+00  9.000E+00
      21    -1     0     0   501   502  0.000000000E+00  0.000000000E+00 -1.392666056E+02  1.392666056E+02  0.000000000E+00  0.00000E+00  9.000E+00
      25     1     1     2     0     0  2.216311476E+01  6.898675132E+01 -7.694339888E+01  1.636938061E+02  1.250000000E+02  0.00000E+00  9.000E+00
      25     1     1     2     0     0 -3.290613925E+00 -7.358364978E+01  2.784467851E+02  3.139792888E+02  1.250000000E+02  0.00000E+00  9.000E+00
      21     1     1     2   501   511 -1.887250083E+01  4.596898458E+00  7.863681556E+01  8.100031806E+01  9.536743164E-07  0.00000E+00  9.000E+00
#rwgt            1           1   2.8059604583697037E-002           6      315936           0
</event>
<event>
      5   9999  3.79277E-02  3.43483E+01 -1.00000E+00  1.49066E-01
      21    -1     0     0   502   501  0.000000000E+00  0.000000000E+00  4.940972413E+02  4.940972413E+02  0.000000000E+00  0.00000E+00  9.000E+00
      21    -1     0     0   501   512  0.000000000E+00  0.000000000E+00 -4.726202883E+02  4.726202883E+02  0.000000000E+00  0.00000E+00  9.000E+00
      25     1     1     2     0     0  9.486367609E+00 -1.547802126E+01  4.346051552E+02  4.525883353E+02  1.250000000E+02  0.00000E+00  9.000E+00
      25     1     1     2     0     0 -3.399590925E+01  3.954231151E+01 -4.255735448E+01  1.419698724E+02  1.250000000E+02  0.00000E+00  9.000E+00
      21     1     1     2   502   512  2.450954164E+01 -2.406429025E+01 -3.705708477E+02  3.721593219E+02  0.000000000E+00  0.00000E+00  9.000E+00
#rwgt            1           1   3.7385879630550900E-002           6      316126           0
</event>
<event>
      5   9999  3.79277E-02  8.29583E+01 -1.00000E+00  1.27591E-01
      21    -1     0     0   502   511  0.000000000E+00  0.000000000E+00  2.336930496E+02  2.336930496E+02  0.000000000E+00  0.00000E+00  9.000E+00
      21    -1     0     0   501   502  0.000000000E+00  0.000000000E+00 -2.311520999E+02  2.311520999E+02  0.000000000E+00  0.00000E+00  9.000E+00
      25     1     1     2     0     0 -4.730813509E+01  1.555382825E+02 -2.219239240E+00  2.050856942E+02  1.250000000E+02  0.00000E+00  9.000E+00
      25     1     1     2     0     0 -1.680062074E+01 -1.028871594E+02 -3.694639810E+01  1.669073538E+02  1.250000000E+02  0.00000E+00  9.000E+00
      21     1     1     2   501   511  6.410875583E+01 -5.265112301E+01  4.170658713E+01  9.285210142E+01  1.261592536E-06  0.00000E+00  9.000E+00
#rwgt            2          11   2.1110683844737235E-003           6      316345           0
</event>
<event>
      5   9999  3.79277E-02  3.06858E+01 -1.00000E+00  1.52361E-01
      21    -1     0     0   502   501  0.000000000E+00  0.000000000E+00  8.640502344E+02  8.640502344E+02  0.000000000E+00  0.00000E+00  9.000E+00
      21    -1     0     0   512   502  0.000000000E+00  0.000000000E+00 -4.296536249E+01  4.296536249E+01  0.000000000E+00  0.00000E+00  9.000E+00
      25     1     1     2     0     0  6.094460527E+01  9.835781072E+00  6.328439601E+02  6.480181057E+02  1.250000000E+02  0.00000E+00  9.000E+00
      25     1     1     2     0     0 -5.366315858E+01 -3.964520537E+01  1.760300119E+02  2.259713300E+02  1.250000000E+02  0.00000E+00  9.000E+00
      21     1     1     2   512   501 -7.281446694E+00  2.980942430E+01  1.221089987E+01  3.302616113E+01  4.129530925E-07  0.00000E+00  9.000E+00
#rwgt            1           1   4.4381780347465191E-002           6      316500           0
</event>
<event>
      5   9999  3.79277E-02  2.27822E+01 -1.00000E+00  1.61833E-01
      21    -1     0     0   511   501  0.000000000E+00  0.000000000E+00  1.950138312E+02  1.950138312E+02  0.000000000E+00  0.00000E+00  9.000E+00
      21    -1     0     0   501   502  0.000000000E+00  0.000000000E+00 -6.206445350E+02  6.206445350E+02  0.000000000E+00  0.00000E+00  9.000E+00
      25     1     1     2     0     0 -1.916364262E+00 -1.470947684E+02  1.112602096E+02  2.228101829E+02  1.250000000E+02  0.00000E+00  9.000E+00
      25     1     1     2     0     0 -1.703398610E+01  1.344490708E+02 -5.392951626E+02  5.699394544E+02  1.250000000E+02  0.00000E+00  9.000E+00
      21     1     1     2   511   502  1.895035037E+01  1.264569762E+01  2.404249130E+00  2.290872893E+01  6.828569911E-07  0.00000E+00  9.000E+00
#rwgt            1           1   4.1714935177363868E-002           6      316598           0
</event>
<event>
      5   9999  3.79277E-02  3.62909E+01 -1.00000E+00  1.47511E-01
      21    -1     0     0   502   501  0.000000000E+00  0.000000000E+00  7.338438633E+02  7.338438633E+02  0.000000000E+00  0.00000E+00  9.000E+00
      21    -1     0     0   512   502  0.000000000E+00  0.000000000E+00 -1.459281753E+02  1.459281753E+02  0.000000000E+00  0.00000E+00  9.000E+00
      25     1     1     2     0     0  2.140398696E+02  1.519041719E+02  3.792256537E+02  4.778336945E+02  1.250000000E+02  0.00000E+00  9.000E+00
      25     1     1     2     0     0 -2.029648616E+02 -1.173445033E+02  2.369061232E+02  3.559690698E+02  1.250000000E+02  0.00000E+00  9.000E+00
      21     1     1     2   512   501 -1.107500806E+01 -3.455966860E+01 -2.821608888E+01  4.596927418E+01  1.011524364E-06  0.00000E+00  9.000E+00
#rwgt            1           1   3.2363496548924967E-002           6      316784           0
</event>
<event>
      5   9999 -3.79277E-02  7.14632E+01 -1.00000E+00  1.30767E-01
      21    -1     0     0   502   511  0.000000000E+00  0.000000000E+00  8.667158957E+01  8.667158957E+01  0.000000000E+00  0.00000E+00  9.000E+00
      21    -1     0     0   501   502  0.000000000E+00  0.000000000E+00 -1.061389559E+03  1.061389559E+03  0.000000000E+00  0.00000E+00  9.000E+00
      25     1     1     2     0     0 -1.402084586E+02  1.146065601E+02 -2.040707641E+02  3.001049021E+02  1.250000000E+02  0.00000E+00  9.000E+00
      25     1     1     2     0     0  1.562814510E+02 -1.842387523E+02 -6.809569935E+02  7.332770532E+02  1.250000000E+02  0.00000E+00  9.000E+00
      21     1     1     2   501   511 -1.607299240E+01  6.963219216E+01 -8.969021166E+01  1.146791931E+02  9.536743164E-07  0.00000E+00  9.000E+00
#rwgt            1           1  -3.3128791267543860E-002           6      316907           0
</event>
<event>
      5   9999  3.79277E-02  5.50423E+01 -1.00000E+00  1.36736E-01
      21    -1     0     0   512   501  0.000000000E+00  0.000000000E+00  9.188124147E+01  9.188124147E+01  0.000000000E+00  0.00000E+00  9.000E+00
      21    -1     0     0   501   502  0.000000000E+00  0.000000000E+00 -9.934034197E+02  9.934034197E+02  0.000000000E+00  0.00000E+00  9.000E+00
      25     1     1     2     0     0 -3.378231742E+01  7.314681746E+00 -7.186541325E+02  7.302626320E+02  1.250000000E+02  0.00000E+00  9.000E+00
      25     1     1     2     0     0 -2.125503372E+01 -6.577226364E+00 -2.425885298E+02  2.738050970E+02  1.250000000E+02  0.00000E+00  9.000E+00
      21     1     1     2   512   502  5.503735113E+01 -7.374553815E-01  5.972048404E+01  8.121693219E+01  1.784161275E-06  0.00000E+00  9.000E+00
#rwgt            1           1   7.6508367845460598E-002           6      317107           0
</event>
<event>
      5   9999  3.79277E-02  1.20507E+01 -1.00000E+00  1.86836E-01
      21    -1     0     0   511   501  0.000000000E+00  0.000000000E+00  6.123083780E+02  6.123083780E+02  0.000000000E+00  0.00000E+00  9.000E+00
      21    -1     0     0   501   502  0.000000000E+00  0.000000000E+00 -1.573498771E+02  1.573498771E+02  0.000000000E+00  0.00000E+00  9.000E+00
      25     1     1     2     0     0  5.638630690E+01  1.193109446E+02  3.722790008E+01  1.855409218E+02  1.250000000E+02  0.00000E+00  9.000E+00
      25     1     1     2     0     0 -6.835953367E+01 -1.206754144E+02  2.177155298E+01  1.879749504E+02  1.250000000E+02  0.00000E+00  9.000E+00
      21     1     1     2   511   502  1.197322677E+01  1.364469710E+00  3.959590478E+02  3.961423829E+02  0.000000000E+00  0.00000E+00  9.000E+00
#rwgt            1           1   3.4675669416125682E-002           6      317190           0
</event>
<event>
      5   9999  3.79277E-02  6.46251E+01 -1.00000E+00  1.33002E-01
      21    -1     0     0   502   501  0.000000000E+00  0.000000000E+00  1.536193559E+02  1.536193559E+02  0.000000000E+00  0.00000E+00  9.000E+00
      21    -1     0     0   512   502  0.000000000E+00  0.000000000E+00 -3.863267094E+02  3.863267094E+02  0.000000000E+00  0.00000E+00  9.000E+00
      25     1     1     2     0     0  9.396517219E+01  2.960975545E+01  4.103895020E+01  1.643635806E+02  1.250000000E+02  0.00000E+00  9.000E+00
      25     1     1     2     0     0 -3.307750508E+01 -5.126825911E+01 -5.859237520E+01  1.509325086E+02  1.250000000E+02  0.00000E+00  9.000E+00
      21     1     1     2   512   501 -6.088766711E+01  2.165850365E+01 -2.151539285E+02  2.246499760E+02  0.000000000E+00  0.00000E+00  9.000E+00
#rwgt            1           1   4.3029356887028025E-002           6      317476           0
</event>
<event>
      5   9999  3.79277E-02  2.11713E+01 -1.00000E+00  1.64355E-01
      21    -1     0     0   502   501  0.000000000E+00  0.000000000E+00  3.644313757E+02  3.644313757E+02  0.000000000E+00  0.00000E+00  9.000E+00
      21    -1     0     0   501   511  0.000000000E+00  0.000000000E+00 -1.429223180E+02  1.429223180E+02  0.000000000E+00  0.00000E+00  9.000E+00
      25     1     1     2     0     0  1.434776026E+02  8.016063341E+01  1.214049306E+02  2.395322667E+02  1.250000000E+02  0.00000E+00  9.000E+00
      25     1     1     2     0     0 -1.621820411E+02 -7.024248065E+01  1.117921388E+02  2.436380570E+02  1.250000000E+02  0.00000E+00  9.000E+00
      21     1     1     2   502   511  1.870443845E+01 -9.918152755E+00 -1.168801164E+01  2.418337007E+01  1.685873940E-07  0.00000E+00  9.000E+00
#rwgt            1           1   5.8955505705336683E-002           6      317534           0
</event>
<event>
      5   9999  3.79277E-02  1.08750E+02 -1.00000E+00  1.22211E-01
      21    -1     0     0   502   512  0.000000000E+00  0.000000000E+00  4.142332074E+02  4.142332074E+02  0.000000000E+00  0.00000E+00  9.000E+00
      21    -1     0     0   501   502  0.000000000E+00  0.000000000E+00 -7.169928932E+02  7.169928932E+02  0.000000000E+00  0.00000E+00  9.000E+00
      25     1     1     2     0     0 -1.873929608E+02  1.221970089E+02 -4.078537611E+02  4.816823863E+02  1.250000000E+02  0.00000E+00  9.000E+00
      25     1     1     2     0     0  1.507242606E+02 -1.981514261E+01 -2.267985786E+02  3.002882579E+02  1.250000000E+02  0.00000E+00  9.000E+00
      21     1     1     2   501   512  3.666870025E+01 -1.023818663E+02  3.318926539E+02  3.492554564E+02  3.814697266E-06  0.00000E+00  9.000E+00
#rwgt            1           1   4.2534969459107196E-002           6      317776           0
</event>
<event>
      5   9999  3.79277E-02  3.05456E+01 -1.00000E+00  1.52498E-01
      21    -1     0     0   502   501  0.000000000E+00  0.000000000E+00  3.151206126E+02  3.151206126E+02  0.000000000E+00  0.00000E+00  9.000E+00
      21    -1     0     0   501   511  0.000000000E+00  0.000000000E+00 -5.105768802E+02  5.105768802E+02  0.000000000E+00  0.00000E+00  9.000E+00
      25     1     1     2     0     0 -3.142543661E+01 -2.704908126E+02 -2.834228347E+01  3.009669796E+02  1.250000000E+02  0.00000E+00  9.000E+00
      25     1     1     2     0     0  1.698245674E+01  2.435754955E+02  7.206249862E+01  2.836114059E+02  1.250000000E+02  0.00000E+00  9.000E+00
      21     1     1     2   502   511  1.444297987E+01  2.691531712E+01 -2.391764828E+02  2.411191072E+02  2.697398305E-06  0.00000E+00  9.000E+00
#rwgt            1           1   2.3003047552209003E-002           6      317866           0
</event>
<event>
      5   9999  3.79277E-02  2.76452E+01 -1.00000E+00  1.55547E-01
      21    -1     0     0   512   501  0.000000000E+00  0.000000000E+00  9.643412043E+01  9.643412043E+01  0.000000000E+00  0.00000E+00  9.000E+00
      21    -1     0     0   501   502  0.000000000E+00  0.000000000E+00 -3.282499286E+02  3.282499286E+02  0.000000000E+00  0.00000E+00  9.000E+00
      25     1     1     2     0     0  7.857012827E+01 -1.711760635E+01 -3.989430922E+01  1.538922786E+02  1.250000000E+02  0.00000E+00  9.000E+00
      25     1     1     2     0     0 -7.162415637E+01  4.387594137E+01 -1.908674600E+02  2.431265212E+02  1.250000000E+02  0.00000E+00  9.000E+00
      21     1     1     2   512   502 -6.945971892E+00 -2.675833502E+01 -1.054038948E+00  2.766524926E+01  4.700365751E-07  0.00000E+00  9.000E+00
#rwgt            1           1   7.6536572783165849E-002           6      318002           0
</event>
<event>
      5   9999  3.79277E-02  9.08284E+01 -1.00000E+00  1.25737E-01
      -1    -1     0     0     0   501  0.000000000E+00  0.000000000E+00  3.037641177E+02  3.037641177E+02  0.000000000E+00  0.00000E+00  9.000E+00
      21    -1     0     0   501   502  0.000000000E+00  0.000000000E+00 -2.215219598E+02  2.215219598E+02  0.000000000E+00  0.00000E+00  9.000E+00
      25     1     1     2     0     0 -5.571495431E+01  1.035742180E+02 -7.093401173E+01  1.857105511E+02  1.250000000E+02  0.00000E+00  9.000E+00
      25     1     1     2     0     0 -1.696857754E+01 -1.580434314E+02  6.353301947E+01  2.119601458E+02  1.250000000E+02  0.00000E+00  9.000E+00
      -1     1     1     2     0   502  7.268353185E+01  5.446921341E+01  8.964315016E+01  1.276153807E+02  1.651812370E-06  0.00000E+00  9.000E+00
#rwgt            1           1   4.7675088774629448E-002           6      318074           0
</event>
<event>
      5   9999  3.79277E-02  5.50370E+01 -1.00000E+00  1.36738E-01
      21    -1     0     0   511   501  0.000000000E+00  0.000000000E+00  1.227909394E+02  1.227909394E+02  0.000000000E+00  0.00000E+00  9.000E+00
      21    -1     0     0   501   502  0.000000000E+00  0.000000000E+00 -5.651571692E+02  5.651571692E+02  0.000000000E+00  0.00000E+00  9.000E+00
      25     1     1     2     0     0 -5.136393547E+01  1.369049432E+02 -4.515350485E+01  1.975982195E+02  1.250000000E+02  0.00000E+00  9.000E+00
      25     1     1     2     0     0 -3.108810730E+00 -1.447658890E+02 -3.905891181E+02  4.349157235E+02  1.250000000E+02  0.00000E+00  9.000E+00
      21     1     1     2   511   502  5.447274620E+01  7.860945785E+00 -6.623606793E+00  5.543416559E+01  7.771494872E-07  0.00000E+00  9.000E+00
#rwgt            1           1   3.3089111305511558E-002           6      318189           0
</event>
<event>
      5   9999  3.79277E-02  5.83779E+01 -1.00000E+00  1.35343E-01
      21    -1     0     0   512   501  0.000000000E+00  0.000000000E+00  1.279277499E+03  1.279277499E+03  0.000000000E+00  0.00000E+00  9.000E+00
      21    -1     0     0   501   502  0.000000000E+00  0.000000000E+00 -8.763411454E+01  8.763411454E+01  0.000000000E+00  0.00000E+00  9.000E+00
      25     1     1     2     0     0 -1.022615005E+02  1.083685871E+02  7.698124312E+01  2.091704495E+02  1.250000000E+02  0.00000E+00  9.000E+00
      25     1     1     2     0     0  1.466244510E+02 -7.042245819E+01  5.019128788E+02  5.422172906E+02  1.250000000E+02  0.00000E+00  9.000E+00
      21     1     1     2   512   502 -4.436295051E+01 -3.794612895E+01  6.127492626E+02  6.155238735E+02  7.629394531E-06  0.00000E+00  9.000E+00
#rwgt            1           1   2.9015338861576444E-002           6      318502           0
</event>
<event>
      5   9999  3.79277E-02  1.49371E+02 -1.00000E+00  1.16466E-01
      21    -1     0     0   511   501  0.000000000E+00  0.000000000E+00  2.521032436E+02  2.521032436E+02  0.000000000E+00  0.00000E+00  9.000E+00
      21    -1     0     0   501   502  0.000000000E+00  0.000000000E+00 -4.707392026E+02  4.707392026E+02  0.000000000E+00  0.00000E+00  9.000E+00
      25     1     1     2     0     0 -5.731179084E+01 -7.797573437E+01  8.309388846E+01  1.785901756E+02  1.250000000E+02  0.00000E+00  9.000E+00
      25     1     1     2     0     0 -7.417001522E+01  1.488585709E+02 -3.320403258E+02  3.918365006E+02  1.250000000E+02  0.00000E+00  9.000E+00
      21     1     1     2   511   502  1.314818061E+02 -7.088283653E+01  3.031047833E+01  1.524157700E+02  1.617033478E-06  0.00000E+00  9.000E+00
#rwgt            2          11   2.6955620944507587E-003           6      318631           0
</event>
<event>
      5   9999 -3.79277E-02  3.51644E+01 -1.00000E+00  1.48398E-01
      21    -1     0     0   502   512  0.000000000E+00  0.000000000E+00  5.951900877E+02  5.951900877E+02  0.000000000E+00  0.00000E+00  9.000E+00
      21    -1     0     0   501   502  0.000000000E+00  0.000000000E+00 -7.081375940E+02  7.081375940E+02  0.000000000E+00  0.00000E+00  9.000E+00
      25     1     1     2     0     0  5.152642664E+02 -1.218579512E+01 -1.021481739E+02  5.400972202E+02  1.250000000E+02  0.00000E+00  9.000E+00
      25     1     1     2     0     0 -5.067557695E+02 -2.193373644E+01 -2.084634046E+02  5.624628785E+02  1.250000000E+02  0.00000E+00  9.000E+00
      21     1     1     2   501   512 -8.508496940E+00  3.411953156E+01  1.976640722E+02  2.007675830E+02  2.697398305E-06  0.00000E+00  9.000E+00
#rwgt            1           1 -0.23966679763020790                6      318666           0
</event>
<event>
      5   9999  3.79277E-02  3.10167E+01 -1.00000E+00  1.52041E-01
       2    -1     0     0   502     0  0.000000000E+00  0.000000000E+00  3.307314189E+02  3.307314189E+02  0.000000000E+00  0.00000E+00  9.000E+00
      21    -1     0     0   501   502  0.000000000E+00  0.000000000E+00 -6.317708038E+02  6.317708038E+02  0.000000000E+00  0.00000E+00  9.000E+00
      25     1     1     2     0     0 -4.341098283E+01  6.169471730E+01 -5.518692045E+02  5.708549469E+02  1.250000000E+02  0.00000E+00  9.000E+00
      25     1     1     2     0     0  2.192019472E+01 -3.932995394E+01 -5.955488865E+00  1.329955190E+02  1.250000000E+02  0.00000E+00  9.000E+00
       2     1     1     2   501     0  2.149078811E+01 -2.236476336E+01  2.567853085E+02  2.586517567E+02  3.814697266E-06  0.00000E+00  9.000E+00
#rwgt            1           1   4.6382867226237093E-002           6      318856           0
</event>
<event>
      5   9999  3.79277E-02  1.48256E+02 -1.00000E+00  1.16595E-01
       2    -1     0     0   502     0  0.000000000E+00  0.000000000E+00  1.162052625E+03  1.162052625E+03  0.000000000E+00  0.00000E+00  9.000E+00
      21    -1     0     0   501   502  0.000000000E+00  0.000000000E+00 -8.586468597E+01  8.586468597E+01  0.000000000E+00  0.00000E+00  9.000E+00
      25     1     1     2     0     0  1.913599186E+01  2.216197785E+01  5.943353192E+01  1.414732631E+02  1.250000000E+02  0.00000E+00  9.000E+00
      25     1     1     2     0     0 -1.520203660E+02  4.357658744E+01  8.863955944E+02  9.090276455E+02  1.250000000E+02  0.00000E+00  9.000E+00
       2     1     1     2   501     0  1.328843742E+02 -6.573856530E+01  1.303588129E+02  1.974164025E+02  2.697398305E-06  0.00000E+00  9.000E+00
#rwgt            1           1   5.3111138800177655E-002           6      319114           0
</event>
<event>
      5   9999  3.79277E-02  3.78875E+00 -1.00000E+00  2.69149E-01
      21    -1     0     0   511   501  0.000000000E+00  0.000000000E+00  9.942132978E+01  9.942132978E+01  0.000000000E+00  0.00000E+00  9.000E+00
      21    -1     0     0   501   502  0.000000000E+00  0.000000000E+00 -7.837980362E+02  7.837980362E+02  0.000000000E+00  0.00000E+00  9.000E+00
      25     1     1     2     0     0 -4.297291866E+00 -1.844357461E+02 -6.062338478E+02  6.458943329E+02  1.250000000E+02  0.00000E+00  9.000E+00
      25     1     1     2     0     0  3.483610545E+00  1.807354061E+02 -7.880386037E+01  2.334790590E+02  1.250000000E+02  0.00000E+00  9.000E+00
      21     1     1     2   511   502  8.136813204E-01  3.700339954E+00  6.610017454E-01  3.845974048E+00  7.450580597E-08  0.00000E+00  9.000E+00
#rwgt            1           1   3.0788880714753504E-002           6      319261           0
</event>
<event>
      5   9999  3.79277E-02  8.82755E+01 -1.00000E+00  1.26314E-01
      21    -1     0     0   512   501  0.000000000E+00  0.000000000E+00  2.582754504E+02  2.582754504E+02  0.000000000E+00  0.00000E+00  9.000E+00
      21    -1     0     0   501   502  0.000000000E+00  0.000000000E+00 -2.948628616E+02  2.948628616E+02  0.000000000E+00  0.00000E+00  9.000E+00
      25     1     1     2     0     0  9.147293029E+01 -2.148105171E+02 -5.975234140E+01  2.714888534E+02  1.250000000E+02  0.00000E+00  9.000E+00
      25     1     1     2     0     0 -4.746099067E+01  1.382891909E+02  1.862754154E+01  1.932574223E+02  1.250000000E+02  0.00000E+00  9.000E+00
      21     1     1     2   512   502 -4.401193962E+01  7.652132615E+01  4.537388629E+00  8.839203630E+01  8.018984823E-07  0.00000E+00  9.000E+00
#rwgt            2          11   2.6092420272593301E-003           6      319619           0
</event>
<event>
      5   9999  3.79277E-02  7.91983E+01 -1.00000E+00  1.28562E-01
      21    -1     0     0   502   511  0.000000000E+00  0.000000000E+00  7.907294845E+01  7.907294845E+01  0.000000000E+00  0.00000E+00  9.000E+00
      21    -1     0     0   501   502  0.000000000E+00  0.000000000E+00 -9.849429037E+02  9.849429037E+02  0.000000000E+00  0.00000E+00  9.000E+00
      25     1     1     2     0     0 -1.499195371E+02 -6.783257286E+01 -3.120372275E+02  3.742584092E+02  1.250000000E+02  0.00000E+00  9.000E+00
      25     1     1     2     0     0  1.221727728E+02 -6.346136642E+00 -5.843848571E+02  6.099976402E+02  1.250000000E+02  0.00000E+00  9.000E+00
      21     1     1     2   501   511  2.774676431E+01  7.417870950E+01 -9.447870703E+00  7.975980274E+01  1.881090860E-06  0.00000E+00  9.000E+00
#rwgt            1           1   4.1195852345588646E-002           6      319699           0
</event>
<event>
      5   9999  3.79277E-02  8.06323E+01 -1.00000E+00  1.28184E-01
      21    -1     0     0   502   512  0.000000000E+00  0.000000000E+00  8.307831792E+02  8.307831792E+02  0.000000000E+00  0.00000E+00  9.000E+00
      21    -1     0     0   501   502  0.000000000E+00  0.000000000E+00 -9.375254685E+01  9.375254685E+01  0.000000000E+00  0.00000E+00  9.000E+00
      25     1     1     2     0     0 -4.416107480E+01  1.024418102E+02  1.055670498E+02  1.980250666E+02  1.250000000E+02  0.00000E+00  9.000E+00
      25     1     1     2     0     0  1.235067568E+02 -8.809479279E+01  1.756317419E+02  2.636022007E+02  1.250000000E+02  0.00000E+00  9.000E+00
      21     1     1     2   501   512 -7.934568196E+01 -1.434701737E+01  4.558318407E+02  4.629084587E+02  5.394796609E-06  0.00000E+00  9.000E+00
#rwgt            1           1   4.1476252578447836E-002           6      319786           0
</event>
<event>
      5   9999  3.79277E-02  5.08650E+01 -1.00000E+00  1.38652E-01
      21    -1     0     0   502   501  0.000000000E+00  0.000000000E+00  1.100302257E+03  1.100302257E+03  0.000000000E+00  0.00000E+00  9.000E+00
      21    -1     0     0   511   502  0.000000000E+00  0.000000000E+00 -2.030805026E+02  2.030805026E+02  0.000000000E+00  0.00000E+00  9.000E+00
      25     1     1     2     0     0 -6.193004418E+01  1.356789467E+02  4.295887745E+02  4.716096077E+02  1.250000000E+02  0.00000E+00  9.000E+00
      25     1     1     2     0     0  1.121487312E+02 -1.437618972E+02  6.268184099E+02  6.646586643E+02  1.250000000E+02  0.00000E+00  9.000E+00
      21     1     1     2   511   501 -5.021868703E+01  8.082950550E+00 -1.591854303E+02  1.671144872E+02  3.303624740E-06  0.00000E+00  9.000E+00
#rwgt            2          11   4.6154416817194019E-003           6      319929           0
</event>
<event>
      5   9999  3.79277E-02  1.46704E+01 -1.00000E+00  1.78297E-01
      21    -1     0     0   502   501  0.000000000E+00  0.000000000E+00  6.296411862E+02  6.296411862E+02  0.000000000E+00  0.00000E+00  9.000E+00
      21    -1     0     0   501   512  0.000000000E+00  0.000000000E+00 -3.021961348E+02  3.021961348E+02  0.000000000E+00  0.00000E+00  9.000E+00
      25     1     1     2     0     0 -1.639150228E+02 -5.016852725E+01  2.496877396E+02  3.276491769E+02  1.250000000E+02  0.00000E+00  9.000E+00
      25     1     1     2     0     0  1.569557869E+02  3.725379448E+01  3.101845996E+02  3.712983303E+02  1.250000000E+02  0.00000E+00  9.000E+00
      21     1     1     2   502   512  6.959235835E+00  1.291473277E+01 -2.324272877E+02  2.328898138E+02  4.672030912E-06  0.00000E+00  9.000E+00
#rwgt            1           1   3.9494558021849993E-002           6      319964           0
</event>
<event>
      5   9999  3.79277E-02  5.60105E+01 -1.00000E+00  1.36320E-01
      21    -1     0     0   502   501  0.000000000E+00  0.000000000E+00  3.508863699E+02  3.508863699E+02  0.000000000E+00  0.00000E+00  9.000E+00
      21    -1     0     0   501   511  0.000000000E+00  0.000000000E+00 -2.583560730E+02  2.583560730E+02  0.000000000E+00  0.00000E+00  9.000E+00
      25     1     1     2     0     0 -5.243033929E+00 -7.484602046E+01  2.728327965E+02  3.093414797E+02  1.250000000E+02  0.00000E+00  9.000E+00
      25     1     1     2     0     0  2.853563642E+01  1.257835497E+02 -1.124193915E+02  2.118936136E+02  1.250000000E+02  0.00000E+00  9.000E+00
      21     1     1     2   502   511 -2.329260249E+01 -5.093752920E+01 -6.788310815E+01  8.800734960E+01  1.348699152E-06  0.00000E+00  9.000E+00
#rwgt            1           1   4.5908512407004422E-002           6      320169           0
</event>
<event>
      5   9999  3.79277E-02  2.91915E+01 -1.00000E+00  1.53868E-01
      21    -1     0     0   502   512  0.000000000E+00  0.000000000E+00  8.676473127E+02  8.676473127E+02  0.000000000E+00  0.00000E+00  9.000E+00
      21    -1     0     0   501   502  0.000000000E+00  0.000000000E+00 -1.587317789E+02  1.587317789E+02  0.000000000E+00  0.00000E+00  9.000E+00
      25     1     1     2     0     0  8.834051943E+01 -2.229962323E+02  9.153088607E+01  2.855420636E+02  1.250000000E+02  0.00000E+00  9.000E+00
      25     1     1     2     0     0 -8.295784543E+01  1.943052411E+02  1.847942841E+02  3.072628489E+02  1.250000000E+02  0.00000E+00  9.000E+00
      21     1     1     2   501   512 -5.382673994E+00  2.869099121E+01  4.325903636E+02  4.335741791E+02  5.394796609E-06  0.00000E+00  9.000E+00
#rwgt            1           1   4.1502696413257462E-002           6      320295           0
</event>
<event>
      5   9999 -3.79277E-02  3.49127E+01 -1.00000E+00  1.48602E-01
      21    -1     0     0   502   501  0.000000000E+00  0.000000000E+00  6.683912561E+01  6.683912561E+01  0.000000000E+00  0.00000E+00  9.000E+00
      21    -1     0     0   501   511  0.000000000E+00  0.000000000E+00 -6.640703828E+02  6.640703828E+02  0.000000000E+00  0.00000E+00  9.000E+00
      25     1     1     2     0     0  9.096192487E+01  9.789294187E+01 -2.599275624E+02  3.178748771E+02  1.250000000E+02  0.00000E+00  9.000E+00
      25     1     1     2     0     0 -7.495291808E+01 -1.289188643E+02 -2.359456019E+02  3.058322098E+02  1.250000000E+02  0.00000E+00  9.000E+00
      21     1     1     2   502   511 -1.600900679E+01  3.102592245E+01 -1.013580929E+02  1.072024214E+02  0.000000000E+00  0.00000E+00  9.000E+00
#rwgt            1           1 -0.11080374963592347                6      320413           0
</event>
<event>
      5   9999  3.79277E-02  8.23707E+01 -1.00000E+00  1.27739E-01
      21    -1     0     0   512   501  0.000000000E+00  0.000000000E+00  9.174659070E+01  9.174659070E+01  0.000000000E+00  0.00000E+00  9.000E+00
      21    -1     0     0   501   502  0.000000000E+00  0.000000000E+00 -5.711696227E+02  5.711696227E+02  0.000000000E+00  0.00000E+00  9.000E+00
      25     1     1     2     0     0  1.266229745E+02  1.427025183E+01 -8.258144230E+01  1.966766696E+02  1.250000000E+02  0.00000E+00  9.000E+00
      25     1     1     2     0     0 -4.428610286E+01 -1.663239682E+01 -3.422498063E+02  3.674205022E+02  1.250000000E+02  0.00000E+00  9.000E+00
      21     1     1     2   512   502 -8.233687163E+01  2.362144995E+00 -5.459178334E+01  9.881904153E+01  1.507891493E-06  0.00000E+00  9.000E+00
#rwgt            1           1   4.5241568632754178E-002           6      320545           0
</event>
<event>
      5   9999  3.79277E-02  2.10245E+01 -1.00000E+00  1.64599E-01
      21    -1     0     0   502   511  0.000000000E+00  0.000000000E+00  6.742179487E+02  6.742179487E+02  0.000000000E+00  0.00000E+00  9.000E+00
      21    -1     0     0   501   502  0.000000000E+00  0.000000000E+00 -1.213573546E+02  1.213573546E+02  0.000000000E+00  0.00000E+00  9.000E+00
      25     1     1     2     0     0 -1.269026157E+01  1.244966681E+02  5.471997952E+02  5.750765853E+02  1.250000000E+02  0.00000E+00  9.000E+00
      25     1     1     2     0     0  3.130564494E+01 -1.147243999E+02 -3.377807273E+01  1.758058291E+02  1.250000000E+02  0.00000E+00  9.000E+00
      21     1     1     2   501   511 -1.861538337E+01 -9.772268139E+00  3.943887167E+01  4.469288893E+01  6.743495762E-07  0.00000E+00  9.000E+00
#rwgt            1           1   4.6500072719352428E-002           6      320629           0
</event>
<event>
      5   9999  3.79277E-02  2.62646E+01 -1.00000E+00  1.57162E-01
       2    -1     0     0   502     0  0.000000000E+00  0.000000000E+00  1.998453777E+03  1.998453777E+03  0.000000000E+00  0.00000E+00  9.000E+00
      21    -1     0     0   501   502  0.000000000E+00  0.000000000E+00 -8.133288050E+01  8.133288050E+01  0.000000000E+00  0.00000E+00  9.000E+00
      25     1     1     2     0     0  1.405197509E+01 -1.955832647E+02  5.105235826E+02  5.609898394E+02  1.250000000E+02  0.00000E+00  9.000E+00
      25     1     1     2     0     0  9.209315053E+00  1.833873720E+02  1.644640229E+02  2.763858797E+02  1.250000000E+02  0.00000E+00  9.000E+00
       2     1     1     2   501     0 -2.326129014E+01  1.219589274E+01  1.242133291E+03  1.242410938E+03  0.000000000E+00  0.00000E+00  9.000E+00
#rwgt            1           1   3.6752494088349921E-002           6      320762           0
</event>
<event>
      5   9999  3.79277E-02  2.88708E+01 -1.00000E+00  1.54206E-01
      21    -1     0     0   502   501  0.000000000E+00  0.000000000E+00  1.348372853E+02  1.348372853E+02  0.000000000E+00  0.00000E+00  9.000E+00
      21    -1     0     0   501   511  0.000000000E+00  0.000000000E+00 -4.993878956E+02  4.993878956E+02  0.000000000E+00  0.00000E+00  9.000E+00
      25     1     1     2     0     0  1.544838113E+02 -4.085551987E+01  1.009472032E+01  2.031288380E+02  1.250000000E+02  0.00000E+00  9.000E+00
      25     1     1     2     0     0 -1.256297381E+02  3.987236978E+01 -2.957182270E+02  3.470546164E+02  1.250000000E+02  0.00000E+00  9.000E+00
      21     1     1     2   502   511 -2.885407314E+01  9.831500882E-01 -7.892710360E+01  8.404172656E+01  1.651812370E-06  0.00000E+00  9.000E+00
#rwgt            1           1   3.1607704586882300E-002           6      320925           0
</event>
<event>
      5   9999  3.79277E-02  3.82389E+01 -1.00000E+00  1.46063E-01
      21    -1     0     0   502   512  0.000000000E+00  0.000000000E+00  2.955268576E+02  2.955268576E+02  0.000000000E+00  0.00000E+00  9.000E+00
      21    -1     0     0   501   502  0.000000000E+00  0.000000000E+00 -6.112549335E+02  6.112549335E+02  0.000000000E+00  0.00000E+00  9.000E+00
      25     1     1     2     0     0 -9.779457961E+01 -1.207540176E+02 -2.157035412E+02  2.937657744E+02  1.250000000E+02  0.00000E+00  9.000E+00
      25     1     1     2     0     0  1.358530811E+02  1.244644709E+02 -3.199475308E+02  3.897933896E+02  1.250000000E+02  0.00000E+00  9.000E+00
      21     1     1     2   501   512 -3.805850151E+01 -3.710453328E+00  2.199229961E+02  2.232226270E+02  0.000000000E+00  0.00000E+00  9.000E+00
#rwgt            1           1   4.4002181679491124E-002           6      321136           0
</event>
<event>
      5   9999  3.79277E-02  1.04127E+02 -1.00000E+00  1.23043E-01
      21    -1     0     0   502   501  0.000000000E+00  0.000000000E+00  2.927477263E+02  2.927477263E+02  0.000000000E+00  0.00000E+00  9.000E+00
      -2    -1     0     0     0   502  0.000000000E+00  0.000000000E+00 -6.790344076E+02  6.790344076E+02  0.000000000E+00  0.00000E+00  9.000E+00
      25     1     1     2     0     0 -9.096192927E+01  1.772024360E+01 -1.090198556E+02  1.899958118E+02  1.250000000E+02  0.00000E+00  9.000E+00
      25     1     1     2     0     0  1.710617996E+01 -9.112102488E+01  2.223667225E+02  2.714177994E+02  1.250000000E+02  0.00000E+00  9.000E+00
      -2     1     1     2     0   501  7.385574931E+01  7.340078127E+01 -4.996335483E+02  5.103685227E+02  7.629394531E-06  0.00000E+00  9.000E+00
#rwgt            1           1   3.8112049242139810E-002           6      321259           0
</event>
<event>
      5   9999  3.79277E-02  2.10257E+01 -1.00000E+00  1.64597E-01
      21    -1     0     0   502   501  0.000000000E+00  0.000000000E+00  3.326184619E+02  3.326184619E+02  0.000000000E+00  0.00000E+00  9.000E+00
      21    -1     0     0   501   511  0.000000000E+00  0.000000000E+00 -3.172953935E+02  3.172953935E+02  0.000000000E+00  0.00000E+00  9.000E+00
      25     1     1     2     0     0 -1.472820900E+02  2.030782235E+02  3.348199589E+01  2.822743753E+02  1.250000000E+02  0.00000E+00  9.000E+00
      25     1     1     2     0     0  1.565475129E+02 -2.219523861E+02  4.382663593E+01  3.021849757E+02  1.250000000E+02  0.00000E+00  9.000E+00
      21     1     1     2   502   511 -9.265422926E+00  1.887416264E+01 -6.198556343E+01  6.545450444E+01  1.168007728E-06  0.00000E+00  9.000E+00
#rwgt            1           1   1.2331352812656073E-002           6      321403           0
</event>
<event>
      5   9999  3.79277E-02  9.30500E+01 -1.00000E+00  1.25252E-01
      21    -1     0     0   512   501  0.000000000E+00  0.000000000E+00  3.253899698E+02  3.253899698E+02  0.000000000E+00  0.00000E+00  9.000E+00
      21    -1     0     0   501   502  0.000000000E+00  0.000000000E+00 -3.847524027E+02  3.847524027E+02  0.000000000E+00  0.00000E+00  9.000E+00
      25     1     1     2     0     0 -1.847263626E+02 -1.141999142E+02 -1.732287721E+02  3.046287198E+02  1.250000000E+02  0.00000E+00  9.000E+00
      25     1     1     2     0     0  2.064786883E+02  2.372815542E+01 -1.903359758E+01  2.432771093E+02  1.250000000E+02  0.00000E+00  9.000E+00
      21     1     1     2   512   502 -2.175232564E+01  9.047175876E+01  1.328999367E+02  1.622365433E+02  2.697398305E-06  0.00000E+00  9.000E+00
#rwgt            1           1   2.5342858178530533E-002           6      321662           0
</event>
<event>
      5   9999 -3.79277E-02  1.72385E+02 -1.00000E+00  1.14049E-01
      21    -1     0     0   502   501  0.000000000E+00  0.000000000E+00  1.400906916E+03  1.400906916E+03  0.000000000E+00  0.00000E+00  9.000E+00
       2    -1     0     0   501     0  0.000000000E+00  0.000000000E+00 -5.670008113E+02  5.670008113E+02  0.000000000E+00  0.00000E+00  9.000E+00
      25     1     1     2     0     0  3.332132219E+01  5.815739108E+01  1.067050949E+03  1.076436399E+03  1.250000000E+02  0.00000E+00  9.000E+00
      25     1     1     2     0     0  1.389059966E+02 -6.552980353E+01  2.840730351E+02  3.462824285E+02  1.250000000E+02  0.00000E+00  9.000E+00
       2     1     1     2   502     0 -1.722273188E+02  7.372412449E+00 -5.172178795E+02  5.451889000E+02  7.629394531E-06  0.00000E+00  9.000E+00
#rwgt            1           1  -1.5036271093072449E-002           6      321885           0
</event>
<event>
      5   9999  3.79277E-02  5.04946E+01 -1.00000E+00  1.38832E-01
      21    -1     0     0   502   501  0.000000000E+00  0.000000000E+00  1.256338531E+03  1.256338531E+03  0.000000000E+00  0.00000E+00  9.000E+00
      21    -1     0     0   501   511  0.000000000E+00  0.000000000E+00 -2.641353858E+02  2.641353858E+02  0.000000000E+00  0.00000E+00  9.000E+00
      25     1     1     2     0     0  1.242448573E+02  2.351126706E+01  1.170075424E+03  1.183507947E+03  1.250000000E+02  0.00000E+00  9.000E+00
      25     1     1     2     0     0 -1.490202845E+02  2.048745297E+01 -2.018557830E+02  2.810650068E+02  1.250000000E+02  0.00000E+00  9.000E+00
      21     1     1     2   502   511  2.477542719E+01 -4.399872003E+01  2.398350476E+01  5.590096294E+01  8.259061849E-07  0.00000E+00  9.000E+00
#rwgt            1           1   7.8297984449232902E-002           6      321967           0
</event>
<event>
      5   9999 -3.79277E-02  1.17310E+02 -1.00000E+00  1.20788E-01
      21    -1     0     0   512   501  0.000000000E+00  0.000000000E+00  2.068575964E+02  2.068575964E+02  0.000000000E+00  0.00000E+00  9.000E+00
      21    -1     0     0   501   502  0.000000000E+00  0.000000000E+00 -1.171499390E+03  1.171499390E+03  0.000000000E+00  0.00000E+00  9.000E+00
      25     1     1     2     0     0 -1.973285886E+02  1.023451357E+02  3.351682734E+01  2.572187326E+02  1.250000000E+02  0.00000E+00  9.000E+00
      25     1     1     2     0     0  1.951555342E+02 -2.196350592E+02 -9.347685378E+02  9.877967711E+02  1.250000000E+02  0.00000E+00  9.000E+00
      21     1     1     2   512   502  2.173054458E+00  1.172899235E+02 -6.339008283E+01  1.333414824E+02  9.536743164E-07  0.00000E+00  9.000E+00
#rwgt            1           1  -2.6166783142280148E-002           6      322051           0
</event>
<event>
      5   9999  3.79277E-02  2.48057E+01 -1.00000E+00  1.59005E-01
      21    -1     0     0   502   501  0.000000000E+00  0.000000000E+00  3.551155425E+02  3.551155425E+02  0.000000000E+00  0.00000E+00  9.000E+00
       2    -1     0     0   501     0  0.000000000E+00  0.000000000E+00 -1.617844840E+03  1.617844840E+03  0.000000000E+00  0.00000E+00  9.000E+00
      25     1     1     2     0     0 -1.157273979E+02 -1.512011791E+02 -5.838739878E+01  2.351355258E+02  1.250000000E+02  0.00000E+00  9.000E+00
      25     1     1     2     0     0  1.359025144E+02  1.656333035E+02  2.089419509E+02  3.243233317E+02  1.250000000E+02  0.00000E+00  9.000E+00
       2     1     1     2   502     0 -2.017511652E+01 -1.443212447E+01 -1.413283850E+03  1.413501525E+03  1.525878906E-05  0.00000E+00  9.000E+00
#rwgt            1           1   4.1068084230418772E-002           6      322131           0
</event>
<event>
      5   9999  3.79277E-02  3.81811E+01 -1.00000E+00  1.46105E-01
      21    -1     0     0   502   501  0.000000000E+00  0.000000000E+00  3.334668491E+02  3.334668491E+02  0.000000000E+00  0.00000E+00  9.000E+00
      21    -1     0     0   501   511  0.000000000E+00  0.000000000E+00 -1.844966323E+02  1.844966323E+02  0.000000000E+00  0.00000E+00  9.000E+00
      25     1     1     2     0     0 -1.708110984E+01  8.422569153E+01  1.207014347E+02  1.938545015E+02  1.250000000E+02  0.00000E+00  9.000E+00
      25     1     1     2     0     0 -2.628576361E+00 -1.169262532E+02  1.303232944E+02  2.151460415E+02  1.250000000E+02  0.00000E+00  9.000E+00
      21     1     1     2   502   511  1.970968620E+01  3.270056169E+01 -1.020545123E+02  1.089629384E+02  1.348699152E-06  0.00000E+00  9.000E+00
#rwgt            1           1   5.6345718707278614E-002           6      322427           0
</event>
<event>
      5   9999  3.79277E-02  5.22995E+01 -1.00000E+00  1.37970E-01
      21    -1     0     0   502   501  0.000000000E+00  0.000000000E+00  8.035643983E+01  8.035643983E+01  0.000000000E+00  0.00000E+00  9.000E+00
      -1    -1     0     0     0   502  0.000000000E+00  0.000000000E+00 -1.164127118E+03  1.164127118E+03  0.000000000E+00  0.00000E+00  9.000E+00
      25     1     1     2     0     0 -5.273907292E+00  1.913044704E+02 -4.879643546E+02  5.388500959E+02  1.250000000E+02  0.00000E+00  9.000E+00
      25     1     1     2     0     0 -4.598772974E+01 -2.016717177E+02 -2.219473054E+02  3.281340570E+02  1.250000000E+02  0.00000E+00  9.000E+00
      -1     1     1     2     0   501  5.126163704E+01  1.036724732E+01 -3.738590183E+02  3.774994051E+02  5.394796609E-06  0.00000E+00  9.000E+00
#rwgt            1           1   3.8442772145293638E-002           6      322592           0
</event>
<event>
      5   9999  3.79277E-02  2.23680E+01 -1.00000E+00  1.62457E-01
      21    -1     0     0   502   501  0.000000000E+00  0.000000000E+00  8.299663641E+02  8.299663641E+02  0.000000000E+00  0.00000E+00  9.000E+00
      21    -1     0     0   501   511  0.000000000E+00  0.000000000E+00 -8.615765085E+01  8.615765085E+01  0.000000000E+00  0.00000E+00  9.000E+00
      25     1     1     2     0     0  1.778382948E+02  9.826131673E+01  2.103144407E+02  3.180234416E+02  1.250000000E+02  0.00000E+00  9.000E+00
      25     1     1     2     0     0 -1.638691757E+02 -8.079163014E+01  5.313623218E+02  5.756312286E+02  1.250000000E+02  0.00000E+00  9.000E+00
      21     1     1     2   502   511 -1.396911912E+01 -1.746968660E+01  2.131950668E+00  2.246934473E+01  1.154238983E-07  0.00000E+00  9.000E+00
#rwgt            1           1   3.4337692019268166E-002           6      322698           0
</event>
<event>
      5   9999  3.79277E-02  5.08075E+01 -1.00000E+00  1.38680E-01
      21    -1     0     0   502   501  0.000000000E+00  0.000000000E+00  6.247718305E+02  6.247718305E+02  0.000000000E+00  0.00000E+00  9.000E+00
      21    -1     0     0   501   512  0.000000000E+00  0.000000000E+00 -4.747449360E+01  4.747449360E+01  0.000000000E+00  0.00000E+00  9.000E+00
      25     1     1     2     0     0 -2.975596489E+01 -4.097203200E+01  1.729086711E+02  2.192864186E+02  1.250000000E+02  0.00000E+00  9.000E+00
      25     1     1     2     0     0  7.099292130E+01  1.129182687E+01  3.499583950E+02  3.785014907E+02  1.250000000E+02  0.00000E+00  9.000E+00
      21     1     1     2   502   512 -4.123695641E+01  2.968020513E+01  5.443027078E+01  7.445841475E+01  6.743495762E-07  0.00000E+00  9.000E+00
#rwgt            1           1   5.7194240994863046E-002           6      322868           0
</event>
<event>
      5   9999 -3.79277E-02  8.42435E+00 -1.00000E+00  2.04778E-01
      21    -1     0     0   502   501  0.000000000E+00  0.000000000E+00  1.072266283E+03  1.072266283E+03  0.000000000E+00  0.00000E+00  9.000E+00
       2    -1     0     0   501     0  0.000000000E+00  0.000000000E+00 -3.223870828E+03  3.223870828E+03  0.000000000E+00  0.00000E+00  9.000E+00
      25     1     1     2     0     0  5.547349347E+01 -1.912895710E+02  2.670945163E+02  3.558559949E+02  1.250000000E+02  0.00000E+00  9.000E+00
      25     1     1     2     0     0 -5.006568248E+01  1.848300593E+02  7.436012925E+02  7.779695403E+02  1.250000000E+02  0.00000E+00  9.000E+00
       2     1     1     2   502     0 -5.407810990E+00  6.459511721E+00 -3.162300355E+03  3.162311576E+03  6.103515625E-05  0.00000E+00  9.000E+00
#rwgt            1           1  -1.2787028406427153E-002           6      322972           0
</event>
<event>
      5   9999  3.79277E-02  1.72071E+02 -1.00000E+00  1.14079E-01
      21    -1     0     0   502   501  0.000000000E+00  0.000000000E+00  1.503565042E+02  1.503565042E+02  0.000000000E+00  0.00000E+00  9.000E+00
      21    -1     0     0   511   502  0.000000000E+00  0.000000000E+00 -1.176096124E+03  1.176096124E+03  0.000000000E+00  0.00000E+00  9.000E+00
      25     1     1     2     0     0 -1.732441207E+02  2.923141665E+01 -1.661959115E+02  2.722390164E+02  1.250000000E+02  0.00000E+00  9.000E+00
      25     1     1     2     0     0  7.465197005E+01 -1.702562832E+02 -5.391908858E+01  2.304178524E+02  1.250000000E+02  0.00000E+00  9.000E+00
      21     1     1     2   511   501  9.859215063E+01  1.410248666E+02 -8.056246202E+02  8.237957598E+02  0.000000000E+00  0.00000E+00  9.000E+00
#rwgt            2          11   1.4271806236888047E-003           6      323279           0
</event>
<event>
      5   9999 -3.79277E-02  4.65691E+01 -1.00000E+00  1.40860E-01
      21    -1     0     0   502   501  0.000000000E+00  0.000000000E+00  4.493147412E+02  4.493147412E+02  0.000000000E+00  0.00000E+00  9.000E+00
      21    -1     0     0   512   502  0.000000000E+00  0.000000000E+00 -1.392929208E+02  1.392929208E+02  0.000000000E+00  0.00000E+00  9.000E+00
      25     1     1     2     0     0  1.647102822E+02 -2.826337414E+01  1.594515551E+02  2.626368097E+02  1.250000000E+02  0.00000E+00  9.000E+00
      25     1     1     2     0     0 -1.990343143E+02  5.973629810E+01  1.243361498E+02  2.725207546E+02  1.250000000E+02  0.00000E+00  9.000E+00
      21     1     1     2   512   501  3.432403206E+01 -3.147292395E+01  2.623411556E+01  5.345009765E+01  5.840038640E-07  0.00000E+00  9.000E+00
#rwgt            1           1  -2.8173546810074276E-002           6      323299           0
</event>
<event>
      5   9999  3.79277E-02  5.32357E+01 -1.00000E+00  1.37539E-01
      21    -1     0     0   502   511  0.000000000E+00  0.000000000E+00  9.928447388E+01  9.928447388E+01  0.000000000E+00  0.00000E+00  9.000E+00
      21    -1     0     0   501   502  0.000000000E+00  0.000000000E+00 -5.587669832E+02  5.587669832E+02  0.000000000E+00  0.00000E+00  9.000E+00
      25     1     1     2     0     0 -1.707991797E+02  3.192357915E+00 -2.312733122E+02  3.135201682E+02  1.250000000E+02  0.00000E+00  9.000E+00
      25     1     1     2     0     0  1.499388603E+02 -5.217075903E+01 -1.999150051E+02  2.842436616E+02  1.250000000E+02  0.00000E+00  9.000E+00
      21     1     1     2   501   511  2.086031939E+01  4.897840112E+01 -2.829419207E+01  6.028762730E+01  1.305872339E-06  0.00000E+00  9.000E+00
#rwgt            1           1   4.1939997671397666E-002           6      323426           0
</event>
<event>
      5   9999  3.79277E-02  2.08606E+01 -1.00000E+00  1.64873E-01
      21    -1     0     0   502   512  0.000000000E+00  0.000000000E+00  1.206554657E+02  1.206554657E+02  0.000000000E+00  0.00000E+00  9.000E+00
      21    -1     0     0   501   502  0.000000000E+00  0.000000000E+00 -5.334449552E+02  5.334449552E+02  0.000000000E+00  0.00000E+00  9.000E+00
      25     1     1     2     0     0  3.067167869E+01 -8.289928419E+01  8.255507338E+00  1.533173069E+02  1.250000000E+02  0.00000E+00  9.000E+00
      25     1     1     2     0     0 -4.892546774E+01  9.299703048E+01 -4.420079653E+02  4.712092852E+02  1.250000000E+02  0.00000E+00  9.000E+00
      21     1     1     2   501   512  1.825378904E+01 -1.009774629E+01  2.096296858E+01  2.957382874E+01  5.840038640E-07  0.00000E+00  9.000E+00
#rwgt            1           1   2.9441689959395490E-002           6      323528           0
</event>
<event>
      5   9999  3.79277E-02  2.39886E+01 -1.00000E+00  1.60106E-01
      21    -1     0     0   502   501  0.000000000E+00  0.000000000E+00  9.735223271E+02  9.735223271E+02  0.000000000E+00  0.00000E+00  9.000E+00
      21    -1     0     0   501   511  0.000000000E+00  0.000000000E+00 -1.057953946E+02  1.057953946E+02  0.000000000E+00  0.00000E+00  9.000E+00
      25     1     1     2     0     0 -2.590745130E+02 -6.648128500E+01  4.820246427E+02  5.652540320E+02  1.250000000E+02  0.00000E+00  9.000E+00
      25     1     1     2     0     0  2.693373200E+02  8.816369765E+01  3.783629929E+02  4.889774881E+02  1.250000000E+02  0.00000E+00  9.000E+00
      21     1     1     2   502   511 -1.026280703E+01 -2.168241265E+01  7.339297020E+00  2.508620153E+01  8.429369702E-08  0.00000E+00  9.000E+00
#rwgt            1           1   3.5946696330655267E-002           6      323694           0
</event>
<event>
      5   9999  3.79277E-02  1.07790E+02 -1.00000E+00  1.22380E-01
      21    -1     0     0   502   501  0.000000000E+00  0.000000000E+00  1.298446570E+02  1.298446570E+02  0.000000000E+00  0.00000E+00  9.000E+00
      21    -1     0     0   501   512  0.000000000E+00  0.000000000E+00 -5.550756047E+02  5.550756047E+02  0.000000000E+00  0.00000E+00  9.000E+00
      25     1     1     2     0     0  9.903881037E+01 -6.150562218E+01  2.578224657E+01  1.728622335E+02  1.250000000E+02  0.00000E+00  9.000E+00
      25     1     1     2     0     0  6.130152793E+00  3.787990276E+01 -2.008744568E+02  2.396831517E+02  1.250000000E+02  0.00000E+00  9.000E+00
      21     1     1     2   502   512 -1.051689632E+02  2.362571942E+01 -2.501387374E+02  2.723748766E+02  0.000000000E+00  0.00000E+00  9.000E+00
#rwgt            1           1   4.9469763672043567E-002           6      323833           0
</event>
<event>
      5   9999  3.79277E-02  2.51415E+02 -1.00000E+00  1.08147E-01
      21    -1     0     0   511   501  0.000000000E+00  0.000000000E+00  1.937182176E+02  1.937182176E+02  0.000000000E+00  0.00000E+00  9.000E+00
      21    -1     0     0   501   502  0.000000000E+00  0.000000000E+00 -1.569519338E+03  1.569519338E+03  0.000000000E+00  0.00000E+00  9.000E+00
      25     1     1     2     0     0  3.871809963E+02  1.057717859E+02 -1.199030837E+03  1.270589133E+03  1.250000000E+02  0.00000E+00  9.000E+00
      25     1     1     2     0     0 -1.367856486E+02 -8.315491135E+01 -4.203083806E+01  2.074045426E+02  1.250000000E+02  0.00000E+00  9.000E+00
      21     1     1     2   511   502 -2.503953477E+02 -2.261687459E+01 -1.347394445E+02  2.852438800E+02  1.907348633E-06  0.00000E+00  9.000E+00
#rwgt            1           1   3.1010917154899811E-002           6      323967           0
</event>
<event>
      5   9999  3.79277E-02  3.83714E+02 -1.00000E+00  1.02232E-01
       2    -1     0     0   502     0  0.000000000E+00  0.000000000E+00  2.999873025E+03  2.999873025E+03  0.000000000E+00  0.00000E+00  9.000E+00
      21    -1     0     0   501   502  0.000000000E+00  0.000000000E+00 -2.604693344E+02  2.604693344E+02  0.000000000E+00  0.00000E+00  9.000E+00
      25     1     1     2     0     0  3.719149463E+02  1.119105742E+02 -5.376209524E+01  4.115337979E+02  1.250000000E+02  0.00000E+00  9.000E+00
      25     1     1     2     0     0 -2.658252415E+01  5.536643832E+01  3.679724189E+02  3.934472953E+02  1.250000000E+02  0.00000E+00  9.000E+00
       2     1     1     2   501     0 -3.453324222E+02 -1.672770125E+02  2.425193367E+03  2.455361266E+03  3.051757812E-05  0.00000E+00  9.000E+00
#rwgt            1           1   4.3199336213626302E-002           6      324028           0
</event>
<event>
      5   9999  3.79277E-02  1.77326E+02 -1.00000E+00  1.13584E-01
       2    -1     0     0   502     0  0.000000000E+00  0.000000000E+00  5.303537434E+02  5.303537434E+02  0.000000000E+00  0.00000E+00  9.000E+00
      21    -1     0     0   501   502  0.000000000E+00  0.000000000E+00 -4.093046744E+02  4.093046744E+02  0.000000000E+00  0.00000E+00  9.000E+00
      25     1     1     2     0     0  1.960510667E+01  1.143473467E+02 -3.099509465E+02  3.537714872E+02  1.250000000E+02  0.00000E+00  9.000E+00
      25     1     1     2     0     0 -2.033479408E+01  6.297672985E+01  2.605396583E+01  1.438171808E+02  1.250000000E+02  0.00000E+00  9.000E+00
       2     1     1     2   501     0  7.296874022E-01 -1.773240766E+02  4.049460496E+02  4.420697498E+02  0.000000000E+00  0.00000E+00  9.000E+00
#rwgt            2          18   6.1463338321981261E-004           6      324100           0
</event>
<event>
      5   9999 -5.99523E-02  2.76739E+01 -1.00000E+00  1.55515E-01
      21    -1     0     0   502   511  0.000000000E+00  0.000000000E+00  6.319259872E+02  6.319259872E+02  0.000000000E+00  0.00000E+00  9.000E+00
      21    -1     0     0   501   502  0.000000000E+00  0.000000000E+00 -3.021506043E+02  3.021506043E+02  0.000000000E+00  0.00000E+00  9.000E+00
      25     1     1     2     0     0 -4.029178970E+02 -9.308189658E+01  1.278077893E+02  4.505184815E+02  1.250000000E+02  0.00000E+00  9.000E+00
      25     1     1     2     0     0  3.759520789E+02  9.930195735E+01  1.732246789E+02  4.436582398E+02  1.250000000E+02  0.00000E+00  9.000E+00
      21     1     1     2   501   511  2.696581806E+01 -6.220060764E+00  2.874291469E+01  3.989987023E+01  3.371747881E-07  0.00000E+00  9.000E+00
#rwgt            1           1 -0.57994924115124447                6      324254           0
</event>
<event>
      5   9999  3.79277E-02  5.19154E+01 -1.00000E+00  1.38150E-01
       1    -1     0     0   502     0  0.000000000E+00  0.000000000E+00  2.978132082E+02  2.978132082E+02  0.000000000E+00  0.00000E+00  9.000E+00
      21    -1     0     0   501   502  0.000000000E+00  0.000000000E+00 -1.176068014E+03  1.176068014E+03  0.000000000E+00  0.00000E+00  9.000E+00
      25     1     1     2     0     0 -2.431795958E+02  6.234600394E+01 -3.243047615E+02  4.287445841E+02  1.250000000E+02  0.00000E+00  9.000E+00
      25     1     1     2     0     0  2.204165127E+02 -1.568716456E+01 -7.763243180E+02  8.167826963E+02  1.250000000E+02  0.00000E+00  9.000E+00
       1     1     1     2   501     0  2.276308319E+01 -4.665883938E+01  2.223742737E+02  2.283539420E+02  5.394796609E-06  0.00000E+00  9.000E+00
#rwgt            1           1   9.6503326046029819E-002           6      324470           0
</event>
<event>
      5   9999  3.79277E-02  1.01071E+02 -1.00000E+00  1.23620E-01
      21    -1     0     0   502   501  0.000000000E+00  0.000000000E+00  8.435262862E+01  8.435262862E+01  0.000000000E+00  0.00000E+00  9.000E+00
      -5    -1     0     0     0   502  0.000000000E+00  0.000000000E+00 -1.558921656E+03  1.558921656E+03  0.000000000E+00  0.00000E+00  9.000E+00
      25     1     1     2     0     0 -4.046836349E+01  8.570976057E+01 -2.390265640E+02  2.859065403E+02  1.250000000E+02  0.00000E+00  9.000E+00
      25     1     1     2     0     0  2.893974186E-01 -1.784518091E+02 -1.440160403E+02  2.611718817E+02  1.250000000E+02  0.00000E+00  9.000E+00
      -5     1     1     2     0   501  4.017896607E+01  9.274204856E+01 -1.091526423E+03  1.096195862E+03  0.000000000E+00  0.00000E+00  9.000E+00
#rwgt            1           1   4.2365915924828169E-002           6      324588           0
</event>
<event>
      5   9999  3.79277E-02  5.37504E+01 -1.00000E+00  1.37307E-01
      21    -1     0     0   511   501  0.000000000E+00  0.000000000E+00  3.041062953E+02  3.041062953E+02  0.000000000E+00  0.00000E+00  9.000E+00
      21    -1     0     0   501   502  0.000000000E+00  0.000000000E+00 -2.408236799E+02  2.408236799E+02  0.000000000E+00  0.00000E+00  9.000E+00
      25     1     1     2     0     0  1.080337329E+02  3.199262744E+01  6.913832904E+00  1.684268884E+02  1.250000000E+02  0.00000E+00  9.000E+00
      25     1     1     2     0     0 -1.175699270E+02 -8.489030663E+01 -9.654481169E+01  2.144177058E+02  1.250000000E+02  0.00000E+00  9.000E+00
      21     1     1     2   511   502  9.536194078E+00  5.289767919E+01  1.529135942E+02  1.620853811E+02  2.697398305E-06  0.00000E+00  9.000E+00
#rwgt            1           1   3.6682182034308362E-002           6      324734           0
</event>
<event>
      5   9999  3.79277E-02  6.23370E+01 -1.00000E+00  1.33823E-01
      21    -1     0     0   502   512  0.000000000E+00  0.000000000E+00  1.896397144E+02  1.896397144E+02  0.000000000E+00  0.00000E+00  9.000E+00
      21    -1     0     0   501   502  0.000000000E+00  0.000000000E+00 -3.815282818E+02  3.815282818E+02  0.000000000E+00  0.00000E+00  9.000E+00
      25     1     1     2     0     0  1.815499468E+02 -9.551242034E+01 -1.657784481E+02  2.918741158E+02  1.250000000E+02  0.00000E+00  9.000E+00
      25     1     1     2     0     0 -1.255189023E+02  1.228330726E+02 -2.431270804E+01  2.169310174E+02  1.250000000E+02  0.00000E+00  9.000E+00
      21     1     1     2   501   512 -5.603104460E+01 -2.732065223E+01 -1.797411357E+00  6.236286302E+01  1.288067268E-06  0.00000E+00  9.000E+00
#rwgt            1           1   4.1017070628503606E-002           6      324807           0
</event>
<event>
      5   9999  4.20640E-02  5.68942E+01 -1.00000E+00  1.35949E-01
      21    -1     0     0   502   511  0.000000000E+00  0.000000000E+00  7.627164962E+01  7.627164962E+01  0.000000000E+00  0.00000E+00  9.000E+00
      21    -1     0     0   501   502  0.000000000E+00  0.000000000E+00 -1.215590873E+03  1.215590873E+03  0.000000000E+00  0.00000E+00  9.000E+00
      25     1     1     2     0     0  1.292345595E+02 -1.399032053E+02 -7.818915427E+02  8.144039924E+02  1.250000000E+02  0.00000E+00  9.000E+00
      25     1     1     2     0     0 -7.979770551E+01  1.680625060E+02 -3.558341161E+02  4.205420287E+02  1.250000000E+02  0.00000E+00  9.000E+00
      21     1     1     2   501   511 -4.943685395E+01 -2.815930064E+01 -1.593564934E+00  5.691650191E+01  1.196183696E-06  0.00000E+00  9.000E+00
#rwgt            1           1  0.32355050428648136                6      324922           0
</event>
<event>
      5   9999  3.79277E-02  7.02208E+01 -1.00000E+00  1.31151E-01
      21    -1     0     0   502   512  0.000000000E+00  0.000000000E+00  2.392643706E+02  2.392643706E+02  0.000000000E+00  0.00000E+00  9.000E+00
      21    -1     0     0   501   502  0.000000000E+00  0.000000000E+00 -5.512109527E+02  5.512109527E+02  0.000000000E+00  0.00000E+00  9.000E+00
      25     1     1     2     0     0 -3.563051856E+01 -1.589276345E+01 -2.727544910E+01  1.337574817E+02  1.250000000E+02  0.00000E+00  9.000E+00
      25     1     1     2     0     0  6.254926035E+01  8.074906050E+01 -4.494719871E+02  4.775802424E+02  1.250000000E+02  0.00000E+00  9.000E+00
      21     1     1     2   501   512 -2.691874179E+01 -6.485629705E+01  1.648008541E+02  1.791375992E+02  4.264961200E-06  0.00000E+00  9.000E+00
#rwgt            1           1   3.0966080296219257E-002           6      325005           0
</event>
<event>
      5   9999  3.79277E-02  5.33220E+01 -1.00000E+00  1.37500E-01
      21    -1     0     0   511   501  0.000000000E+00  0.000000000E+00  1.034201979E+03  1.034201979E+03  0.000000000E+00  0.00000E+00  9.000E+00
      21    -1     0     0   501   502  0.000000000E+00  0.000000000E+00 -1.051704157E+02  1.051704157E+02  0.000000000E+00  0.00000E+00  9.000E+00
      25     1     1     2     0     0 -9.102064889E+01 -5.462160774E+01  2.605583870E+02  3.078700239E+02  1.250000000E+02  0.00000E+00  9.000E+00
      25     1     1     2     0     0  1.427212645E+02  6.767087284E+01  4.582603186E+01  2.065762125E+02  1.250000000E+02  0.00000E+00  9.000E+00
      21     1     1     2   511   502 -5.170061559E+01 -1.304926510E+01  6.226471441E+02  6.249261581E+02  7.629394531E-06  0.00000E+00  9.000E+00
#rwgt            1           1   4.4563749911426032E-002           6      325132           0
</event>
<event>
      5   9999  3.79277E-02  5.21061E+01 -1.00000E+00  1.38061E-01
      21    -1     0     0   502   501  0.000000000E+00  0.000000000E+00  2.048084938E+02  2.048084938E+02  0.000000000E+00  0.00000E+00  9.000E+00
       1    -1     0     0   501     0  0.000000000E+00  0.000000000E+00 -1.815103409E+03  1.815103409E+03  0.000000000E+00  0.00000E+00  9.000E+00
      25     1     1     2     0     0 -1.452400188E+02 -1.119649533E+02  1.242950784E+02  2.543719331E+02  1.250000000E+02  0.00000E+00  9.000E+00
      25     1     1     2     0     0  1.116232515E+02  1.517764654E+02 -8.544327043E+02  8.838416667E+02  1.250000000E+02  0.00000E+00  9.000E+00
       1     1     1     2   502     0  3.361676733E+01 -3.981151207E+01 -8.801572888E+02  8.816983025E+02  1.078959322E-05  0.00000E+00  9.000E+00
#rwgt            1           1   3.7933014565590492E-002           6      325259           0
</event>
<event>
      5   9999  3.79277E-02  8.37357E+01 -1.00000E+00  1.27397E-01
      21    -1     0     0   502   501  0.000000000E+00  0.000000000E+00  5.817113981E+02  5.817113981E+02  0.000000000E+00  0.00000E+00  9.000E+00
      21    -1     0     0   501   511  0.000000000E+00  0.000000000E+00 -1.344585685E+02  1.344585685E+02  0.000000000E+00  0.00000E+00  9.000E+00
      25     1     1     2     0     0  1.190499658E+02 -1.527888172E+02  3.561488099E+02  4.242455561E+02  1.250000000E+02  0.00000E+00  9.000E+00
      25     1     1     2     0     0 -4.379525690E+01  1.160682187E+02  1.078783488E+02  2.065250446E+02  1.250000000E+02  0.00000E+00  9.000E+00
      21     1     1     2   502   511 -7.525470894E+01  3.672059847E+01 -1.677432914E+01  8.539936585E+01  1.261592536E-06  0.00000E+00  9.000E+00
#rwgt            2          11   1.9562433884785890E-003           6      325481           0
</event>
<event>
      5   9999  3.79277E-02  2.44087E+01 -1.00000E+00  1.59533E-01
      21    -1     0     0   512   501  0.000000000E+00  0.000000000E+00  3.498734525E+02  3.498734525E+02  0.000000000E+00  0.00000E+00  9.000E+00
      21    -1     0     0   501   502  0.000000000E+00  0.000000000E+00 -9.611167581E+01  9.611167581E+01  0.000000000E+00  0.00000E+00  9.000E+00
      25     1     1     2     0     0  7.401211166E+00  9.961175184E+01  1.373134050E+02  2.108488801E+02  1.250000000E+02  0.00000E+00  9.000E+00
      25     1     1     2     0     0  2.653081730E+00 -1.218535178E+02  8.191652093E+01  1.928487362E+02  1.250000000E+02  0.00000E+00  9.000E+00
      21     1     1     2   512   502 -1.005429290E+01  2.224176599E+01  3.453185077E+01  4.228751208E+01  6.743495762E-07  0.00000E+00  9.000E+00
#rwgt            1           1   4.1773698289334769E-002           6      325681           0
</event>
<event>
      5   9999  3.79277E-02  3.34413E+01 -1.00000E+00  1.49835E-01
      21    -1     0     0   502   501  0.000000000E+00  0.000000000E+00  4.589499576E+02  4.589499576E+02  0.000000000E+00  0.00000E+00  9.000E+00
      21    -1     0     0   511   502  0.000000000E+00  0.000000000E+00 -2.827952921E+03  2.827952921E+03  0.000000000E+00  0.00000E+00  9.000E+00
      25     1     1     2     0     0 -8.303882357E+01 -1.478250172E+01  4.179081464E+02  4.442816532E+02  1.250000000E+02  0.00000E+00  9.000E+00
      25     1     1     2     0     0  9.179577310E+01 -1.749192538E+01 -1.917100835E+02  2.472047482E+02  1.250000000E+02  0.00000E+00  9.000E+00
      21     1     1     2   511   501 -8.756949523E+00  3.227442710E+01 -2.595201027E+03  2.595416477E+03  0.000000000E+00  0.00000E+00  9.000E+00
#rwgt            1           1   4.3602462478061807E-002           6      325788           0
</event>
<event>
      5   9999  3.79277E-02  6.58381E+01 -1.00000E+00  1.32583E-01
      21    -1     0     0   502   501  0.000000000E+00  0.000000000E+00  2.989557837E+02  2.989557837E+02  0.000000000E+00  0.00000E+00  9.000E+00
      21    -1     0     0   512   502  0.000000000E+00  0.000000000E+00 -3.422587720E+02  3.422587720E+02  0.000000000E+00  0.00000E+00  9.000E+00
      25     1     1     2     0     0  2.394965391E+02  8.311747952E+01  3.494716627E+01  2.848041644E+02  1.250000000E+02  0.00000E+00  9.000E+00
      25     1     1     2     0     0 -2.498329481E+02 -1.809581004E+01 -4.830249115E+01  2.840811344E+02  1.250000000E+02  0.00000E+00  9.000E+00
      21     1     1     2   512   501  1.033640900E+01 -6.502166948E+01 -2.994766338E+01  7.232925684E+01  1.390207266E-06  0.00000E+00  9.000E+00
#rwgt            1           1   3.2768300680334712E-002           6      325963           0
</event>
<event>
      5   9999  3.79277E-02  9.65623E+01 -1.00000E+00  1.24515E-01
      21    -1     0     0   502   511  0.000000000E+00  0.000000000E+00  1.813791275E+02  1.813791275E+02  0.000000000E+00  0.00000E+00  9.000E+00
      21    -1     0     0   501   502  0.000000000E+00  0.000000000E+00 -5.669163714E+02  5.669163714E+02  0.000000000E+00  0.00000E+00  9.000E+00
      25     1     1     2     0     0 -5.873112544E+01  1.560223617E+02 -2.995374292E+02  3.648835348E+02  1.250000000E+02  0.00000E+00  9.000E+00
      25     1     1     2     0     0  2.078313302E+01 -2.448155639E+02 -7.815953450E+01  2.865318687E+02  1.250000000E+02  0.00000E+00  9.000E+00
      21     1     1     2   501   511  3.794799241E+01  8.879320220E+01 -7.840280149E+00  9.688009537E+01  1.042655449E-06  0.00000E+00  9.000E+00
#rwgt            1           1  0.15126432553020056                6      326083           0
</event>
<event>
      5   9999  3.79277E-02  2.50951E+01 -1.00000E+00  1.58627E-01
      21    -1     0     0   502   512  0.000000000E+00  0.000000000E+00  3.305161247E+02  3.305161247E+02  0.000000000E+00  0.00000E+00  9.000E+00
      21    -1     0     0   501   502  0.000000000E+00  0.000000000E+00 -2.256225546E+02  2.256225546E+02  0.000000000E+00  0.00000E+00  9.000E+00
      25     1     1     2     0     0  9.286886089E+01 -8.406533069E+01 -2.755144106E+01  1.790968650E+02  1.250000000E+02  0.00000E+00  9.000E+00
      25     1     1     2     0     0 -1.087160474E+02  6.460690125E+01 -5.639325846E+01  1.865433737E+02  1.250000000E+02  0.00000E+00  9.000E+00
      21     1     1     2   501   512  1.584718654E+01  1.945842944E+01  1.888382697E+02  1.904984407E+02  0.000000000E+00  0.00000E+00  9.000E+00
#rwgt            1           1   3.6200444355448946E-002           6      326304           0
</event>
<event>
      5   9999  3.79277E-02  1.56066E+02 -1.00000E+00  1.15715E-01
      21    -1     0     0   511   501  0.000000000E+00  0.000000000E+00  3.960858907E+02  3.960858907E+02  0.000000000E+00  0.00000E+00  9.000E+00
      21    -1     0     0   501   502  0.000000000E+00  0.000000000E+00 -4.796139360E+02  4.796139360E+02  0.000000000E+00  0.00000E+00  9.000E+00
      25     1     1     2     0     0 -1.659890418E+02 -1.037321654E+01  2.095765862E+02  2.953088402E+02  1.250000000E+02  0.00000E+00  9.000E+00
      25     1     1     2     0     0  3.666159883E+01 -7.698252798E+01 -3.748319544E+02  4.042207027E+02  1.250000000E+02  0.00000E+00  9.000E+00
      21     1     1     2   511   502  1.293274430E+02  8.735574452E+01  8.172732281E+01  1.761702838E+02  0.000000000E+00  0.00000E+00  9.000E+00
#rwgt            1           1   4.6624737547104791E-002           6      326443           0
</event>
<event>
      5   9999  3.79277E-02  5.09114E+01 -1.00000E+00  1.38629E-01
       2    -1     0     0   502     0  0.000000000E+00  0.000000000E+00  1.581494800E+03  1.581494800E+03  0.000000000E+00  0.00000E+00  9.000E+00
      21    -1     0     0   501   502  0.000000000E+00  0.000000000E+00 -8.109455392E+01  8.109455392E+01  0.000000000E+00  0.00000E+00  9.000E+00
      25     1     1     2     0     0 -1.082996912E+02  1.359811163E+02  1.555997648E+02  2.646808907E+02  1.250000000E+02  0.00000E+00  9.000E+00
      25     1     1     2     0     0  5.772372941E+01 -1.301465087E+02  3.202634862E+02  3.721073008E+02  1.250000000E+02  0.00000E+00  9.000E+00
       2     1     1     2   501     0  5.057596184E+01 -5.834607633E+00  1.024536995E+03  1.025801162E+03  0.000000000E+00  0.00000E+00  9.000E+00
#rwgt            1           1   2.6449829693148318E-002           6      326643           0
</event>
<event>
      5   9999  3.79277E-02  2.78615E+01 -1.00000E+00  1.55305E-01
      21    -1     0     0   511   501  0.000000000E+00  0.000000000E+00  1.288927854E+02  1.288927854E+02  0.000000000E+00  0.00000E+00  9.000E+00
      21    -1     0     0   501   502  0.000000000E+00  0.000000000E+00 -5.395303476E+02  5.395303476E+02  0.000000000E+00  0.00000E+00  9.000E+00
      25     1     1     2     0     0  2.430448417E+01  9.639780407E+01 -3.833155985E+02  4.152578628E+02  1.250000000E+02  0.00000E+00  9.000E+00
      25     1     1     2     0     0 -1.675423714E+01 -1.232167438E+02 -7.996503440E+01  1.936039182E+02  1.250000000E+02  0.00000E+00  9.000E+00
      21     1     1     2   511   502 -7.550247032E+00  2.681893970E+01  5.264307067E+01  5.956135195E+01  6.743495762E-07  0.00000E+00  9.000E+00
#rwgt            1           1   3.6463236590753019E-002           6      326768           0
</event>
<event>
      5   9999  3.79277E-02  1.07400E+02 -1.00000E+00  1.22449E-01
       2    -1     0     0   502     0  0.000000000E+00  0.000000000E+00  3.743133297E+03  3.743133297E+03  0.000000000E+00  0.00000E+00  9.000E+00
      21    -1     0     0   501   502  0.000000000E+00  0.000000000E+00 -3.566639368E+02  3.566639368E+02  0.000000000E+00  0.00000E+00  9.000E+00
      25     1     1     2     0     0 -2.949655250E+01 -2.469514408E+01 -2.731257994E+02  3.028243699E+02  1.250000000E+02  0.00000E+00  9.000E+00
      25     1     1     2     0     0 -6.910741757E+01  6.726186940E+01  2.388066599E+01  1.596724161E+02  1.250000000E+02  0.00000E+00  9.000E+00
       2     1     1     2   501     0  9.860397008E+01 -4.256672532E+01  3.635714494E+03  3.637300448E+03  0.000000000E+00  0.00000E+00  9.000E+00
#rwgt            1           1   4.3513480615647901E-002           6      326907           0
</event>
<event>
      5   9999  3.79277E-02  2.55102E+01 -1.00000E+00  1.58096E-01
      21    -1     0     0   511   501  0.000000000E+00  0.000000000E+00  2.614133330E+02  2.614133330E+02  0.000000000E+00  0.00000E+00  9.000E+00
      21    -1     0     0   501   502  0.000000000E+00  0.000000000E+00 -1.793951946E+02  1.793951946E+02  0.000000000E+00  0.00000E+00  9.000E+00
      25     1     1     2     0     0 -1.256254140E+02 -5.378063658E+01 -3.132104561E+01  1.878300014E+02  1.250000000E+02  0.00000E+00  9.000E+00
      25     1     1     2     0     0  1.240585599E+02  2.831858636E+01  5.084715123E+01  1.854801914E+02  1.250000000E+02  0.00000E+00  9.000E+00
      21     1     1     2   511   502  1.566854111E+00  2.546205022E+01  6.249203278E+01  6.749833475E+01  6.743495762E-07  0.00000E+00  9.000E+00
#rwgt            1           1   3.9938425055832179E-002           6      326944           0
</event>
<event>
      5   9999  3.79277E-02  2.09756E+01 -1.00000E+00  1.64680E-01
      21    -1     0     0   502   512  0.000000000E+00  0.000000000E+00  1.169462371E+03  1.169462371E+03  0.000000000E+00  0.00000E+00  9.000E+00
      21    -1     0     0   501   502  0.000000000E+00  0.000000000E+00 -4.910770134E+01  4.910770134E+01  0.000000000E+00  0.00000E+00  9.000E+00
      25     1     1     2     0     0  8.182599860E+01 -1.180304719E+02  1.969934321E+02  2.739673313E+02  1.250000000E+02  0.00000E+00  9.000E+00
      25     1     1     2     0     0 -6.841733620E+01  1.019002142E+02  8.656342606E+02  8.831830267E+02  1.250000000E+02  0.00000E+00  9.000E+00
      21     1     1     2   501   512 -1.340866240E+01  1.613025769E+01  5.772697743E+01  6.141971478E+01  6.743495762E-07  0.00000E+00  9.000E+00
#rwgt            1           1   3.4209941928137234E-002           6      327080           0
</event>
<event>
      5   9999  3.79277E-02  2.14569E+01 -1.00000E+00  1.63888E-01
      21    -1     0     0   502   511  0.000000000E+00  0.000000000E+00  3.366386400E+02  3.366386400E+02  0.000000000E+00  0.00000E+00  9.000E+00
      21    -1     0     0   501   502  0.000000000E+00  0.000000000E+00 -1.210575202E+02  1.210575202E+02  0.000000000E+00  0.00000E+00  9.000E+00
      25     1     1     2     0     0 -1.213434299E+02 -2.307140658E+01  2.919024426E+01  1.781392380E+02  1.250000000E+02  0.00000E+00  9.000E+00
      25     1     1     2     0     0  1.300956813E+02  4.266210955E+01  1.556478609E+02  2.420665167E+02  1.250000000E+02  0.00000E+00  9.000E+00
      21     1     1     2   501   511 -8.752251466E+00 -1.959070297E+01  3.074301473E+01  3.749040548E+01  6.743495762E-07  0.00000E+00  9.000E+00
#rwgt            1           1   3.7649632290004696E-002           6      327187           0
</event>
<event>
      5   9999  3.79277E-02  1.28693E+02 -1.00000E+00  1.19093E-01
      21    -1     0     0   502   501  0.000000000E+00  0.000000000E+00  1.968408176E+02  1.968408176E+02  0.000000000E+00  0.00000E+00  9.000E+00
      21    -1     0     0   512   502  0.000000000E+00  0.000000000E+00 -9.461966322E+02  9.461966322E+02  0.000000000E+00  0.00000E+00  9.000E+00
      25     1     1     2     0     0 -6.463694130E+01  5.368055883E+01  2.272920882E+01  1.523192487E+02  1.250000000E+02  0.00000E+00  9.000E+00
      25     1     1     2     0     0  1.685560499E+02 -1.295937539E+02 -4.299616169E+01  2.503584489E+02  1.250000000E+02  0.00000E+00  9.000E+00
      21     1     1     2   512   501 -1.039191086E+02  7.591319511E+01 -7.290888617E+02  7.403597522E+02  1.078959322E-05  0.00000E+00  9.000E+00
#rwgt            1           1   4.2792490938688720E-002           6      327392           0
</event>
<event>
      5   9999  3.79277E-02  3.05559E+01 -1.00000E+00  1.52488E-01
      21    -1     0     0   502   501  0.000000000E+00  0.000000000E+00  4.590528472E+02  4.590528472E+02  0.000000000E+00  0.00000E+00  9.000E+00
      21    -1     0     0   501   511  0.000000000E+00  0.000000000E+00 -1.301948771E+02  1.301948771E+02  0.000000000E+00  0.00000E+00  9.000E+00
      25     1     1     2     0     0  1.338103241E+02 -9.312293417E+01  5.403338723E+01  2.124186683E+02  1.250000000E+02  0.00000E+00  9.000E+00
      25     1     1     2     0     0 -1.213316667E+02  6.523129395E+01  2.885666757E+02  3.433252414E+02  1.250000000E+02  0.00000E+00  9.000E+00
      21     1     1     2   502   511 -1.247865737E+01  2.789164022E+01 -1.374209278E+01  3.350381467E+01  5.331201500E-07  0.00000E+00  9.000E+00
#rwgt            1           1   4.2596882852487521E-002           6      327464           0
</event>
<event>
      5   9999  3.79277E-02  2.75600E+01 -1.00000E+00  1.55644E-01
      21    -1     0     0   502   501  0.000000000E+00  0.000000000E+00  3.899085754E+02  3.899085754E+02  0.000000000E+00  0.00000E+00  9.000E+00
      21    -1     0     0   501   512  0.000000000E+00  0.000000000E+00 -7.939748862E+01  7.939748862E+01  0.000000000E+00  0.00000E+00  9.000E+00
      25     1     1     2     0     0  7.803783030E+00 -9.787668217E+01  1.211377050E+02  1.998501626E+02  1.250000000E+02  0.00000E+00  9.000E+00
      25     1     1     2     0     0 -3.377949715E+01  8.866710051E+01  1.831752007E+02  2.412075109E+02  1.250000000E+02  0.00000E+00  9.000E+00
      21     1     1     2   502   512  2.597571412E+01  9.209581659E+00  6.198181101E+00  2.824839052E+01  1.884864366E-07  0.00000E+00  9.000E+00
#rwgt            1           1   5.0276371847615360E-002           6      327676           0
</event>
<event>
      5   9999  3.79277E-02  8.71276E+01 -1.00000E+00  1.26581E-01
      21    -1     0     0   502   501  0.000000000E+00  0.000000000E+00  2.349172489E+02  2.349172489E+02  0.000000000E+00  0.00000E+00  9.000E+00
      21    -1     0     0   511   502  0.000000000E+00  0.000000000E+00 -3.138415385E+02  3.138415385E+02  0.000000000E+00  0.00000E+00  9.000E+00
      25     1     1     2     0     0  9.629788547E+00 -3.133164581E+01 -8.284331069E+01  1.535005504E+02  1.250000000E+02  0.00000E+00  9.000E+00
      25     1     1     2     0     0 -9.498783380E+01  1.386087260E+01  1.548727479E+02  2.209646587E+02  1.250000000E+02  0.00000E+00  9.000E+00
      21     1     1     2   511   501  8.535804525E+01  1.747077321E+01 -1.509537268E+02  1.742935783E+02  0.000000000E+00  0.00000E+00  9.000E+00
#rwgt            1           1   4.0271618970783192E-002           6      327850           0
</event>
<event>
      5   9999  3.79277E-02  1.29987E+01 -1.00000E+00  1.83450E-01
      21    -1     0     0   512   501  0.000000000E+00  0.000000000E+00  1.502143017E+03  1.502143017E+03  0.000000000E+00  0.00000E+00  9.000E+00
      21    -1     0     0   501   502  0.000000000E+00  0.000000000E+00 -3.770906561E+02  3.770906561E+02  0.000000000E+00  0.00000E+00  9.000E+00
      25     1     1     2     0     0  1.753160068E+02  2.576665452E+00  5.827602475E+00  2.154096154E+02  1.250000000E+02  0.00000E+00  9.000E+00
      25     1     1     2     0     0 -1.675164127E+02  7.821958842E+00 -2.320985321E+02  3.124382502E+02  1.250000000E+02  0.00000E+00  9.000E+00
      21     1     1     2   512   502 -7.799594092E+00 -1.039862429E+01  1.351323290E+03  1.351385807E+03  2.642899792E-05  0.00000E+00  9.000E+00
#rwgt            1           1   4.4921131350488537E-002           6      328019           0
</event>
<event>
      5   9999  3.79277E-02  1.89040E+01 -1.00000E+00  1.68414E-01
      21    -1     0     0   511   501  0.000000000E+00  0.000000000E+00  2.669964981E+02  2.669964981E+02  0.000000000E+00  0.00000E+00  9.000E+00
      21    -1     0     0   501   502  0.000000000E+00  0.000000000E+00 -4.169695051E+02  4.169695051E+02  0.000000000E+00  0.00000E+00  9.000E+00
      25     1     1     2     0     0 -1.401621510E+02 -1.593432537E+02  6.760636801E+01  2.554042327E+02  1.250000000E+02  0.00000E+00  9.000E+00
      25     1     1     2     0     0  1.561579611E+02  1.694176917E+02 -2.678980295E+02  3.748093079E+02  1.250000000E+02  0.00000E+00  9.000E+00
      21     1     1     2   511   502 -1.599581004E+01 -1.007443799E+01  5.031865455E+01  5.375246260E+01  9.536743164E-07  0.00000E+00  9.000E+00
#rwgt            1           1   2.5589441930308109E-002           6      328395           0
</event>
<event>
      5   9999  3.79277E-02  3.40670E+01 -1.00000E+00  1.49301E-01
      -2    -1     0     0     0   501  0.000000000E+00  0.000000000E+00  2.009854452E+02  2.009854452E+02  0.000000000E+00  0.00000E+00  9.000E+00
      21    -1     0     0   501   502  0.000000000E+00  0.000000000E+00 -1.004218744E+03  1.004218744E+03  0.000000000E+00  0.00000E+00  9.000E+00
      25     1     1     2     0     0  2.374607646E+02 -1.192088441E+02 -7.690455647E+02  8.231976943E+02  1.250000000E+02  0.00000E+00  9.000E+00
      25     1     1     2     0     0 -2.047958805E+02  1.095360216E+02 -1.199352918E+02  2.897394811E+02  1.250000000E+02  0.00000E+00  9.000E+00
      -2     1     1     2     0   502 -3.266488410E+01  9.672822565E+00  8.574755786E+01  9.226701376E+01  1.907348633E-06  0.00000E+00  9.000E+00
#rwgt            1           1   3.5263063941545020E-002           6      328618           0
</event>
<event>
      5   9999  3.79277E-02  2.33622E+01 -1.00000E+00  1.60987E-01
      21    -1     0     0   502   501  0.000000000E+00  0.000000000E+00  2.576177859E+02  2.576177859E+02  0.000000000E+00  0.00000E+00  9.000E+00
       2    -1     0     0   501     0  0.000000000E+00  0.000000000E+00 -6.230941524E+02  6.230941524E+02  0.000000000E+00  0.00000E+00  9.000E+00
      25     1     1     2     0     0 -2.781763867E+01 -9.292617714E+01  1.745594683E+02  2.355952109E+02  1.250000000E+02  0.00000E+00  9.000E+00
      25     1     1     2     0     0  5.047217410E+01  8.721971888E+01 -7.109910521E+01  1.755984125E+02  1.250000000E+02  0.00000E+00  9.000E+00
       2     1     1     2   502     0 -2.265453542E+01  5.706458265E+00 -4.689367296E+02  4.695183149E+02  7.629394531E-06  0.00000E+00  9.000E+00
#rwgt            1           1   5.0819426460796055E-002           6      328794           0
</event>
<event>
      5   9999  3.79277E-02  1.62019E+02 -1.00000E+00  1.15082E-01
      21    -1     0     0   502   501  0.000000000E+00  0.000000000E+00  4.701207817E+02  4.701207817E+02  0.000000000E+00  0.00000E+00  9.000E+00
      21    -1     0     0   501   511  0.000000000E+00  0.000000000E+00 -1.717357763E+02  1.717357763E+02  0.000000000E+00  0.00000E+00  9.000E+00
      25     1     1     2     0     0 -1.650630411E+02 -2.326747608E+00  1.668153615E+02  2.659014594E+02  1.250000000E+02  0.00000E+00  9.000E+00
      25     1     1     2     0     0  1.930172295E+01 -6.841156489E+01  1.559320125E+02  2.121143353E+02  1.250000000E+02  0.00000E+00  9.000E+00
      21     1     1     2   502   511  1.457613181E+02  7.073831250E+01 -2.436236863E+01  1.638407633E+02  3.216442481E-06  0.00000E+00  9.000E+00
#rwgt            2          11   1.6600733676529499E-003           6      329238           0
</event>
<event>
      5   9999  3.79277E-02  1.06399E+02 -1.00000E+00  1.22628E-01
      21    -1     0     0   502   512  0.000000000E+00  0.000000000E+00  9.737366732E+02  9.737366732E+02  0.000000000E+00  0.00000E+00  9.000E+00
      21    -1     0     0   501   502  0.000000000E+00  0.000000000E+00 -2.589858050E+02  2.589858050E+02  0.000000000E+00  0.00000E+00  9.000E+00
      25     1     1     2     0     0 -1.150935408E+02  9.483097301E+01 -1.984145943E+02  2.779078765E+02  1.250000000E+02  0.00000E+00  9.000E+00
      25     1     1     2     0     0  6.393717751E+01 -1.537078774E+00  2.851029979E+02  3.178034687E+02  1.250000000E+02  0.00000E+00  9.000E+00
      21     1     1     2   501   512  5.115636333E+01 -9.329389424E+01  6.280624646E+02  6.370111331E+02  0.000000000E+00  0.00000E+00  9.000E+00
#rwgt            1           1   2.9221328103894065E-002           6      329288           0
</event>
<event>
      5   9999  3.79277E-02  1.53888E+01 -1.00000E+00  1.76343E-01
      21    -1     0     0   511   501  0.000000000E+00  0.000000000E+00  1.290941020E+02  1.290941020E+02  0.000000000E+00  0.00000E+00  9.000E+00
      21    -1     0     0   501   502  0.000000000E+00  0.000000000E+00 -3.534404800E+02  3.534404800E+02  0.000000000E+00  0.00000E+00  9.000E+00
      25     1     1     2     0     0 -9.082385746E+01 -1.266841359E+02 -1.581203392E+02  2.548036206E+02  1.250000000E+02  0.00000E+00  9.000E+00
      25     1     1     2     0     0  7.811777418E+01  1.353657157E+02 -6.976652344E+01  2.119401600E+02  1.250000000E+02  0.00000E+00  9.000E+00
      21     1     1     2   511   502  1.270608328E+01 -8.681579736E+00  3.540484680E+00  1.579080146E+01  1.884864366E-07  0.00000E+00  9.000E+00
#rwgt            1           1   4.2958038890972813E-002           6      329450           0
</event>
<event>
      5   9999  3.79277E-02  1.40708E+02 -1.00000E+00  1.17505E-01
      21    -1     0     0   502   512  0.000000000E+00  0.000000000E+00  5.227066430E+02  5.227066430E+02  0.000000000E+00  0.00000E+00  9.000E+00
      21    -1     0     0   501   502  0.000000000E+00  0.000000000E+00 -3.754187557E+02  3.754187557E+02  0.000000000E+00  0.00000E+00  9.000E+00
      25     1     1     2     0     0  5.180365999E+01  1.500460225E+02 -6.241783608E+01  2.114672890E+02  1.250000000E+02  0.00000E+00  9.000E+00
      25     1     1     2     0     0 -5.436308410E+01 -9.361252254E+00 -2.063326338E+02  2.474694602E+02  1.250000000E+02  0.00000E+00  9.000E+00
      21     1     1     2   501   512  2.559424115E+00 -1.406847702E+02  4.160383572E+02  4.391886495E+02  5.394796609E-06  0.00000E+00  9.000E+00
#rwgt            1           1   2.0619432926233170E-002           6      329624           0
</event>
<event>
      5   9999  3.79277E-02  1.84979E+01 -1.00000E+00  1.69216E-01
      21    -1     0     0   502   501  0.000000000E+00  0.000000000E+00  1.193136871E+03  1.193136871E+03  0.000000000E+00  0.00000E+00  9.000E+00
      21    -1     0     0   501   511  0.000000000E+00  0.000000000E+00 -2.896847040E+02  2.896847040E+02  0.000000000E+00  0.00000E+00  9.000E+00
      25     1     1     2     0     0 -2.428626869E+02 -1.125124716E+02  2.475525054E+02  3.854200097E+02  1.250000000E+02  0.00000E+00  9.000E+00
      25     1     1     2     0     0  2.507527235E+02  1.292433054E+02  8.490446064E+02  9.033728488E+02  1.250000000E+02  0.00000E+00  9.000E+00
      21     1     1     2   502   511 -7.890036594E+00 -1.673083378E+01 -1.931449443E+02  1.940287169E+02  4.672030912E-06  0.00000E+00  9.000E+00
#rwgt            1           1   5.1416471479880627E-002           6      329677           0
</event>
<event>
      5   9999  3.79277E-02  9.92095E+01 -1.00000E+00  1.23983E-01
      21    -1     0     0   502   501  0.000000000E+00  0.000000000E+00  5.788270692E+02  5.788270692E+02  0.000000000E+00  0.00000E+00  9.000E+00
      21    -1     0     0   501   512  0.000000000E+00  0.000000000E+00 -1.111023116E+02  1.111023116E+02  0.000000000E+00  0.00000E+00  9.000E+00
      25     1     1     2     0     0  1.266903683E+02 -1.434378812E+02  2.943927323E+02  3.727156504E+02  1.250000000E+02  0.00000E+00  9.000E+00
      25     1     1     2     0     0 -8.671522407E+01  5.263860992E+01  1.375663935E+02  2.117542584E+02  1.250000000E+02  0.00000E+00  9.000E+00
      21     1     1     2   502   512 -3.997514425E+01  9.079927126E+01  3.576563178E+01  1.054594720E+02  2.431401974E-06  0.00000E+00  9.000E+00
#rwgt            1           1   1.8599745107732428E-002           6      329978           0
</event>
<event>
      5   9999  3.79277E-02  3.30136E+01 -1.00000E+00  1.50207E-01
      21    -1     0     0   502   501  0.000000000E+00  0.000000000E+00  1.817761952E+02  1.817761952E+02  0.000000000E+00  0.00000E+00  9.000E+00
      21    -1     0     0   511   502  0.000000000E+00  0.000000000E+00 -2.538028524E+02  2.538028524E+02  0.000000000E+00  0.00000E+00  9.000E+00
      25     1     1     2     0     0  7.179249653E+01  7.495170002E+01 -5.067984015E+01  1.701921446E+02  1.250000000E+02  0.00000E+00  9.000E+00
      25     1     1     2     0     0 -1.006438477E+02 -9.099833932E+01  4.621898525E+01  1.901869513E+02  1.250000000E+02  0.00000E+00  9.000E+00
      21     1     1     2   511   501  2.885135121E+01  1.604663930E+01 -6.756580224E+01  7.519995168E+01  1.348699152E-06  0.00000E+00  9.000E+00
#rwgt            1           1   3.6865246322115221E-002           6      330196           0
</event>
<event>
      5   9999  3.79277E-02  9.63267E+01 -1.00000E+00  1.24563E-01
      21    -1     0     0   502   501  0.000000000E+00  0.000000000E+00  1.331121120E+02  1.331121120E+02  0.000000000E+00  0.00000E+00  9.000E+00
      21    -1     0     0   501   512  0.000000000E+00  0.000000000E+00 -6.949956817E+02  6.949956817E+02  0.000000000E+00  0.00000E+00  9.000E+00
      25     1     1     2     0     0  6.585480443E+00  3.886110674E+01 -2.565351792E+02  2.880778581E+02  1.250000000E+02  0.00000E+00  9.000E+00
      25     1     1     2     0     0 -9.030236582E+01 -8.650903856E+01  4.018292073E+01  1.813229113E+02  1.250000000E+02  0.00000E+00  9.000E+00
      21     1     1     2   502   512  8.371688537E+01  4.764793182E+01 -3.455313112E+02  3.587070244E+02  3.814697266E-06  0.00000E+00  9.000E+00
#rwgt            1           1   4.3271551132906233E-002           6      330306           0
</event>
<event>
      5   9999  3.79277E-02  8.00244E+01 -1.00000E+00  1.28343E-01
      21    -1     0     0   511   501  0.000000000E+00  0.000000000E+00  4.457355774E+02  4.457355774E+02  0.000000000E+00  0.00000E+00  9.000E+00
      21    -1     0     0   501   502  0.000000000E+00  0.000000000E+00 -8.471049974E+02  8.471049974E+02  0.000000000E+00  0.00000E+00  9.000E+00
      25     1     1     2     0     0  1.077171228E+02 -1.006602169E+02 -4.613708881E+02  5.002235043E+02  1.250000000E+02  0.00000E+00  9.000E+00
      25     1     1     2     0     0 -2.778159764E+01  9.689066502E+01 -3.446009024E+02  3.801768010E+02  1.250000000E+02  0.00000E+00  9.000E+00
      21     1     1     2   511   502 -7.993552517E+01  3.769551911E+00  4.046023704E+02  4.124402695E+02  5.394796609E-06  0.00000E+00  9.000E+00
#rwgt            1           1   3.2362740942595287E-002           6      330457           0
</event>
<event>
      5   9999  3.79277E-02  5.65495E+01 -1.00000E+00  1.36092E-01
      21    -1     0     0   502   501  0.000000000E+00  0.000000000E+00  2.013396073E+02  2.013396073E+02  0.000000000E+00  0.00000E+00  9.000E+00
      21    -1     0     0   512   502  0.000000000E+00  0.000000000E+00 -5.013008085E+02  5.013008085E+02  0.000000000E+00  0.00000E+00  9.000E+00
      25     1     1     2     0     0  1.704121231E+01  8.767333973E+01  1.482218397E+02  2.134753643E+02  1.250000000E+02  0.00000E+00  9.000E+00
      25     1     1     2     0     0 -4.293209404E+01 -3.739906130E+01 -3.479500717E+02  3.740803481E+02  1.250000000E+02  0.00000E+00  9.000E+00
      21     1     1     2   512   501  2.589088172E+01 -5.027427843E+01 -1.002329693E+02  1.150847034E+02  2.336015456E-06  0.00000E+00  9.000E+00
#rwgt            1           1   4.4561847277917718E-002           6      330555           0
</event>
<event>
      5   9999  3.79277E-02  6.46873E+01 -1.00000E+00  1.32981E-01
      21    -1     0     0   502   501  0.000000000E+00  0.000000000E+00  1.557644056E+03  1.557644056E+03  0.000000000E+00  0.00000E+00  9.000E+00
      21    -1     0     0   501   511  0.000000000E+00  0.000000000E+00 -7.302734060E+01  7.302734060E+01  0.000000000E+00  0.00000E+00  9.000E+00
      25     1     1     2     0     0 -1.678949302E+01  1.123971113E+02  7.125941581E+01  1.833518531E+02  1.250000000E+02  0.00000E+00  9.000E+00
      25     1     1     2     0     0  2.731567651E+01 -1.762222160E+02  1.287746138E+03  1.306030448E+03  1.250000000E+02  0.00000E+00  9.000E+00
      21     1     1     2   502   511 -1.052618349E+01  6.382510471E+01  1.256111616E+02  1.412890953E+02  0.000000000E+00  0.00000E+00  9.000E+00
#rwgt            2          11   3.4099531064998145E-003           6      330671           0
</event>
<event>
      5   9999  3.79277E-02  3.80326E+01 -1.00000E+00  1.46212E-01
      21    -1     0     0   502   501  0.000000000E+00  0.000000000E+00  2.000285016E+02  2.000285016E+02  0.000000000E+00  0.00000E+00  9.000E+00
      21    -1     0     0   512   502  0.000000000E+00  0.000000000E+00 -2.516592764E+02  2.516592764E+02  0.000000000E+00  0.00000E+00  9.000E+00
      25     1     1     2     0     0 -1.664844095E+02 -3.479342910E+01 -7.956428834E+01  2.255728647E+02  1.250000000E+02  0.00000E+00  9.000E+00
      25     1     1     2     0     0  1.289852098E+02  2.844625856E+01  4.002235578E+01  1.862073117E+02  1.250000000E+02  0.00000E+00  9.000E+00
      21     1     1     2   512   501  3.749919976E+01  6.347170536E+00 -1.208884226E+01  3.990760158E+01  3.371747881E-07  0.00000E+00  9.000E+00
#rwgt            1           1  0.12990380438467392                6      330706           0
</event>
<event>
      5   9999  3.79277E-02  2.52234E+01 -1.00000E+00  1.58462E-01
      21    -1     0     0   502   511  0.000000000E+00  0.000000000E+00  1.022250040E+02  1.022250040E+02  0.000000000E+00  0.00000E+00  9.000E+00
      21    -1     0     0   501   502  0.000000000E+00  0.000000000E+00 -4.799845188E+02  4.799845188E+02  0.000000000E+00  0.00000E+00  9.000E+00
      25     1     1     2     0     0 -9.816121090E+01 -2.956358918E+01 -1.326909112E+02  2.091447036E+02  1.250000000E+02  0.00000E+00  9.000E+00
      25     1     1     2     0     0  1.233089128E+02  3.151666948E+01 -2.787744046E+02  3.309660966E+02  1.250000000E+02  0.00000E+00  9.000E+00
      21     1     1     2   501   511 -2.514770193E+01 -1.953080302E+00  3.370580096E+01  4.209872270E+01  8.259061849E-07  0.00000E+00  9.000E+00
#rwgt            1           1   4.3472462007590265E-002           6      331116           0
</event>
<event>
      5   9999  3.79277E-02  2.19205E+01 -1.00000E+00  1.63149E-01
      21    -1     0     0   512   501  0.000000000E+00  0.000000000E+00  1.644545955E+03  1.644545955E+03  0.000000000E+00  0.00000E+00  9.000E+00
      21    -1     0     0   501   502  0.000000000E+00  0.000000000E+00 -3.892300607E+01  3.892300607E+01  0.000000000E+00  0.00000E+00  9.000E+00
      25     1     1     2     0     0  1.973568151E+02 -4.233125137E+01  5.469992081E+02  5.963009148E+02  1.250000000E+02  0.00000E+00  9.000E+00
      25     1     1     2     0     0 -1.815202061E+02  2.717505516E+01  8.977170502E+02  9.247750922E+02  1.250000000E+02  0.00000E+00  9.000E+00
      21     1     1     2   512   502 -1.583660893E+01  1.515619621E+01  1.609066904E+02  1.623929539E+02  1.907348633E-06  0.00000E+00  9.000E+00
#rwgt            1           1   4.8363725376737707E-002           6      331214           0
</event>
<event>
      5   9999  3.79277E-02  1.21884E+02 -1.00000E+00  1.20082E-01
      21    -1     0     0   502   501  0.000000000E+00  0.000000000E+00  2.039372735E+02  2.039372735E+02  0.000000000E+00  0.00000E+00  9.000E+00
      21    -1     0     0   511   502  0.000000000E+00  0.000000000E+00 -6.927618474E+02  6.927618474E+02  0.000000000E+00  0.00000E+00  9.000E+00
      25     1     1     2     0     0 -4.399102505E+01  2.289757766E+02 -1.380583635E+02  2.984128487E+02  1.250000000E+02  0.00000E+00  9.000E+00
      25     1     1     2     0     0 -6.503946081E+01 -2.834560011E+02 -1.223205452E+02  3.393593255E+02  1.250000000E+02  0.00000E+00  9.000E+00
      21     1     1     2   511   501  1.090304859E+02  5.448022453E+01 -2.284456652E+02  2.589269466E+02  5.394796609E-06  0.00000E+00  9.000E+00
#rwgt            1           1   3.5941920443245019E-002           6      331689           0
</event>
<event>
      5   9999  3.79277E-02  5.45675E+01 -1.00000E+00  1.36944E-01
      21    -1     0     0   502   501  0.000000000E+00  0.000000000E+00  8.009009506E+02  8.009009506E+02  0.000000000E+00  0.00000E+00  9.000E+00
      -2    -1     0     0     0   502  0.000000000E+00  0.000000000E+00 -1.128365487E+02  1.128365487E+02  0.000000000E+00  0.00000E+00  9.000E+00
      25     1     1     2     0     0  1.371321890E+02 -1.256488850E+02  4.041056307E+02  4.620814218E+02  1.250000000E+02  0.00000E+00  9.000E+00
      25     1     1     2     0     0 -9.735253859E+01  1.630010807E+02  3.153234683E+02  3.887168105E+02  1.250000000E+02  0.00000E+00  9.000E+00
      -2     1     1     2     0   501 -3.977965042E+01 -3.735219573E+01 -3.136469709E+01  6.293926705E+01  3.371747881E-07  0.00000E+00  9.000E+00
#rwgt            1           1   3.6052113626222709E-002           6      331860           0
</event>
<event>
      5   9999  3.79277E-02  5.77474E+01 -1.00000E+00  1.35598E-01
      -1    -1     0     0     0   501  0.000000000E+00  0.000000000E+00  4.447186036E+02  4.447186036E+02  0.000000000E+00  0.00000E+00  9.000E+00
      21    -1     0     0   501   502  0.000000000E+00  0.000000000E+00 -1.150078400E+02  1.150078400E+02  0.000000000E+00  0.00000E+00  9.000E+00
      25     1     1     2     0     0 -1.355044229E+02 -1.529568625E+01  6.324432876E+01  1.955000045E+02  1.250000000E+02  0.00000E+00  9.000E+00
      25     1     1     2     0     0  1.196664636E+02  7.082878068E+01  2.278837443E+02  2.947758124E+02  1.250000000E+02  0.00000E+00  9.000E+00
      -1     1     1     2     0   502  1.583795937E+01 -5.553309443E+01  3.858269062E+01  6.945062670E+01  8.259061849E-07  0.00000E+00  9.000E+00
#rwgt            1           1   4.5079624870369157E-002           6      331978           0
</event>
<event>
      5   9999  3.79277E-02  1.21725E+01 -1.00000E+00  1.86379E-01
      21    -1     0     0   502   511  0.000000000E+00  0.000000000E+00  5.226055673E+02  5.226055673E+02  0.000000000E+00  0.00000E+00  9.000E+00
      21    -1     0     0   501   502  0.000000000E+00  0.000000000E+00 -1.146016794E+02  1.146016794E+02  0.000000000E+00  0.00000E+00  9.000E+00
      25     1     1     2     0     0  7.151265877E+01 -1.708092233E+02  1.781923861E+02  2.857750472E+02  1.250000000E+02  0.00000E+00  9.000E+00
      25     1     1     2     0     0 -5.978870972E+01  1.740831199E+02  1.446006449E+02  2.653563056E+02  1.250000000E+02  0.00000E+00  9.000E+00
      21     1     1     2   501   511 -1.172394906E+01 -3.273896569E+00  8.521085694E+01  8.607589396E+01  9.536743164E-07  0.00000E+00  9.000E+00
#rwgt            1           1   3.5754692001412937E-002           6      332105           0
</event>
<event>
      5   9999 -3.79277E-02  1.45726E+02 -1.00000E+00  1.16893E-01
      21    -1     0     0   502   512  0.000000000E+00  0.000000000E+00  7.520480715E+01  7.520480715E+01  0.000000000E+00  0.00000E+00  9.000E+00
      21    -1     0     0   501   502  0.000000000E+00  0.000000000E+00 -1.682010025E+03  1.682010025E+03  0.000000000E+00  0.00000E+00  9.000E+00
      25     1     1     2     0     0 -8.726113239E+01  7.033779005E+01 -3.587329758E+02  3.960760759E+02  1.250000000E+02  0.00000E+00  9.000E+00
      25     1     1     2     0     0 -2.355469556E+01 -1.649740965E+02 -1.183591230E+03  1.201783872E+03  1.250000000E+02  0.00000E+00  9.000E+00
      21     1     1     2   501   512  1.108158279E+02  9.463630642E+01 -6.448101260E+01  1.593548845E+02  3.693564745E-06  0.00000E+00  9.000E+00
#rwgt            1           1  -5.4513444999744524E-002           6      332293           0
</event>
<event>
      5   9999  3.79277E-02  2.91396E+01 -1.00000E+00  1.53923E-01
      21    -1     0     0   502   501  0.000000000E+00  0.000000000E+00  1.369202146E+02  1.369202146E+02  0.000000000E+00  0.00000E+00  9.000E+00
      21    -1     0     0   511   502  0.000000000E+00  0.000000000E+00 -4.922731073E+02  4.922731073E+02  0.000000000E+00  0.00000E+00  9.000E+00
      25     1     1     2     0     0 -3.235550641E+01  4.674003921E+01  7.956411796E+01  1.587039978E+02  1.250000000E+02  0.00000E+00  9.000E+00
      25     1     1     2     0     0  5.181969611E+00 -3.621786672E+01 -2.369264840E+02  2.703659474E+02  1.250000000E+02  0.00000E+00  9.000E+00
      21     1     1     2   511   501  2.717353679E+01 -1.052217249E+01 -1.979905267E+02  2.001233766E+02  0.000000000E+00  0.00000E+00  9.000E+00
#rwgt            1           1   4.1585511869600647E-002           6      332410           0
</event>
<event>
      5   9999  3.79277E-02  5.44109E+01 -1.00000E+00  1.37013E-01
      21    -1     0     0   512   501  0.000000000E+00  0.000000000E+00  3.487227633E+02  3.487227633E+02  0.000000000E+00  0.00000E+00  9.000E+00
      21    -1     0     0   501   502  0.000000000E+00  0.000000000E+00 -1.644953302E+02  1.644953302E+02  0.000000000E+00  0.00000E+00  9.000E+00
      25     1     1     2     0     0 -4.517409472E+01  2.390809354E+01  2.275524396E+02  2.646080281E+02  1.250000000E+02  0.00000E+00  9.000E+00
      25     1     1     2     0     0  6.623441906E+01 -7.407794251E+01 -8.422956859E+01  1.805385279E+02  1.250000000E+02  0.00000E+00  9.000E+00
      21     1     1     2   512   502 -2.106032434E+01  5.016984898E+01  4.090456211E+01  6.807153744E+01  1.066240300E-06  0.00000E+00  9.000E+00
#rwgt            1           1   4.3880126394389589E-002           6      332572           0
</event>
<event>
      5   9999  3.79277E-02  2.94379E+01 -1.00000E+00  1.53613E-01
       2    -1     0     0   502     0  0.000000000E+00  0.000000000E+00  1.146252142E+03  1.146252142E+03  0.000000000E+00  0.00000E+00  9.000E+00
      21    -1     0     0   501   502  0.000000000E+00  0.000000000E+00 -8.703973758E+01  8.703973758E+01  0.000000000E+00  0.00000E+00  9.000E+00
      25     1     1     2     0     0 -6.990299236E+01  1.620085751E+00  2.424507100E+02  2.815961644E+02  1.250000000E+02  0.00000E+00  9.000E+00
      25     1     1     2     0     0  4.160261615E+01 -9.724259127E+00 -2.285665728E+00  1.321195033E+02  1.250000000E+02  0.00000E+00  9.000E+00
       2     1     1     2   501     0  2.830037621E+01  8.104173376E+00  8.190473604E+02  8.195762121E+02  1.525878906E-05  0.00000E+00  9.000E+00
#rwgt            1           1   4.4103061792400595E-002           6      332649           0
</event>
<event>
      5   9999  3.79277E-02  1.81082E+01 -1.00000E+00  1.70010E-01
      21    -1     0     0   502   501  0.000000000E+00  0.000000000E+00  1.231357990E+02  1.231357990E+02  0.000000000E+00  0.00000E+00  9.000E+00
      21    -1     0     0   501   511  0.000000000E+00  0.000000000E+00 -4.008983972E+02  4.008983972E+02  0.000000000E+00  0.00000E+00  9.000E+00
      25     1     1     2     0     0  1.010455152E+02 -4.590336676E+01  1.499369158E+01  1.678306468E+02  1.250000000E+02  0.00000E+00  9.000E+00
      25     1     1     2     0     0 -1.102319096E+02  3.029828902E+01 -2.018438341E+02  2.635052060E+02  1.250000000E+02  0.00000E+00  9.000E+00
      21     1     1     2   502   511  9.186394424E+00  1.560507774E+01 -9.091245565E+01  9.269834349E+01  0.000000000E+00  0.00000E+00  9.000E+00
#rwgt            1           1   3.5280006518161114E-002           6      332808           0
</event>
<event>
      5   9999  3.79277E-02  1.49887E+01 -1.00000E+00  1.77414E-01
      21    -1     0     0   502   512  0.000000000E+00  0.000000000E+00  7.088587736E+01  7.088587736E+01  0.000000000E+00  0.00000E+00  9.000E+00
      21    -1     0     0   501   502  0.000000000E+00  0.000000000E+00 -7.140044468E+02  7.140044468E+02  0.000000000E+00  0.00000E+00  9.000E+00
      25     1     1     2     0     0 -1.056077908E+02  2.674993599E+00 -5.695937184E+02  5.926399962E+02  1.250000000E+02  0.00000E+00  9.000E+00
      25     1     1     2     0     0  9.311102468E+01  5.601082503E+00 -8.072656184E+01  1.756212198E+02  1.250000000E+02  0.00000E+00  9.000E+00
      21     1     1     2   501   512  1.249676610E+01 -8.276076102E+00  7.201710846E+00  1.662910815E+01  2.528810911E-07  0.00000E+00  9.000E+00
#rwgt            1           1   4.1859289116537211E-002           6      332998           0
</event>
<event>
      5   9999  3.79277E-02  3.39008E+01 -1.00000E+00  1.49442E-01
      21    -1     0     0   502   501  0.000000000E+00  0.000000000E+00  1.045478738E+03  1.045478738E+03  0.000000000E+00  0.00000E+00  9.000E+00
      21    -1     0     0   511   502  0.000000000E+00  0.000000000E+00 -4.860615641E+01  4.860615641E+01  0.000000000E+00  0.00000E+00  9.000E+00
      25     1     1     2     0     0 -1.764671043E+02 -3.537776168E+01  5.759829036E+02  6.162576817E+02  1.250000000E+02  0.00000E+00  9.000E+00
      25     1     1     2     0     0  1.430482779E+02  2.968157253E+01  3.607966834E+02  4.088313250E+02  1.250000000E+02  0.00000E+00  9.000E+00
      21     1     1     2   511   501  3.341882645E+01  5.696189151E+00  6.009299466E+01  6.899588784E+01  9.536743164E-07  0.00000E+00  9.000E+00
#rwgt            1           1   3.8321467690437365E-002           6      333437           0
</event>
<event>
      5   9999  3.79277E-02  6.64943E+01 -1.00000E+00  1.32361E-01
      21    -1     0     0   502   512  0.000000000E+00  0.000000000E+00  1.454484240E+02  1.454484240E+02  0.000000000E+00  0.00000E+00  9.000E+00
      21    -1     0     0   501   502  0.000000000E+00  0.000000000E+00 -3.474293583E+02  3.474293583E+02  0.000000000E+00  0.00000E+00  9.000E+00
      25     1     1     2     0     0  8.523571452E+01 -3.588949971E+01 -1.804262487E+02  2.381844127E+02  1.250000000E+02  0.00000E+00  9.000E+00
      25     1     1     2     0     0 -1.371059935E+02 -5.715375552E+00 -2.865419879E+01  1.878211438E+02  1.250000000E+02  0.00000E+00  9.000E+00
      21     1     1     2   501   512  5.187027897E+01  4.160487526E+01  7.099513199E+00  6.687222572E+01  6.848052319E-07  0.00000E+00  9.000E+00
#rwgt            1           1   4.1455416936598891E-002           6      333536           0
</event>
<event>
      5   9999  3.79277E-02  6.58922E+01 -1.00000E+00  1.32565E-01
      21    -1     0     0   502   501  0.000000000E+00  0.000000000E+00  7.689161247E+02  7.689161247E+02  0.000000000E+00  0.00000E+00  9.000E+00
      21    -1     0     0   501   511  0.000000000E+00  0.000000000E+00 -5.167702239E+02  5.167702239E+02  0.000000000E+00  0.00000E+00  9.000E+00
      25     1     1     2     0     0 -6.811256640E+01 -1.907615271E+02  3.198377469E+02  3.986859243E+02  1.250000000E+02  0.00000E+00  9.000E+00
      25     1     1     2     0     0  5.414463869E+01  2.551561890E+02  3.557304994E+02  4.584817454E+02  1.250000000E+02  0.00000E+00  9.000E+00
      21     1     1     2   502   511  1.396792771E+01 -6.439466191E+01 -4.234223454E+02  4.285186788E+02  0.000000000E+00  0.00000E+00  9.000E+00
#rwgt            1           1   3.6609288312174693E-002           6      333612           0
</event>
<event>
      5   9999 -3.79277E-02  2.44304E+01 -1.00000E+00  1.59504E-01
      21    -1     0     0   502   501  0.000000000E+00  0.000000000E+00  7.553564341E+01  7.553564341E+01  0.000000000E+00  0.00000E+00  9.000E+00
      21    -1     0     0   501   512  0.000000000E+00  0.000000000E+00 -8.732015066E+02  8.732015066E+02  0.000000000E+00  0.00000E+00  9.000E+00
      25     1     1     2     0     0 -8.512745761E+01 -1.413198996E+02 -4.172269740E+02  4.657481571E+02  1.250000000E+02  0.00000E+00  9.000E+00
      25     1     1     2     0     0  1.063473704E+02  1.292136987E+02 -1.650493749E+02  2.662184052E+02  1.250000000E+02  0.00000E+00  9.000E+00
      21     1     1     2   502   512 -2.121991278E+01  1.210620082E+01 -2.153895143E+02  2.167705876E+02  2.697398305E-06  0.00000E+00  9.000E+00
#rwgt            1           1 -0.15626719577752801                6      333694           0
</event>
<event>
      5   9999  3.79277E-02  1.27360E+01 -1.00000E+00  1.84350E-01
      21    -1     0     0   502   501  0.000000000E+00  0.000000000E+00  2.833387078E+02  2.833387078E+02  0.000000000E+00  0.00000E+00  9.000E+00
      21    -1     0     0   511   502  0.000000000E+00  0.000000000E+00 -1.577019098E+02  1.577019098E+02  0.000000000E+00  0.00000E+00  9.000E+00
      25     1     1     2     0     0 -1.084185451E+02  9.623676778E+01  5.637137614E+00  1.915016285E+02  1.250000000E+02  0.00000E+00  9.000E+00
      25     1     1     2     0     0  1.209144689E+02 -9.869780996E+01  1.250396232E+02  2.358420528E+02  1.250000000E+02  0.00000E+00  9.000E+00
      21     1     1     2   511   501 -1.249592371E+01  2.461042183E+00 -5.039962909E+00  1.369693630E+01  1.192092896E-07  0.00000E+00  9.000E+00
#rwgt            1           1   4.0401946420648725E-002           6      333826           0
</event>
<event>
      5   9999  3.79277E-02  2.95841E+02 -1.00000E+00  1.05789E-01
      21    -1     0     0   512   501  0.000000000E+00  0.000000000E+00  2.962724628E+02  2.962724628E+02  0.000000000E+00  0.00000E+00  9.000E+00
      21    -1     0     0   501   502  0.000000000E+00  0.000000000E+00 -6.058691633E+02  6.058691633E+02  0.000000000E+00  0.00000E+00  9.000E+00
      25     1     1     2     0     0 -1.646287028E+02  8.520603657E+01 -2.632740023E+02  3.453995929E+02  1.250000000E+02  0.00000E+00  9.000E+00
      25     1     1     2     0     0 -1.220682648E+02 -1.581905936E+02  5.856541361E+01  2.428576391E+02  1.250000000E+02  0.00000E+00  9.000E+00
      21     1     1     2   512   502  2.866969677E+02  7.298455708E+01 -1.048881118E+02  3.138843941E+02  4.862803949E-06  0.00000E+00  9.000E+00
#rwgt            2          11   1.1403147214975029E-003           6      334078           0
</event>
<event>
      5   9999 -3.79277E-02  5.11823E+01 -1.00000E+00  1.38499E-01
      21    -1     0     0   502   501  0.000000000E+00  0.000000000E+00  6.913911106E+02  6.913911106E+02  0.000000000E+00  0.00000E+00  9.000E+00
      21    -1     0     0   511   502  0.000000000E+00  0.000000000E+00 -3.733055204E+02  3.733055204E+02  0.000000000E+00  0.00000E+00  9.000E+00
      25     1     1     2     0     0  1.432727292E+02 -1.340801092E+02  2.673799380E+02  3.544313500E+02  1.250000000E+02  0.00000E+00  9.000E+00
      25     1     1     2     0     0 -1.361397609E+02  8.339729248E+01  3.511524783E+02  4.054900811E+02  1.250000000E+02  0.00000E+00  9.000E+00
      21     1     1     2   511   501 -7.132968216E+00  5.068281668E+01 -3.004468261E+02  3.047751999E+02  0.000000000E+00  0.00000E+00  9.000E+00
#rwgt            1           1 -0.17256219510648221                6      334203           0
</event>
<event>
      5   9999  3.79277E-02  8.94148E+01 -1.00000E+00  1.26054E-01
      21    -1     0     0   502   501  0.000000000E+00  0.000000000E+00  1.058373275E+03  1.058373275E+03  0.000000000E+00  0.00000E+00  9.000E+00
      21    -1     0     0   512   502  0.000000000E+00  0.000000000E+00 -5.192839738E+01  5.192839738E+01  0.000000000E+00  0.00000E+00  9.000E+00
      25     1     1     2     0     0 -5.690156450E+01 -7.538736989E+01  2.363111286E+02  2.835295277E+02  1.250000000E+02  0.00000E+00  9.000E+00
      25     1     1     2     0     0 -2.413617019E+01  1.131748454E+02  6.752166108E+02  6.963717196E+02  1.250000000E+02  0.00000E+00  9.000E+00
      21     1     1     2   512   501  8.103773469E+01 -3.778747546E+01  9.491713830E+01  1.304004252E+02  3.015782986E-06  0.00000E+00  9.000E+00
#rwgt            1           1   4.8399138501454823E-002           6      334356           0
</event>
<event>
      5   9999 -3.79277E-02  9.81023E+00 -1.00000E+00  1.96724E-01
      21    -1     0     0   511   501  0.000000000E+00  0.000000000E+00  9.981272701E+01  9.981272701E+01  0.000000000E+00  0.00000E+00  9.000E+00
      21    -1     0     0   501   502  0.000000000E+00  0.000000000E+00 -3.918611724E+02  3.918611724E+02  0.000000000E+00  0.00000E+00  9.000E+00
      25     1     1     2     0     0  7.327899005E+01  1.143257878E+02 -2.027008647E+02  2.741401771E+02  1.250000000E+02  0.00000E+00  9.000E+00
      25     1     1     2     0     0 -8.308485978E+01 -1.140333242E+02 -8.572521836E+01  2.070760875E+02  1.250000000E+02  0.00000E+00  9.000E+00
      21     1     1     2   511   502  9.805869732E+00 -2.924635993E-01 -3.622362284E+00  1.045763476E+01  2.021291847E-07  0.00000E+00  9.000E+00
#rwgt            1           1 -0.12196287334232006                6      334457           0
</event>
<event>
      5   9999  3.79277E-02  2.11339E+02 -1.00000E+00  1.10783E-01
       2    -1     0     0   502     0  0.000000000E+00  0.000000000E+00  1.005219323E+03  1.005219323E+03  0.000000000E+00  0.00000E+00  9.000E+00
      21    -1     0     0   501   502  0.000000000E+00  0.000000000E+00 -2.024585197E+02  2.024585197E+02  0.000000000E+00  0.00000E+00  9.000E+00
      25     1     1     2     0     0  6.899004919E+01  7.540249362E+01  3.423901704E+01  1.650529407E+02  1.250000000E+02  0.00000E+00  9.000E+00
      25     1     1     2     0     0 -2.604305289E+02 -1.649269662E+02  1.089606804E+02  3.500319906E+02  1.250000000E+02  0.00000E+00  9.000E+00
       2     1     1     2   501     0  1.914404797E+02  8.952447262E+01  6.595611056E+02  6.925929111E+02  1.078959322E-05  0.00000E+00  9.000E+00
#rwgt            1           1   3.8113042924194970E-002           6      334805           0
</event>
<event>
      5   9999  3.79277E-02  9.74894E+01 -1.00000E+00  1.24327E-01
       2    -1     0     0   502     0  0.000000000E+00  0.000000000E+00  2.559860943E+03  2.559860943E+03  0.000000000E+00  0.00000E+00  9.000E+00
      21    -1     0     0   501   502  0.000000000E+00  0.000000000E+00 -4.859259305E+01  4.859259305E+01  0.000000000E+00  0.00000E+00  9.000E+00
      25     1     1     2     0     0  2.422734699E+02 -3.227406667E+01  1.120335683E+03  1.153479559E+03  1.250000000E+02  0.00000E+00  9.000E+00
      25     1     1     2     0     0 -1.454778377E+02  2.066383929E+01  2.814609335E+02  3.412272741E+02  1.250000000E+02  0.00000E+00  9.000E+00
       2     1     1     2   501     0 -9.679563224E+01  1.161022738E+01  1.109471734E+03  1.113746703E+03  1.525878906E-05  0.00000E+00  9.000E+00
#rwgt            1           1   5.9185078919678058E-002           6      334883           0
</event>
<event>
      5   9999  3.79277E-02  6.08737E+01 -1.00000E+00  1.34369E-01
      21    -1     0     0   502   501  0.000000000E+00  0.000000000E+00  7.883966579E+01  7.883966579E+01  0.000000000E+00  0.00000E+00  9.000E+00
      21    -1     0     0   501   511  0.000000000E+00  0.000000000E+00 -4.803524527E+02  4.803524527E+02  0.000000000E+00  0.00000E+00  9.000E+00
      25     1     1     2     0     0  4.421531503E+01 -3.238539679E+01 -6.572952326E+01  1.514898618E+02  1.250000000E+02  0.00000E+00  9.000E+00
      25     1     1     2     0     0 -1.013964871E+02  5.326409058E+01 -2.616949656E+02  3.118133511E+02  1.250000000E+02  0.00000E+00  9.000E+00
      21     1     1     2   502   511  5.718117205E+01 -2.087869379E+01 -7.408829802E+01  9.588890548E+01  0.000000000E+00  0.00000E+00  9.000E+00
#rwgt            1           1   3.2585657728789887E-002           6      335023           0
</event>
<event>
      5   9999  3.79277E-02  9.12591E+01 -1.00000E+00  1.25641E-01
      21    -1     0     0   502   512  0.000000000E+00  0.000000000E+00  2.343410139E+02  2.343410139E+02  0.000000000E+00  0.00000E+00  9.000E+00
      21    -1     0     0   501   502  0.000000000E+00  0.000000000E+00 -3.927983261E+02  3.927983261E+02  0.000000000E+00  0.00000E+00  9.000E+00
      25     1     1     2     0     0  1.915304691E+02  1.054472345E+02 -1.049505044E+01  2.520678201E+02  1.250000000E+02  0.00000E+00  9.000E+00
      25     1     1     2     0     0 -1.749948920E+02 -1.569872869E+01 -1.773565960E+02  2.791953159E+02  1.250000000E+02  0.00000E+00  9.000E+00
      21     1     1     2   501   512 -1.653557715E+01 -8.974850577E+01  2.939433425E+01  9.587620396E+01  1.066240300E-06  0.00000E+00  9.000E+00
#rwgt            1           1   3.5940499594591349E-002           6      335181           0
</event>
<event>
      5   9999  5.02808E-02  1.13699E+01 -1.00000E+00  1.89525E-01
      21    -1     0     0   502   501  0.000000000E+00  0.000000000E+00  2.861206349E+02  2.861206349E+02  0.000000000E+00  0.00000E+00  9.000E+00
      21    -1     0     0   501   511  0.000000000E+00  0.000000000E+00 -3.326357625E+02  3.326357625E+02  0.000000000E+00  0.00000E+00  9.000E+00
      25     1     1     2     0     0  1.165780699E+02  2.172960468E+02 -2.763656808E+01  2.778431181E+02  1.250000000E+02  0.00000E+00  9.000E+00
      25     1     1     2     0     0 -1.055737819E+02 -2.144358901E+02  4.723136581E+01  2.738327524E+02  1.250000000E+02  0.00000E+00  9.000E+00
      21     1     1     2   502   511 -1.100428808E+01 -2.860156699E+00 -6.610992535E+01  6.708052685E+01  1.348699152E-06  0.00000E+00  9.000E+00
#rwgt            1           1  0.39989480022734869                6      335343           0
</event>
<event>
      5   9999 -3.79277E-02  7.10776E+01 -1.00000E+00  1.30886E-01
      21    -1     0     0   502   512  0.000000000E+00  0.000000000E+00  9.849602803E+02  9.849602803E+02  0.000000000E+00  0.00000E+00  9.000E+00
      21    -1     0     0   501   502  0.000000000E+00  0.000000000E+00 -1.028180850E+02  1.028180850E+02  0.000000000E+00  0.00000E+00  9.000E+00
      25     1     1     2     0     0  5.847895101E+01 -7.256042321E+01  1.321175768E+00  1.559216093E+02  1.250000000E+02  0.00000E+00  9.000E+00
      25     1     1     2     0     0 -1.114869189E+02  2.520870371E+01  2.829343327E+02  3.297599861E+02  1.250000000E+02  0.00000E+00  9.000E+00
      21     1     1     2   501   512  5.300796785E+01  4.735171950E+01  5.978866869E+02  6.020967699E+02  1.078959322E-05  0.00000E+00  9.000E+00
#rwgt            1           1  -8.5691456072719371E-002           6      335856           0
</event>
<event>
      5   9999  3.79277E-02  1.56462E+02 -1.00000E+00  1.15672E-01
      21    -1     0     0   502   501  0.000000000E+00  0.000000000E+00  1.996680025E+02  1.996680025E+02  0.000000000E+00  0.00000E+00  9.000E+00
      21    -1     0     0   511   502  0.000000000E+00  0.000000000E+00 -4.722070016E+02  4.722070016E+02  0.000000000E+00  0.00000E+00  9.000E+00
      25     1     1     2     0     0 -1.709342734E+02  7.792885307E+01 -5.070789479E+01  2.312741286E+02  1.250000000E+02  0.00000E+00  9.000E+00
      25     1     1     2     0     0  5.141292159E+01 -1.788998148E+02 -1.296724707E+02  2.590142504E+02  1.250000000E+02  0.00000E+00  9.000E+00
      21     1     1     2   511   501  1.195213518E+02  1.009709617E+02 -9.215863363E+01  1.815866251E+02  3.303624740E-06  0.00000E+00  9.000E+00
#rwgt            1           1   3.4328526996390343E-002           6      335922           0
</event>
<event>
      5   9999  3.79277E-02  5.83677E+01 -1.00000E+00  1.35347E-01
      21    -1     0     0   502   501  0.000000000E+00  0.000000000E+00  4.747674591E+02  4.747674591E+02  0.000000000E+00  0.00000E+00  9.000E+00
      21    -1     0     0   512   502  0.000000000E+00  0.000000000E+00 -1.541501585E+02  1.541501585E+02  0.000000000E+00  0.00000E+00  9.000E+00
      25     1     1     2     0     0  7.046390613E+01 -1.187515504E+02 -4.448092245E+01  1.914958100E+02  1.250000000E+02  0.00000E+00  9.000E+00
      25     1     1     2     0     0 -8.100186167E+01  6.134302648E+01  3.350738356E+02  3.717845394E+02  1.250000000E+02  0.00000E+00  9.000E+00
      21     1     1     2   512   501  1.053795554E+01  5.740852393E+01  3.002438746E+01  6.563726814E+01  7.539457465E-07  0.00000E+00  9.000E+00
#rwgt            1           1   4.5004845585687743E-002           6      335968           0
</event>
<event>
      5   9999  3.79277E-02  1.01467E+02 -1.00000E+00  1.23544E-01
       2    -1     0     0   502     0  0.000000000E+00  0.000000000E+00  7.420083770E+02  7.420083770E+02  0.000000000E+00  0.00000E+00  9.000E+00
      21    -1     0     0   501   502  0.000000000E+00  0.000000000E+00 -4.346390353E+02  4.346390353E+02  0.000000000E+00  0.00000E+00  9.000E+00
      25     1     1     2     0     0  1.343907055E+02  2.171574084E+02 -2.193170047E+02  3.590865499E+02  1.250000000E+02  0.00000E+00  9.000E+00
      25     1     1     2     0     0 -5.379063391E+01 -2.787951119E+02  3.120807857E+01  3.117997608E+02  1.250000000E+02  0.00000E+00  9.000E+00
       2     1     1     2   501     0 -8.060007156E+01  6.163770347E+01  4.954782678E+02  5.057611016E+02  0.000000000E+00  0.00000E+00  9.000E+00
#rwgt            1           1   3.9217847182360793E-002           6      336059           0
</event>
<event>
      5   9999  3.79277E-02  6.17985E+00 -1.00000E+00  2.23498E-01
      21    -1     0     0   511   501  0.000000000E+00  0.000000000E+00  1.289173067E+03  1.289173067E+03  0.000000000E+00  0.00000E+00  9.000E+00
      21    -1     0     0   501   502  0.000000000E+00  0.000000000E+00 -3.642314608E+01  3.642314608E+01  0.000000000E+00  0.00000E+00  9.000E+00
      25     1     1     2     0     0 -3.437428361E+01 -9.305635723E+01  8.914164964E+02  9.055879014E+02  1.250000000E+02  0.00000E+00  9.000E+00
      25     1     1     2     0     0  3.316071187E+01  9.911587619E+01  1.974053383E+02  2.559637812E+02  1.250000000E+02  0.00000E+00  9.000E+00
      21     1     1     2   511   502  1.213571737E+00 -6.059518963E+00  1.639280862E+02  1.640445305E+02  1.907348633E-06  0.00000E+00  9.000E+00
#rwgt            1           1   4.8581184500699925E-002           6      336134           0
</event>
<event>
      5   9999  3.79277E-02  7.03004E+01 -1.00000E+00  1.31127E-01
      21    -1     0     0   512   501  0.000000000E+00  0.000000000E+00  1.989424093E+02  1.989424093E+02  0.000000000E+00  0.00000E+00  9.000E+00
      21    -1     0     0   501   502  0.000000000E+00  0.000000000E+00 -3.560628192E+02  3.560628192E+02  0.000000000E+00  0.00000E+00  9.000E+00
      25     1     1     2     0     0  1.485026262E+02  6.435060997E+01 -7.631827090E+01  2.182739322E+02  1.250000000E+02  0.00000E+00  9.000E+00
      25     1     1     2     0     0 -1.942140034E+02 -1.094078658E+01 -1.153532290E+02  2.583992016E+02  1.250000000E+02  0.00000E+00  9.000E+00
      21     1     1     2   512   502  4.571137725E+01 -5.340982338E+01  3.455108997E+01  7.833209472E+01  1.430511475E-06  0.00000E+00  9.000E+00
#rwgt            1           1   3.0522080350954672E-002           6      336675           0
</event>
<event>
      5   9999  3.79277E-02  8.25460E+00 -1.00000E+00  2.05907E-01
      21    -1     0     0   511   501  0.000000000E+00  0.000000000E+00  7.172686479E+02  7.172686479E+02  0.000000000E+00  0.00000E+00  9.000E+00
      21    -1     0     0   501   502  0.000000000E+00  0.000000000E+00 -8.455899853E+01  8.455899853E+01  0.000000000E+00  0.00000E+00  9.000E+00
      25     1     1     2     0     0  2.278078554E+00  1.309035889E+02  4.600488643E+01  1.867682757E+02  1.250000000E+02  0.00000E+00  9.000E+00
      25     1     1     2     0     0 -2.862765562E+00 -1.226697184E+02  5.420592619E+02  5.696571764E+02  1.250000000E+02  0.00000E+00  9.000E+00
      21     1     1     2   511   502  5.846870077E-01 -8.233870542E+00  4.464550109E+01  4.540219434E+01  0.000000000E+00  0.00000E+00  9.000E+00
#rwgt            1           1   4.2454890426037062E-002           6      336789           0
</event>
<event>
      5   9999  3.79277E-02  1.31989E+01 -1.00000E+00  1.82782E-01
      21    -1     0     0   502   501  0.000000000E+00  0.000000000E+00  1.677747163E+02  1.677747163E+02  0.000000000E+00  0.00000E+00  9.000E+00
      21    -1     0     0   501   512  0.000000000E+00  0.000000000E+00 -7.431844909E+02  7.431844909E+02  0.000000000E+00  0.00000E+00  9.000E+00
      25     1     1     2     0     0  1.331734606E+02 -1.733064351E+02  2.635539417E+01  2.531598267E+02  1.250000000E+02  0.00000E+00  9.000E+00
      25     1     1     2     0     0 -1.241116820E+02  1.637098022E+02 -4.960876625E+02  5.513008052E+02  1.250000000E+02  0.00000E+00  9.000E+00
      21     1     1     2   502   512 -9.061778584E+00  9.596632949E+00 -1.056775063E+02  1.064985752E+02  1.907348633E-06  0.00000E+00  9.000E+00
#rwgt            1           1   4.9780636238802842E-002           6      337243           0
</event>
<event>
      5   9999  3.79277E-02  6.97206E+01 -1.00000E+00  1.31309E-01
      21    -1     0     0   511   501  0.000000000E+00  0.000000000E+00  8.633913145E+01  8.633913145E+01  0.000000000E+00  0.00000E+00  9.000E+00
      21    -1     0     0   501   502  0.000000000E+00  0.000000000E+00 -1.760028595E+03  1.760028595E+03  0.000000000E+00  0.00000E+00  9.000E+00
      25     1     1     2     0     0 -2.272275678E+02 -3.139301824E+01 -3.310662094E+02  4.217199594E+02  1.250000000E+02  0.00000E+00  9.000E+00
      25     1     1     2     0     0  1.575089918E+02  3.085864711E+01 -1.339496679E+03  1.354857074E+03  1.250000000E+02  0.00000E+00  9.000E+00
      21     1     1     2   511   502  6.971857602E+01  5.343711252E-01 -3.126575671E+00  6.979069329E+01  2.015130699E-06  0.00000E+00  9.000E+00
#rwgt            1           1   5.3004355599873584E-002           6      337558           0
</event>
<event>
      5   9999  3.79277E-02  5.01435E+01 -1.00000E+00  1.39005E-01
      21    -1     0     0   502   501  0.000000000E+00  0.000000000E+00  3.743602325E+01  3.743602325E+01  0.000000000E+00  0.00000E+00  9.000E+00
      21    -1     0     0   512   502  0.000000000E+00  0.000000000E+00 -1.908364065E+03  1.908364065E+03  0.000000000E+00  0.00000E+00  9.000E+00
      25     1     1     2     0     0  9.217964090E+01  9.113915343E+01 -2.405999449E+02  3.005274779E+02  1.250000000E+02  0.00000E+00  9.000E+00
      25     1     1     2     0     0 -4.470243157E+01 -1.072724431E+02 -1.215349089E+03  1.227275068E+03  1.250000000E+02  0.00000E+00  9.000E+00
      21     1     1     2   512   501 -4.747720934E+01  1.613328970E+01 -4.149790080E+02  4.179975425E+02  1.078959322E-05  0.00000E+00  9.000E+00
#rwgt            1           1   1.4913127659637447E-002           6      337756           0
</event>
<event>
      5   9999  3.79277E-02  7.94936E+01 -1.00000E+00  1.28483E-01
      21    -1     0     0   502   511  0.000000000E+00  0.000000000E+00  3.074124940E+02  3.074124940E+02  0.000000000E+00  0.00000E+00  9.000E+00
      21    -1     0     0   501   502  0.000000000E+00  0.000000000E+00 -2.475979171E+02  2.475979171E+02  0.000000000E+00  0.00000E+00  9.000E+00
      25     1     1     2     0     0 -5.834266098E+01  4.236381636E+01 -1.589177220E+02  2.146588023E+02  1.250000000E+02  0.00000E+00  9.000E+00
      25     1     1     2     0     0  1.254263464E+02  2.859717800E-01  1.214709886E+02  2.147371678E+02  1.250000000E+02  0.00000E+00  9.000E+00
      21     1     1     2   501   511 -6.708368544E+01 -4.264978814E+01  9.726131042E+01  1.256144410E+02  1.907348633E-06  0.00000E+00  9.000E+00
#rwgt            1           1   3.5865867976321922E-002           6      337825           0
</event>
<event>
      5   9999  3.79277E-02  1.58018E+02 -1.00000E+00  1.15504E-01
      21    -1     0     0   502   512  0.000000000E+00  0.000000000E+00  4.918889776E+02  4.918889776E+02  0.000000000E+00  0.00000E+00  9.000E+00
      21    -1     0     0   501   502  0.000000000E+00  0.000000000E+00 -3.210905417E+02  3.210905417E+02  0.000000000E+00  0.00000E+00  9.000E+00
      25     1     1     2     0     0 -5.873642306E+01 -2.371945206E+02 -1.989127305E+01  2.751942419E+02  1.250000000E+02  0.00000E+00  9.000E+00
      25     1     1     2     0     0  2.031814704E+01  8.391802059E+01 -1.170925064E+02  1.918090622E+02  1.250000000E+02  0.00000E+00  9.000E+00
      21     1     1     2   501   512  3.841827601E+01  1.532765001E+02  3.077822154E+02  3.459762152E+02  3.814697266E-06  0.00000E+00  9.000E+00
#rwgt            1           1   4.0472016192437885E-002           6      337967           0
</event>
<event>
      5   9999  3.79277E-02  3.17107E+01 -1.00000E+00  1.51386E-01
      21    -1     0     0   502   501  0.000000000E+00  0.000000000E+00  9.732191878E+01  9.732191878E+01  0.000000000E+00  0.00000E+00  9.000E+00
      21    -1     0     0   511   502  0.000000000E+00  0.000000000E+00 -4.379828446E+02  4.379828446E+02  0.000000000E+00  0.00000E+00  9.000E+00
      25     1     1     2     0     0  1.314179570E+02 -2.779007317E+01 -8.904888235E+01  2.039550711E+02  1.250000000E+02  0.00000E+00  9.000E+00
      25     1     1     2     0     0 -1.335216751E+02 -3.850809898E+00 -2.247270782E+02  2.897759930E+02  1.250000000E+02  0.00000E+00  9.000E+00
      21     1     1     2   511   501  2.103718121E+00  3.164088306E+01 -2.688496524E+01  4.157369922E+01  6.743495762E-07  0.00000E+00  9.000E+00
#rwgt            1           1   4.7959996007078891E-002           6      337997           0
</event>
<event>
      5   9999  3.79277E-02  1.47998E+01 -1.00000E+00  1.77935E-01
      21    -1     0     0   502   501  0.000000000E+00  0.000000000E+00  6.385601798E+01  6.385601798E+01  0.000000000E+00  0.00000E+00  9.000E+00
      21    -1     0     0   501   512  0.000000000E+00  0.000000000E+00 -8.292610067E+02  8.292610067E+02  0.000000000E+00  0.00000E+00  9.000E+00
      25     1     1     2     0     0  1.021675564E+02  1.077612817E+02 -4.706599526E+02  5.091134396E+02  1.250000000E+02  0.00000E+00  9.000E+00
      25     1     1     2     0     0 -1.163452455E+02 -1.035155996E+02 -1.816702962E+02  2.699644274E+02  1.250000000E+02  0.00000E+00  9.000E+00
      21     1     1     2   502   512  1.417768916E+01 -4.245682146E+00 -1.130747399E+02  1.140391577E+02  1.907348633E-06  0.00000E+00  9.000E+00
#rwgt            1           1   1.3718402069767540E-002           6      338114           0
</event>
<event>
      5   9999  3.79277E-02  1.12545E+02 -1.00000E+00  1.21563E-01
       1    -1     0     0   502     0  0.000000000E+00  0.000000000E+00  1.589224469E+03  1.589224469E+03  0.000000000E+00  0.00000E+00  9.000E+00
      21    -1     0     0   501   502  0.000000000E+00  0.000000000E+00 -5.255697190E+02  5.255697190E+02  0.000000000E+00  0.00000E+00  9.000E+00
      25     1     1     2     0     0  1.737203472E+02 -2.129263333E+01 -2.127749255E+02  3.025397564E+02  1.250000000E+02  0.00000E+00  9.000E+00
      25     1     1     2     0     0 -1.430703035E+02  1.295836641E+02 -2.160501821E+02  3.155371911E+02  1.250000000E+02  0.00000E+00  9.000E+00
       1     1     1     2   501     0 -3.065004371E+01 -1.082910308E+02  1.492479858E+03  1.496717240E+03  2.157918644E-05  0.00000E+00  9.000E+00
#rwgt            1           1   3.8177441032485479E-002           6      338456           0
</event>
<event>
      5   9999  3.79277E-02  8.58313E+01 -1.00000E+00  1.26888E-01
      21    -1     0     0   511   501  0.000000000E+00  0.000000000E+00  3.291787942E+02  3.291787942E+02  0.000000000E+00  0.00000E+00  9.000E+00
      21    -1     0     0   501   502  0.000000000E+00  0.000000000E+00 -2.178461056E+02  2.178461056E+02  0.000000000E+00  0.00000E+00  9.000E+00
      25     1     1     2     0     0  1.099176450E+02  8.008347210E+01  1.118180803E+02  2.159248347E+02  1.250000000E+02  0.00000E+00  9.000E+00
      25     1     1     2     0     0 -5.002286063E+01 -1.860482892E+01 -1.217904050E+02  1.825002164E+02  1.250000000E+02  0.00000E+00  9.000E+00
      21     1     1     2   511   502 -5.989478436E+01 -6.147864318E+01  1.213050134E+02  1.485998487E+02  1.348699152E-06  0.00000E+00  9.000E+00
#rwgt            1           1   2.4647622859117709E-002           6      338505           0
</event>
<event>
      5   9999  3.79277E-02  9.16476E+01 -1.00000E+00  1.25556E-01
      21    -1     0     0   502   512  0.000000000E+00  0.000000000E+00  5.016188620E+02  5.016188620E+02  0.000000000E+00  0.00000E+00  9.000E+00
      21    -1     0     0   501   502  0.000000000E+00  0.000000000E+00 -9.463897111E+01  9.463897111E+01  0.000000000E+00  0.00000E+00  9.000E+00
      25     1     1     2     0     0 -4.978232598E+01 -8.921469232E+01  5.726223443E+01  1.712936216E+02  1.250000000E+02  0.00000E+00  9.000E+00
      25     1     1     2     0     0 -1.223992875E+01  2.174225478E+01  1.101518823E+02  1.684665506E+02  1.250000000E+02  0.00000E+00  9.000E+00
      21     1     1     2   501   512  6.202225473E+01  6.747243754E+01  2.395657741E+02  2.564976609E+02  3.814697266E-06  0.00000E+00  9.000E+00
#rwgt            1           1   3.4962872596531740E-002           6      338589           0
</event>
<event>
      5   9999  3.79277E-02  3.65463E+01 -1.00000E+00  1.47315E-01
       2    -1     0     0   502     0  0.000000000E+00  0.000000000E+00  7.060003054E+02  7.060003054E+02  0.000000000E+00  0.00000E+00  9.000E+00
      21    -1     0     0   501   502  0.000000000E+00  0.000000000E+00 -3.477145145E+02  3.477145145E+02  0.000000000E+00  0.00000E+00  9.000E+00
      25     1     1     2     0     0  1.816299271E+02  1.126699175E+02  1.458653388E+02  2.873771699E+02  1.250000000E+02  0.00000E+00  9.000E+00
      25     1     1     2     0     0 -1.452523115E+02 -1.161768580E+02 -2.307510241E+02  3.216618278E+02  1.250000000E+02  0.00000E+00  9.000E+00
       2     1     1     2   501     0 -3.637761557E+01  3.506940480E+00  4.431714761E+02  4.446758222E+02  9.344061824E-06  0.00000E+00  9.000E+00
#rwgt            1           1   4.4802157238165122E-002           6      338673           0
</event>
<event>
      5   9999  3.79277E-02  1.33117E+01 -1.00000E+00  1.82413E-01
      21    -1     0     0   502   511  0.000000000E+00  0.000000000E+00  5.969463875E+02  5.969463875E+02  0.000000000E+00  0.00000E+00  9.000E+00
      21    -1     0     0   501   502  0.000000000E+00  0.000000000E+00 -1.710646710E+02  1.710646710E+02  0.000000000E+00  0.00000E+00  9.000E+00
      25     1     1     2     0     0  2.165214090E+02 -9.071756131E+00 -1.463012541E+01  2.506049838E+02  1.250000000E+02  0.00000E+00  9.000E+00
      25     1     1     2     0     0 -2.062377806E+02  6.190553989E-01  3.447760782E+02  4.207492716E+02  1.250000000E+02  0.00000E+00  9.000E+00
      21     1     1     2   501   511 -1.028362838E+01  8.452700732E+00  9.573576368E+01  9.665680322E+01  0.000000000E+00  0.00000E+00  9.000E+00
#rwgt            1           1   1.9844494725939597E-002           6      338843           0
</event>
<event>
      5   9999  3.79277E-02  5.54430E+01 -1.00000E+00  1.36562E-01
      21    -1     0     0   502   501  0.000000000E+00  0.000000000E+00  2.917993057E+02  2.917993057E+02  0.000000000E+00  0.00000E+00  9.000E+00
      21    -1     0     0   501   512  0.000000000E+00  0.000000000E+00 -1.904078652E+02  1.904078652E+02  0.000000000E+00  0.00000E+00  9.000E+00
      25     1     1     2     0     0  9.311914288E+01 -1.838546432E+01  7.711011216E+00  1.571421642E+02  1.250000000E+02  0.00000E+00  9.000E+00
      25     1     1     2     0     0 -1.326704627E+02  5.723931088E+01  1.523351108E+02  2.443537934E+02  1.250000000E+02  0.00000E+00  9.000E+00
      21     1     1     2   502   512  3.955131979E+01 -3.885384656E+01 -5.865468152E+01  8.071121331E+01  9.536743164E-07  0.00000E+00  9.000E+00
#rwgt            1           1   4.0980597416600296E-002           6      339147           0
</event>
<event>
      5   9999  3.79277E-02  1.36002E+02 -1.00000E+00  1.18105E-01
      21    -1     0     0   502   501  0.000000000E+00  0.000000000E+00  8.694685872E+02  8.694685872E+02  0.000000000E+00  0.00000E+00  9.000E+00
      21    -1     0     0   511   502  0.000000000E+00  0.000000000E+00 -6.967120027E+02  6.967120027E+02  0.000000000E+00  0.00000E+00  9.000E+00
      25     1     1     2     0     0  1.170971565E+02  3.849354685E+01  3.807860229E+02  4.193047728E+02  1.250000000E+02  0.00000E+00  9.000E+00
      25     1     1     2     0     0 -1.108971181E+02  9.736734986E+01  4.421642864E+02  4.826104307E+02  1.250000000E+02  0.00000E+00  9.000E+00
      21     1     1     2   511   501 -6.200038337E+00 -1.358608967E+02 -6.501937249E+02  6.642653865E+02  7.629394531E-06  0.00000E+00  9.000E+00
#rwgt            1           1   3.5348045614687858E-002           6      339259           0
</event>
<event>
      5   9999  3.79277E-02  1.00255E+02 -1.00000E+00  1.23778E-01
      21    -1     0     0   502   501  0.000000000E+00  0.000000000E+00  1.043142030E+03  1.043142030E+03  0.000000000E+00  0.00000E+00  9.000E+00
      21    -1     0     0   512   502  0.000000000E+00  0.000000000E+00 -1.128875852E+02  1.128875852E+02  0.000000000E+00  0.00000E+00  9.000E+00
      25     1     1     2     0     0 -1.088336540E+02 -1.177749582E+02  8.131780168E+02  8.382119016E+02  1.250000000E+02  0.00000E+00  9.000E+00
      25     1     1     2     0     0  1.603119773E+01  7.984318833E+01  1.507185743E+02  2.120684386E+02  1.250000000E+02  0.00000E+00  9.000E+00
      21     1     1     2   512   501  9.280245629E+01  3.793176990E+01 -3.364214652E+01  1.057492746E+02  8.259061849E-07  0.00000E+00  9.000E+00
#rwgt            1           1   3.2952063787121941E-002           6      339352           0
</event>
<event>
      5   9999  3.79277E-02  2.09663E+01 -1.00000E+00  1.64696E-01
      21    -1     0     0   511   501  0.000000000E+00  0.000000000E+00  2.252459361E+02  2.252459361E+02  0.000000000E+00  0.00000E+00  9.000E+00
      21    -1     0     0   501   502  0.000000000E+00  0.000000000E+00 -7.943644494E+02  7.943644494E+02  0.000000000E+00  0.00000E+00  9.000E+00
      25     1     1     2     0     0  1.709813875E+02  1.743776853E+02  5.715550645E+01  2.802391192E+02  1.250000000E+02  0.00000E+00  9.000E+00
      25     1     1     2     0     0 -1.500583424E+02 -1.757237818E+02 -6.538924411E+02  7.046961601E+02  1.250000000E+02  0.00000E+00  9.000E+00
      21     1     1     2   511   502 -2.092304507E+01  1.346096439E+00  2.761842134E+01  3.467510617E+01  4.768371582E-07  0.00000E+00  9.000E+00
#rwgt            1           1   5.4462390344890629E-002           6      339525           0
</event>
<event>
      5   9999  3.79277E-02  4.48905E+01 -1.00000E+00  1.41800E-01
      21    -1     0     0   512   501  0.000000000E+00  0.000000000E+00  1.090712843E+03  1.090712843E+03  0.000000000E+00  0.00000E+00  9.000E+00
      21    -1     0     0   501   502  0.000000000E+00  0.000000000E+00 -7.371118729E+01  7.371118729E+01  0.000000000E+00  0.00000E+00  9.000E+00
      25     1     1     2     0     0 -3.860037184E+01 -1.609750356E+02  4.555577222E+02  5.005604749E+02  1.250000000E+02  0.00000E+00  9.000E+00
      25     1     1     2     0     0  8.220646320E+01  1.503138143E+02  1.753854456E+02  2.752039242E+02  1.250000000E+02  0.00000E+00  9.000E+00
      21     1     1     2   512   502 -4.360609137E+01  1.066122129E+01  3.860584879E+02  3.886596312E+02  5.394796609E-06  0.00000E+00  9.000E+00
#rwgt            1           1   4.5162629505856866E-002           6      339739           0
</event>
<event>
      5   9999  3.79277E-02  2.68138E+01 -1.00000E+00  1.56506E-01
      21    -1     0     0   502   501  0.000000000E+00  0.000000000E+00  5.860431639E+02  5.860431639E+02  0.000000000E+00  0.00000E+00  9.000E+00
      21    -1     0     0   501   511  0.000000000E+00  0.000000000E+00 -1.378949490E+02  1.378949490E+02  0.000000000E+00  0.00000E+00  9.000E+00
      25     1     1     2     0     0 -1.917423148E+02  1.439832978E+02  2.055682017E+02  3.396757143E+02  1.250000000E+02  0.00000E+00  9.000E+00
      25     1     1     2     0     0  1.657187676E+02 -1.375213032E+02  2.534784269E+02  3.553183526E+02  1.250000000E+02  0.00000E+00  9.000E+00
      21     1     1     2   502   511  2.602354718E+01 -6.461994638E+00 -1.089841365E+01  2.894404607E+01  5.591411304E-07  0.00000E+00  9.000E+00
#rwgt            1           1   3.7255211950437364E-002           6      339881           0
</event>
<event>
      5   9999  3.79277E-02  4.61473E+01 -1.00000E+00  1.41092E-01
      21    -1     0     0   502   501  0.000000000E+00  0.000000000E+00  5.833880794E+02  5.833880794E+02  0.000000000E+00  0.00000E+00  9.000E+00
       4    -1     0     0   501     0  0.000000000E+00  0.000000000E+00 -1.248077714E+02  1.248077714E+02  0.000000000E+00  0.00000E+00  9.000E+00
      25     1     1     2     0     0  8.929313321E+01 -3.694346582E+01  4.279314698E+02  4.561671033E+02  1.250000000E+02  0.00000E+00  9.000E+00
      25     1     1     2     0     0 -4.364824482E+01  4.373454550E+01  9.796658803E+01  1.704122417E+02  1.250000000E+02  0.00000E+00  9.000E+00
       4     1     1     2   502     0 -4.564488839E+01 -6.791079686E+00 -6.731774973E+01  8.161650586E+01  0.000000000E+00  0.00000E+00  9.000E+00
#rwgt            1           1   2.8360921551922425E-002           6      340014           0
</event>
<event>
      5   9999  3.79277E-02  7.06822E+01 -1.00000E+00  1.31008E-01
      21    -1     0     0   502   501  0.000000000E+00  0.000000000E+00  2.598618849E+01  2.598618849E+01  0.000000000E+00  0.00000E+00  9.000E+00
      21    -1     0     0   511   502  0.000000000E+00  0.000000000E+00 -1.743289907E+03  1.743289907E+03  0.000000000E+00  0.00000E+00  9.000E+00
      25     1     1     2     0     0 -8.389654387E+00  2.810463033E+00 -2.037803898E+02  2.392273652E+02  1.250000000E+02  0.00000E+00  9.000E+00
      25     1     1     2     0     0  2.219899471E+01 -7.213051722E+01 -8.167444456E+02  8.296939775E+02  1.250000000E+02  0.00000E+00  9.000E+00
      21     1     1     2   511   501 -1.380934032E+01  6.932005419E+01 -6.967788834E+02  7.003547531E+02  1.078959322E-05  0.00000E+00  9.000E+00
#rwgt            1           1   4.9402682333161946E-002           6      340202           0
</event>
<event>
      5   9999  3.79277E-02  3.38053E+02 -1.00000E+00  1.03934E-01
      21    -1     0     0   502   512  0.000000000E+00  0.000000000E+00  3.174842907E+03  3.174842907E+03  0.000000000E+00  0.00000E+00  9.000E+00
      21    -1     0     0   501   502  0.000000000E+00  0.000000000E+00 -8.183820075E+01  8.183820075E+01  0.000000000E+00  0.00000E+00  9.000E+00
      25     1     1     2     0     0  1.616538540E+02 -1.496030926E+02  2.285625247E+02  3.411434911E+02  1.250000000E+02  0.00000E+00  9.000E+00
      25     1     1     2     0     0  1.407495480E+02 -1.499948645E+00  7.007045791E+02  7.255512334E+02  1.250000000E+02  0.00000E+00  9.000E+00
      21     1     1     2   501   512 -3.024034020E+02  1.511030413E+02  2.163737603E+03  2.189986383E+03  3.051757812E-05  0.00000E+00  9.000E+00
#rwgt            1           1   4.7980014441550270E-002           6      340356           0
</event>
<event>
      5   9999  3.79277E-02  4.71470E+01 -1.00000E+00  1.40547E-01
      21    -1     0     0   502   501  0.000000000E+00  0.000000000E+00  7.012919122E+02  7.012919122E+02  0.000000000E+00  0.00000E+00  9.000E+00
       3    -1     0     0   501     0  0.000000000E+00  0.000000000E+00 -8.211236901E+01  8.211236901E+01  0.000000000E+00  0.00000E+00  9.000E+00
      25     1     1     2     0     0  1.358196603E+02 -4.293693048E+01  2.136328252E+02  2.855775624E+02  1.250000000E+02  0.00000E+00  9.000E+00
      25     1     1     2     0     0 -1.829392966E+02  4.133026587E+01  2.562784737E+02  3.412896617E+02  1.250000000E+02  0.00000E+00  9.000E+00
       3     1     1     2   502     0  4.711963634E+01  1.606664608E+00  1.492682443E+02  1.565370571E+02  1.907348633E-06  0.00000E+00  9.000E+00
#rwgt            1           1   2.1139374556214740E-002           6      340401           0
</event>
<event>
      5   9999  3.79277E-02  3.82920E+01 -1.00000E+00  1.46025E-01
       2    -1     0     0   502     0  0.000000000E+00  0.000000000E+00  1.446263025E+03  1.446263025E+03  0.000000000E+00  0.00000E+00  9.000E+00
      21    -1     0     0   501   502  0.000000000E+00  0.000000000E+00 -4.354853840E+01  4.354853840E+01  0.000000000E+00  0.00000E+00  9.000E+00
      25     1     1     2     0     0  5.819263093E+01 -2.025771926E+01  1.125843597E+02  1.791563438E+02  1.250000000E+02  0.00000E+00  9.000E+00
      25     1     1     2     0     0 -4.975914400E+01  5.760952172E+01  5.380197479E+02  5.575706937E+02  1.250000000E+02  0.00000E+00  9.000E+00
       2     1     1     2   501     0 -8.433486937E+00 -3.735180246E+01  7.521103794E+02  7.530845262E+02  0.000000000E+00  0.00000E+00  9.000E+00
#rwgt            1           1   4.0097811541721151E-002           6      340496           0
</event>
<event>
      5   9999  3.79277E-02  8.75948E+01 -1.00000E+00  1.26472E-01
      21    -1     0     0   502   511  0.000000000E+00  0.000000000E+00  1.519371915E+02  1.519371915E+02  0.000000000E+00  0.00000E+00  9.000E+00
      21    -1     0     0   501   502  0.000000000E+00  0.000000000E+00 -1.298922311E+03  1.298922311E+03  0.000000000E+00  0.00000E+00  9.000E+00
      25     1     1     2     0     0 -2.440603750E-01  2.419604276E+02 -5.313029820E+02  5.970366545E+02  1.250000000E+02  0.00000E+00  9.000E+00
      25     1     1     2     0     0  3.424517461E+01 -1.612338686E+02 -7.013969387E+02  7.312672275E+02  1.250000000E+02  0.00000E+00  9.000E+00
      21     1     1     2   501   511 -3.400111423E+01 -8.072655903E+01  8.571480091E+01  1.225556208E+02  2.861022949E-06  0.00000E+00  9.000E+00
#rwgt            1           1   2.9552540146546555E-002           6      340693           0
</event>
<event>
      5   9999  3.79277E-02  6.15624E+01 -1.00000E+00  1.34110E-01
      21    -1     0     0   502   501  0.000000000E+00  0.000000000E+00  1.010222985E+03  1.010222985E+03  0.000000000E+00  0.00000E+00  9.000E+00
      21    -1     0     0   512   502  0.000000000E+00  0.000000000E+00 -4.699488120E+02  4.699488120E+02  0.000000000E+00  0.00000E+00  9.000E+00
      25     1     1     2     0     0 -6.358377079E+01 -2.654137963E+02  6.126127725E+02  6.822072913E+02  1.250000000E+02  0.00000E+00  9.000E+00
      25     1     1     2     0     0  9.944472590E+00  2.956255676E+02  2.886381678E+02  4.317758222E+02  1.250000000E+02  0.00000E+00  9.000E+00
      21     1     1     2   512   501  5.363929820E+01 -3.021177132E+01 -3.609767673E+02  3.661886835E+02  5.394796609E-06  0.00000E+00  9.000E+00
#rwgt            1           1   4.2229942818301107E-002           6      340785           0
</event>
<event>
      5   9999  3.79277E-02  1.11133E+02 -1.00000E+00  1.21801E-01
      21    -1     0     0   502   501  0.000000000E+00  0.000000000E+00  1.061975374E+03  1.061975374E+03  0.000000000E+00  0.00000E+00  9.000E+00
      21    -1     0     0   501   511  0.000000000E+00  0.000000000E+00 -2.700232989E+02  2.700232989E+02  0.000000000E+00  0.00000E+00  9.000E+00
      25     1     1     2     0     0 -4.772257460E+01 -2.022543836E+02  8.537523495E+02  8.875259737E+02  1.250000000E+02  0.00000E+00  9.000E+00
      25     1     1     2     0     0 -1.589428361E+01  1.111313001E+02  1.369540461E+02  2.167584021E+02  1.250000000E+02  0.00000E+00  9.000E+00
      21     1     1     2   502   511  6.361685820E+01  9.112308347E+01 -1.987543207E+02  2.277142968E+02  5.394796609E-06  0.00000E+00  9.000E+00
#rwgt            1           1   4.0545080449587885E-002           6      340837           0
</event>
<event>
      5   9999  3.79277E-02  2.28277E+01 -1.00000E+00  1.61766E-01
      21    -1     0     0   512   501  0.000000000E+00  0.000000000E+00  8.118394827E+02  8.118394827E+02  0.000000000E+00  0.00000E+00  9.000E+00
      21    -1     0     0   501   502  0.000000000E+00  0.000000000E+00 -1.075373649E+02  1.075373649E+02  0.000000000E+00  0.00000E+00  9.000E+00
      25     1     1     2     0     0 -7.480119142E+01  1.320447816E+02  5.240564372E+01  2.034757825E+02  1.250000000E+02  0.00000E+00  9.000E+00
      25     1     1     2     0     0  5.989713256E+01 -1.493355679E+02  2.964198802E+02  3.596922625E+02  1.250000000E+02  0.00000E+00  9.000E+00
      21     1     1     2   512   502  1.490405885E+01  1.729078631E+01  3.554765939E+02  3.562088026E+02  5.394796609E-06  0.00000E+00  9.000E+00
#rwgt            1           1   3.8209719192294718E-002           6      340889           0
</event>
<event>
      5   9999  3.79277E-02  2.40663E+01 -1.00000E+00  1.59999E-01
      21    -1     0     0   511   501  0.000000000E+00  0.000000000E+00  5.300870027E+02  5.300870027E+02  0.000000000E+00  0.00000E+00  9.000E+00
      21    -1     0     0   501   502  0.000000000E+00  0.000000000E+00 -1.263804604E+02  1.263804604E+02  0.000000000E+00  0.00000E+00  9.000E+00
      25     1     1     2     0     0  7.846147688E+01  1.567740986E+02  9.300008526E+01  2.345385623E+02  1.250000000E+02  0.00000E+00  9.000E+00
      25     1     1     2     0     0 -5.444251090E+01 -1.552650584E+02  1.401346341E+02  2.496676612E+02  1.250000000E+02  0.00000E+00  9.000E+00
      21     1     1     2   511   502 -2.401896598E+01 -1.509040129E+00  1.705718229E+02  1.722612396E+02  1.907348633E-06  0.00000E+00  9.000E+00
#rwgt            1           1  0.19256950654294949                6      341105           0
</event>
<event>
      5   9999  3.79277E-02  7.00792E+01 -1.00000E+00  1.31196E-01
      21    -1     0     0   502   501  0.000000000E+00  0.000000000E+00  1.067053161E+03  1.067053161E+03  0.000000000E+00  0.00000E+00  9.000E+00
      21    -1     0     0   512   502  0.000000000E+00  0.000000000E+00 -1.373794115E+03  1.373794115E+03  0.000000000E+00  0.00000E+00  9.000E+00
      25     1     1     2     0     0 -6.624526499E+01  1.650173557E+02  6.459553319E+02  6.815441685E+02  1.250000000E+02  0.00000E+00  9.000E+00
      25     1     1     2     0     0  8.755491676E+01 -9.825669291E+01  3.819153206E+02  4.228528743E+02  1.250000000E+02  0.00000E+00  9.000E+00
      21     1     1     2   512   501 -2.130965177E+01 -6.676066283E+01 -1.334611606E+03  1.336450234E+03  0.000000000E+00  0.00000E+00  9.000E+00
#rwgt            1           1   5.2762936786967293E-002           6      341289           0
</event>
<event>
      5   9999  3.79277E-02  1.77006E+02 -1.00000E+00  1.13614E-01
      21    -1     0     0   502   501  0.000000000E+00  0.000000000E+00  1.373044992E+02  1.373044992E+02  0.000000000E+00  0.00000E+00  9.000E+00
       2    -1     0     0   501     0  0.000000000E+00  0.000000000E+00 -1.801210562E+03  1.801210562E+03  0.000000000E+00  0.00000E+00  9.000E+00
      25     1     1     2     0     0  2.587432300E+02  1.326527342E+02 -3.113046075E+02  4.439373442E+02  1.250000000E+02  0.00000E+00  9.000E+00
      25     1     1     2     0     0 -3.073403724E+02  3.755170887E+01 -3.793918956E+02  5.054022614E+02  1.250000000E+02  0.00000E+00  9.000E+00
       2     1     1     2   502     0  4.859714242E+01 -1.702044431E+02 -9.732095595E+02  9.891754554E+02  1.078959322E-05  0.00000E+00  9.000E+00
#rwgt            1           1   4.1903449833828314E-002           6      341387           0
</event>
<event>
      5   9999  3.79277E-02  3.58258E+01 -1.00000E+00  1.47872E-01
      21    -1     0     0   502   511  0.000000000E+00  0.000000000E+00  1.366108476E+02  1.366108476E+02  0.000000000E+00  0.00000E+00  9.000E+00
      21    -1     0     0   501   502  0.000000000E+00  0.000000000E+00 -5.957934063E+02  5.957934063E+02  0.000000000E+00  0.00000E+00  9.000E+00
      25     1     1     2     0     0 -2.903760688E+01 -1.292961012E+02 -3.127127424E+02  3.619045781E+02  1.250000000E+02  0.00000E+00  9.000E+00
      25     1     1     2     0     0  5.978689709E+01  1.109122302E+02 -2.235862751E+02  2.854677185E+02  1.250000000E+02  0.00000E+00  9.000E+00
      21     1     1     2   501   511 -3.074929021E+01  1.838387099E+01  7.711645874E+01  8.503195735E+01  1.907348633E-06  0.00000E+00  9.000E+00
#rwgt            1           1   4.4384677595976335E-002           6      341448           0
</event>
<event>
      5   9999  3.79277E-02  5.08389E+01 -1.00000E+00  1.38664E-01
       3    -1     0     0   502     0  0.000000000E+00  0.000000000E+00  1.245811078E+02  1.245811078E+02  0.000000000E+00  0.00000E+00  9.000E+00
      21    -1     0     0   501   502  0.000000000E+00  0.000000000E+00 -7.539835617E+02  7.539835617E+02  0.000000000E+00  0.00000E+00  9.000E+00
      25     1     1     2     0     0 -2.973134553E+01  1.919238772E+02 -3.351356011E+02  4.070130202E+02  1.250000000E+02  0.00000E+00  9.000E+00
      25     1     1     2     0     0  7.684572556E+01 -1.728233645E+02 -3.363039241E+02  4.055841592E+02  1.250000000E+02  0.00000E+00  9.000E+00
       3     1     1     2   501     0 -4.711438003E+01 -1.910051264E+01  4.203707126E+01  6.596749009E+01  9.536743164E-07  0.00000E+00  9.000E+00
#rwgt            1           1   4.2451418532411987E-002           6      341560           0
</event>
<event>
      5   9999  3.79277E-02  1.02584E+01 -1.00000E+00  1.94485E-01
      21    -1     0     0   511   501  0.000000000E+00  0.000000000E+00  2.855975898E+03  2.855975898E+03  0.000000000E+00  0.00000E+00  9.000E+00
      21    -1     0     0   501   502  0.000000000E+00  0.000000000E+00 -1.804666812E+01  1.804666812E+01  0.000000000E+00  0.00000E+00  9.000E+00
      25     1     1     2     0     0  6.081126326E+00 -8.020382310E+01  3.576469810E+02  3.873060758E+02  1.250000000E+02  0.00000E+00  9.000E+00
      25     1     1     2     0     0 -4.252192114E+00  7.010973059E+01  1.609540815E+03  1.615914630E+03  1.250000000E+02  0.00000E+00  9.000E+00
      21     1     1     2   511   502 -1.828934212E+00  1.009409251E+01  8.707414332E+02  8.708018599E+02  1.078959322E-05  0.00000E+00  9.000E+00
#rwgt            1           1   8.6703380022289181E-002           6      341759           0
</event>
<event>
      5   9999  3.79277E-02  2.44693E+01 -1.00000E+00  1.59452E-01
      21    -1     0     0   512   501  0.000000000E+00  0.000000000E+00  1.549109740E+02  1.549109740E+02  0.000000000E+00  0.00000E+00  9.000E+00
      21    -1     0     0   501   502  0.000000000E+00  0.000000000E+00 -3.923070411E+02  3.923070411E+02  0.000000000E+00  0.00000E+00  9.000E+00
      25     1     1     2     0     0  3.865805331E+01  1.391698983E+02 -2.672482682E+02  3.284955746E+02  1.250000000E+02  0.00000E+00  9.000E+00
      25     1     1     2     0     0 -5.693047719E+01 -1.228952182E+02  5.781498807E+00  1.843983178E+02  1.250000000E+02  0.00000E+00  9.000E+00
      21     1     1     2   512   502  1.827242388E+01 -1.627468012E+01  2.407070224E+01  3.432412262E+01  7.539457465E-07  0.00000E+00  9.000E+00
#rwgt            1           1   3.4792043848712227E-002           6      342029           0
</event>
<event>
      5   9999  3.79277E-02  4.40916E+01 -1.00000E+00  1.42265E-01
      21    -1     0     0   502   511  0.000000000E+00  0.000000000E+00  1.174625334E+02  1.174625334E+02  0.000000000E+00  0.00000E+00  9.000E+00
      21    -1     0     0   501   502  0.000000000E+00  0.000000000E+00 -8.115237703E+02  8.115237703E+02  0.000000000E+00  0.00000E+00  9.000E+00
      25     1     1     2     0     0  1.443194535E+02  6.673524179E+01 -2.930510688E+02  3.560696927E+02  1.250000000E+02  0.00000E+00  9.000E+00
      25     1     1     2     0     0 -1.818478223E+02 -4.359031271E+01 -4.523830699E+02  5.052169710E+02  1.250000000E+02  0.00000E+00  9.000E+00
      21     1     1     2   501   511  3.752836879E+01 -2.314492908E+01  5.137290185E+01  6.769963996E+01  2.023048729E-06  0.00000E+00  9.000E+00
#rwgt            1           1   2.2809697060258545E-002           6      342217           0
</event>
<event>
      5   9999  3.79277E-02  1.40015E+02 -1.00000E+00  1.17592E-01
       3    -1     0     0   502     0  0.000000000E+00  0.000000000E+00  4.578534131E+02  4.578534131E+02  0.000000000E+00  0.00000E+00  9.000E+00
      21    -1     0     0   501   502  0.000000000E+00  0.000000000E+00 -3.251604457E+02  3.251604457E+02  0.000000000E+00  0.00000E+00  9.000E+00
      25     1     1     2     0     0  3.045995503E+01 -1.085439244E+02 -9.146112861E+01  1.915717370E+02  1.250000000E+02  0.00000E+00  9.000E+00
      25     1     1     2     0     0 -3.638212258E+01  2.484335795E+02 -4.878113542E+01  2.846884287E+02  1.250000000E+02  0.00000E+00  9.000E+00
       3     1     1     2   501     0  5.922167551E+00 -1.398896551E+02  2.729352314E+02  3.067536931E+02  0.000000000E+00  0.00000E+00  9.000E+00
#rwgt            1           1   4.1889576052033008E-002           6      342322           0
</event>
<event>
      5   9999  3.79277E-02  4.75585E+00 -1.00000E+00  2.46930E-01
      21    -1     0     0   502   501  0.000000000E+00  0.000000000E+00  9.211163171E+01  9.211163171E+01  0.000000000E+00  0.00000E+00  9.000E+00
      21    -1     0     0   501   511  0.000000000E+00  0.000000000E+00 -6.508622961E+02  6.508622961E+02  0.000000000E+00  0.00000E+00  9.000E+00
      25     1     1     2     0     0 -1.117105663E+02 -1.239983587E+02 -1.077030756E+02  2.346908521E+02  1.250000000E+02  0.00000E+00  9.000E+00
      25     1     1     2     0     0  1.105249461E+02  1.193926627E+02 -3.398256223E+02  3.969594755E+02  1.250000000E+02  0.00000E+00  9.000E+00
      21     1     1     2   502   511  1.185620159E+00  4.605695923E+00 -1.112219665E+02  1.113236002E+02  1.907348633E-06  0.00000E+00  9.000E+00
#rwgt            1           1   3.0972747918885893E-002           6      342426           0
</event>
<event>
      5   9999  3.79277E-02  2.45391E+01 -1.00000E+00  1.59359E-01
      21    -1     0     0   502   501  0.000000000E+00  0.000000000E+00  1.892900868E+02  1.892900868E+02  0.000000000E+00  0.00000E+00  9.000E+00
      21    -1     0     0   501   512  0.000000000E+00  0.000000000E+00 -2.119911194E+02  2.119911194E+02  0.000000000E+00  0.00000E+00  9.000E+00
      25     1     1     2     0     0 -1.447406450E+02  1.915482033E+01 -4.595566539E+01  1.976200512E+02  1.250000000E+02  0.00000E+00  9.000E+00
      25     1     1     2     0     0  1.206411577E+02 -2.377909632E+01  3.071799009E+01  1.780121605E+02  1.250000000E+02  0.00000E+00  9.000E+00
      21     1     1     2   502   512  2.409948734E+01  4.624275989E+00 -7.463357332E+00  2.564899454E+01  3.153981341E-07  0.00000E+00  9.000E+00
#rwgt            1           1   7.2890053994692436E-002           6      342955           0
</event>
<event>
      5   9999  3.79277E-02  1.61574E+01 -1.00000E+00  1.74396E-01
      21    -1     0     0   502   501  0.000000000E+00  0.000000000E+00  1.085259378E+02  1.085259378E+02  0.000000000E+00  0.00000E+00  9.000E+00
       2    -1     0     0   501     0  0.000000000E+00  0.000000000E+00 -1.701504008E+03  1.701504008E+03  0.000000000E+00  0.00000E+00  9.000E+00
      25     1     1     2     0     0  7.531979523E+01 -8.453190720E+01  9.819864383E+00  1.689382864E+02  1.250000000E+02  0.00000E+00  9.000E+00
      25     1     1     2     0     0 -9.126428894E+01  8.191759994E+01 -3.824156087E+02  4.206023792E+02  1.250000000E+02  0.00000E+00  9.000E+00
       2     1     1     2   502     0  1.594449371E+01  2.614307263E+00 -1.220382326E+03  1.220489280E+03  1.525878906E-05  0.00000E+00  9.000E+00
#rwgt            1           1   1.3819518359750850E-002           6      343099           0
</event>
<event>
      5   9999  3.79277E-02  1.31861E+01 -1.00000E+00  1.82825E-01
      21    -1     0     0   502   501  0.000000000E+00  0.000000000E+00  5.899703979E+02  5.899703979E+02  0.000000000E+00  0.00000E+00  9.000E+00
      21    -1     0     0   511   502  0.000000000E+00  0.000000000E+00 -1.325998733E+02  1.325998733E+02  0.000000000E+00  0.00000E+00  9.000E+00
      25     1     1     2     0     0  1.349651047E+02 -8.451445648E+01 -8.521467053E+00  2.026225265E+02  1.250000000E+02  0.00000E+00  9.000E+00
      25     1     1     2     0     0 -1.327027020E+02  9.750498334E+01  4.620804395E+02  5.062218501E+02  1.250000000E+02  0.00000E+00  9.000E+00
      21     1     1     2   511   501 -2.262402712E+00 -1.299052686E+01  3.811552150E+00  1.372589465E+01  3.397987560E-07  0.00000E+00  9.000E+00
#rwgt            1           1   4.1261320518565417E-002           6      343413           0
</event>
<event>
      5   9999  3.79277E-02  3.18538E+01 -1.00000E+00  1.51253E-01
      21    -1     0     0   502   501  0.000000000E+00  0.000000000E+00  3.058655637E+01  3.058655637E+01  0.000000000E+00  0.00000E+00  9.000E+00
       2    -1     0     0   501     0  0.000000000E+00  0.000000000E+00 -1.422955760E+03  1.422955760E+03  0.000000000E+00  0.00000E+00  9.000E+00
      25     1     1     2     0     0  3.739598951E+01  1.108274962E+02 -3.602788476E+02  3.988822408E+02  1.250000000E+02  0.00000E+00  9.000E+00
      25     1     1     2     0     0 -5.543047896E+00 -1.105935622E+02 -6.451982785E+02  6.664589110E+02  1.250000000E+02  0.00000E+00  9.000E+00
       2     1     1     2   502     0 -3.185294162E+01 -2.339339989E-01 -3.868920776E+02  3.882011647E+02  5.394796609E-06  0.00000E+00  9.000E+00
#rwgt            1           1   3.9920787702265682E-002           6      343747           0
</event>
<event>
      5   9999  3.79277E-02  1.70709E+01 -1.00000E+00  1.72251E-01
      21    -1     0     0   502   501  0.000000000E+00  0.000000000E+00  3.782141890E+03  3.782141890E+03  0.000000000E+00  0.00000E+00  9.000E+00
      21    -1     0     0   501   511  0.000000000E+00  0.000000000E+00 -1.610886203E+02  1.610886203E+02  0.000000000E+00  0.00000E+00  9.000E+00
      25     1     1     2     0     0 -9.327362727E+01 -1.411657565E+02  2.617589398E+03  2.626028750E+03  1.250000000E+02  0.00000E+00  9.000E+00
      25     1     1     2     0     0  8.876277362E+01  1.247016452E+02  1.151424029E+03  1.168260085E+03  1.250000000E+02  0.00000E+00  9.000E+00
      21     1     1     2   502   511  4.510853654E+00  1.646411134E+01 -1.479601571E+02  1.489416760E+02  6.607249480E-06  0.00000E+00  9.000E+00
#rwgt            1           1   1.0548744370261431E-002           6      343939           0
</event>
<event>
      5   9999  3.79277E-02  3.62985E+01 -1.00000E+00  1.47505E-01
      21    -1     0     0   502   501  0.000000000E+00  0.000000000E+00  2.847658364E+02  2.847658364E+02  0.000000000E+00  0.00000E+00  9.000E+00
      21    -1     0     0   512   502  0.000000000E+00  0.000000000E+00 -2.695421981E+02  2.695421981E+02  0.000000000E+00  0.00000E+00  9.000E+00
      25     1     1     2     0     0  5.731611130E+01 -1.382878216E+02  1.746971004E+02  2.618257724E+02  1.250000000E+02  0.00000E+00  9.000E+00
      25     1     1     2     0     0 -2.882175114E+01  1.607746082E+02 -1.170662663E+02  2.366615276E+02  1.250000000E+02  0.00000E+00  9.000E+00
      21     1     1     2   512   501 -2.849436015E+01 -2.248678662E+01 -4.240719589E+01  5.582073447E+01  4.768371582E-07  0.00000E+00  9.000E+00
#rwgt            1           1   4.2290463106206939E-002           6      344112           0
</event>
<event>
      5   9999  3.79277E-02  9.44662E+00 -1.00000E+00  1.98659E-01
      21    -1     0     0   502   511  0.000000000E+00  0.000000000E+00  7.100042480E+01  7.100042480E+01  0.000000000E+00  0.00000E+00  9.000E+00
      21    -1     0     0   501   502  0.000000000E+00  0.000000000E+00 -4.601033855E+02  4.601033855E+02  0.000000000E+00  0.00000E+00  9.000E+00
      25     1     1     2     0     0 -2.850021500E+01  4.908622090E+01 -3.121312799E+02  3.409877640E+02  1.250000000E+02  0.00000E+00  9.000E+00
      25     1     1     2     0     0  3.552227952E+01 -4.276725702E+01 -9.717991593E+01  1.678088397E+02  1.250000000E+02  0.00000E+00  9.000E+00
      21     1     1     2   501   511 -7.022064517E+00 -6.318963872E+00  2.020823518E+01  2.230720654E+01  6.307962682E-07  0.00000E+00  9.000E+00
#rwgt            1           1   4.4923279307269123E-002           6      344311           0
</event>
<event>
      5   9999  3.79277E-02  4.27034E+01 -1.00000E+00  1.43100E-01
      21    -1     0     0   512   501  0.000000000E+00  0.000000000E+00  2.196512723E+03  2.196512723E+03  0.000000000E+00  0.00000E+00  9.000E+00
      21    -1     0     0   501   502  0.000000000E+00  0.000000000E+00 -9.256630777E+01  9.256630777E+01  0.000000000E+00  0.00000E+00  9.000E+00
      25     1     1     2     0     0 -2.612692303E+02  2.759913223E+02  5.849386908E+02  7.086685351E+02  1.250000000E+02  0.00000E+00  9.000E+00
      25     1     1     2     0     0  2.218232508E+02 -2.596329228E+02  1.085245093E+03  1.144550882E+03  1.250000000E+02  0.00000E+00  9.000E+00
      21     1     1     2   512   502  3.944597952E+01 -1.635839950E+01  4.337626311E+02  4.358596135E+02  5.394796609E-06  0.00000E+00  9.000E+00
#rwgt            1           1   4.7286713238041851E-002           6      344592           0
</event>
<event>
      5   9999  3.79277E-02  2.94973E+01 -1.00000E+00  1.53551E-01
      21    -1     0     0   502   501  0.000000000E+00  0.000000000E+00  7.566247766E+01  7.566247766E+01  0.000000000E+00  0.00000E+00  9.000E+00
       2    -1     0     0   501     0  0.000000000E+00  0.000000000E+00 -3.373456880E+03  3.373456880E+03  0.000000000E+00  0.00000E+00  9.000E+00
      25     1     1     2     0     0 -1.814008189E+02 -1.873547841E+02 -7.552062078E+02  8.086838001E+02  1.250000000E+02  0.00000E+00  9.000E+00
      25     1     1     2     0     0  2.087382277E+02  1.762751317E+02 -4.134211744E+02  5.110642202E+02  1.250000000E+02  0.00000E+00  9.000E+00
       2     1     1     2   502     0 -2.733740883E+01  1.107965243E+01 -2.129167020E+03  2.129371337E+03  3.051757812E-05  0.00000E+00  9.000E+00
#rwgt            1           1   3.7215877721510977E-002           6      344746           0
</event>
<event>
      5   9999  3.79277E-02  3.07743E+01 -1.00000E+00  1.52275E-01
      21    -1     0     0   502   511  0.000000000E+00  0.000000000E+00  1.015074451E+02  1.015074451E+02  0.000000000E+00  0.00000E+00  9.000E+00
      21    -1     0     0   501   502  0.000000000E+00  0.000000000E+00 -5.533786406E+02  5.533786406E+02  0.000000000E+00  0.00000E+00  9.000E+00
      25     1     1     2     0     0  8.598565952E+00  8.201875848E+01 -4.456109638E+01  1.562424507E+02  1.250000000E+02  0.00000E+00  9.000E+00
      25     1     1     2     0     0 -1.640741738E+01 -1.117858767E+02 -4.290604332E+02  4.609589363E+02  1.250000000E+02  0.00000E+00  9.000E+00
      21     1     1     2   501   511  7.808851424E+00  2.976711821E+01  2.175033416E+01  3.768469879E+01  1.066240300E-06  0.00000E+00  9.000E+00
#rwgt            1           1   4.7520917373681665E-002           6      344960           0
</event>
<event>
      5   9999  3.79277E-02  5.09908E+01 -1.00000E+00  1.38591E-01
      21    -1     0     0   512   501  0.000000000E+00  0.000000000E+00  2.203639628E+01  2.203639628E+01  0.000000000E+00  0.00000E+00  9.000E+00
      21    -1     0     0   501   502  0.000000000E+00  0.000000000E+00 -2.371312278E+03  2.371312278E+03  0.000000000E+00  0.00000E+00  9.000E+00
      25     1     1     2     0     0 -5.482674557E+01  1.330844590E+02 -8.910247391E+02  9.111901727E+02  1.250000000E+02  0.00000E+00  9.000E+00
      25     1     1     2     0     0  1.323551733E+01 -1.035848560E+02 -1.374419104E+03  1.384036804E+03  1.250000000E+02  0.00000E+00  9.000E+00
      21     1     1     2   512   502  4.159122824E+01 -2.949960300E+01 -8.383203917E+01  9.812169808E+01  3.303624740E-06  0.00000E+00  9.000E+00
#rwgt            1           1   6.7385259290048183E-002           6      345104           0
</event>
<event>
      5   9999  3.79277E-02  1.46397E+01 -1.00000E+00  1.78384E-01
      21    -1     0     0   502   511  0.000000000E+00  0.000000000E+00  5.083697698E+01  5.083697698E+01  0.000000000E+00  0.00000E+00  9.000E+00
      21    -1     0     0   501   502  0.000000000E+00  0.000000000E+00 -2.188045450E+03  2.188045450E+03  0.000000000E+00  0.00000E+00  9.000E+00
      25     1     1     2     0     0  2.433853389E+01 -2.210350556E+02 -3.746272166E+02  4.532321827E+02  1.250000000E+02  0.00000E+00  9.000E+00
      25     1     1     2     0     0 -3.372794350E+01  2.322671683E+02 -1.723955953E+03  1.744343641E+03  1.250000000E+02  0.00000E+00  9.000E+00
      21     1     1     2   501   511  9.389409608E+00 -1.123211266E+01 -3.862530324E+01  4.130660260E+01  4.768371582E-07  0.00000E+00  9.000E+00
#rwgt            1           1   3.3862064099210672E-002           6      345228           0
</event>
<event>
      5   9999  3.79277E-02  1.11676E+02 -1.00000E+00  1.21709E-01
      21    -1     0     0   502   501  0.000000000E+00  0.000000000E+00  3.409513827E+02  3.409513827E+02  0.000000000E+00  0.00000E+00  9.000E+00
      21    -1     0     0   501   512  0.000000000E+00  0.000000000E+00 -4.795836958E+02  4.795836958E+02  0.000000000E+00  0.00000E+00  9.000E+00
      25     1     1     2     0     0 -1.294457521E+02 -8.931766886E+01  9.776803123E+01  2.234221042E+02  1.250000000E+02  0.00000E+00  9.000E+00
      25     1     1     2     0     0  5.965183270E+01  1.764980288E+02  9.780237832E+01  2.447451747E+02  1.250000000E+02  0.00000E+00  9.000E+00
      21     1     1     2   502   512  6.979391942E+01 -8.718035995E+01 -3.342027226E+02  3.523677996E+02  7.629394531E-06  0.00000E+00  9.000E+00
#rwgt            1           1   4.8109548251046477E-002           6      345617           0
</event>
<event>
      5   9999  3.79277E-02  4.76326E+01 -1.00000E+00  1.40288E-01
      21    -1     0     0   502   501  0.000000000E+00  0.000000000E+00  2.856757271E+02  2.856757271E+02  0.000000000E+00  0.00000E+00  9.000E+00
      21    -1     0     0   501   511  0.000000000E+00  0.000000000E+00 -2.510843172E+02  2.510843172E+02  0.000000000E+00  0.00000E+00  9.000E+00
      25     1     1     2     0     0 -1.222123381E+02 -3.804265370E+01  1.670294107E+02  2.447589082E+02  1.250000000E+02  0.00000E+00  9.000E+00
      25     1     1     2     0     0  1.564335490E+02  7.117528051E+01 -1.051395902E+02  2.371006310E+02  1.250000000E+02  0.00000E+00  9.000E+00
      21     1     1     2   502   511 -3.422121089E+01 -3.313262682E+01 -2.729841062E+01  5.490050507E+01  1.305872339E-06  0.00000E+00  9.000E+00
#rwgt            1           1   5.0039937886180039E-002           6      345781           0
</event>
<event>
      5   9999  3.79277E-02  3.31320E+01 -1.00000E+00  1.50104E-01
      21    -1     0     0   512   501  0.000000000E+00  0.000000000E+00  1.071955417E+02  1.071955417E+02  0.000000000E+00  0.00000E+00  9.000E+00
      21    -1     0     0   501   502  0.000000000E+00  0.000000000E+00 -7.084570877E+02  7.084570877E+02  0.000000000E+00  0.00000E+00  9.000E+00
      25     1     1     2     0     0  1.959961263E+02 -4.826314421E+01 -3.737665148E+02  4.427981709E+02  1.250000000E+02  0.00000E+00  9.000E+00
      25     1     1     2     0     0 -2.273179767E+02  3.746174776E+01 -1.979107188E+02  3.284364439E+02  1.250000000E+02  0.00000E+00  9.000E+00
      21     1     1     2   512   502  3.132185037E+01  1.080139644E+01 -2.958431241E+01  4.441801455E+01  3.371747881E-07  0.00000E+00  9.000E+00
#rwgt            1           1   4.4754516756749227E-002           6      345911           0
</event>
<event>
      5   9999  3.79277E-02  3.68665E+01 -1.00000E+00  1.47072E-01
      21    -1     0     0   502   501  0.000000000E+00  0.000000000E+00  1.031599495E+03  1.031599495E+03  0.000000000E+00  0.00000E+00  9.000E+00
      21    -1     0     0   511   502  0.000000000E+00  0.000000000E+00 -2.140180383E+02  2.140180383E+02  0.000000000E+00  0.00000E+00  9.000E+00
      25     1     1     2     0     0 -1.259698989E+02  7.792035089E+01  4.641951948E+02  5.030329764E+02  1.250000000E+02  0.00000E+00  9.000E+00
      25     1     1     2     0     0  1.522428130E+02 -5.205773777E+01  5.270443607E+02  5.650563161E+02  1.250000000E+02  0.00000E+00  9.000E+00
      21     1     1     2   511   501 -2.627291408E+01 -2.586261312E+01 -1.736580991E+02  1.775282405E+02  3.303624740E-06  0.00000E+00  9.000E+00
#rwgt            1           1  0.16524814219912440                6      346088           0
</event>
<event>
      5   9999  3.79277E-02  1.23434E+01 -1.00000E+00  1.85749E-01
      21    -1     0     0   502   501  0.000000000E+00  0.000000000E+00  1.216133093E+02  1.216133093E+02  0.000000000E+00  0.00000E+00  9.000E+00
      21    -1     0     0   501   512  0.000000000E+00  0.000000000E+00 -1.034549875E+03  1.034549875E+03  0.000000000E+00  0.00000E+00  9.000E+00
      25     1     1     2     0     0  1.947841877E+00  1.182841331E+02  4.373736051E+01  1.775750177E+02  1.250000000E+02  0.00000E+00  9.000E+00
      25     1     1     2     0     0  4.154209010E+00 -1.075545478E+02 -6.163951249E+02  6.380855650E+02  1.250000000E+02  0.00000E+00  9.000E+00
      21     1     1     2   502   512 -6.102050887E+00 -1.072958524E+01 -3.402788013E+02  3.405026016E+02  5.394796609E-06  0.00000E+00  9.000E+00
#rwgt            1           1   4.6541666694401670E-002           6      346187           0
</event>
<event>
      5   9999  3.79277E-02  4.25758E+01 -1.00000E+00  1.43179E-01
      21    -1     0     0   502   501  0.000000000E+00  0.000000000E+00  4.417299422E+02  4.417299422E+02  0.000000000E+00  0.00000E+00  9.000E+00
      21    -1     0     0   511   502  0.000000000E+00  0.000000000E+00 -1.998405656E+02  1.998405656E+02  0.000000000E+00  0.00000E+00  9.000E+00
      25     1     1     2     0     0  1.080036070E+02 -8.729154175E+01  3.559828858E+02  4.020365747E+02  1.250000000E+02  0.00000E+00  9.000E+00
      25     1     1     2     0     0 -6.545585960E+01  8.883723699E+01 -1.012112110E+02  1.950518738E+02  1.250000000E+02  0.00000E+00  9.000E+00
      21     1     1     2   511   501 -4.254774744E+01 -1.545695235E+00 -1.288229820E+01  4.448205923E+01  5.591411304E-07  0.00000E+00  9.000E+00
#rwgt            1           1   4.3084438183923289E-002           6      346522           0
</event>
<event>
      5   9999  3.79277E-02  1.73728E+02 -1.00000E+00  1.13921E-01
      21    -1     0     0   512   501  0.000000000E+00  0.000000000E+00  1.729298869E+02  1.729298869E+02  0.000000000E+00  0.00000E+00  9.000E+00
      21    -1     0     0   501   502  0.000000000E+00  0.000000000E+00 -4.556348991E+02  4.556348991E+02  0.000000000E+00  0.00000E+00  9.000E+00
      25     1     1     2     0     0 -1.798867322E+02 -3.312479085E+01 -5.172645256E+01  2.275018991E+02  1.250000000E+02  0.00000E+00  9.000E+00
      25     1     1     2     0     0  1.069538575E+01  7.256538904E+01 -1.526532160E+02  2.104949675E+02  1.250000000E+02  0.00000E+00  9.000E+00
      21     1     1     2   512   502  1.691913464E+02 -3.944059819E+01 -7.832534366E+01  1.905679195E+02  0.000000000E+00  0.00000E+00  9.000E+00
#rwgt            1           1   3.6720377679111800E-002           6      346812           0
</event>
<event>
      5   9999  3.79277E-02  1.14753E+02 -1.00000E+00  1.21198E-01
      21    -1     0     0   511   501  0.000000000E+00  0.000000000E+00  5.423815103E+02  5.423815103E+02  0.000000000E+00  0.00000E+00  9.000E+00
      21    -1     0     0   501   502  0.000000000E+00  0.000000000E+00 -7.399168781E+02  7.399168781E+02  0.000000000E+00  0.00000E+00  9.000E+00
      25     1     1     2     0     0  7.633199184E+01 -5.952691479E+00 -1.361819316E+02  2.000812985E+02  1.250000000E+02  0.00000E+00  9.000E+00
      25     1     1     2     0     0 -1.268373736E+02 -9.708876997E+01 -5.468972434E+02  5.832971313E+02  1.250000000E+02  0.00000E+00  9.000E+00
      21     1     1     2   511   502  5.050538177E+01  1.030414615E+02  4.855438072E+02  4.989199586E+02  5.394796609E-06  0.00000E+00  9.000E+00
#rwgt            1           1   4.9421158301004312E-002           6      346879           0
</event>
<event>
      5   9999  3.79277E-02  5.77477E+01 -1.00000E+00  1.35597E-01
      21    -1     0     0   502   501  0.000000000E+00  0.000000000E+00  2.360179362E+02  2.360179362E+02  0.000000000E+00  0.00000E+00  9.000E+00
       2    -1     0     0   501     0  0.000000000E+00  0.000000000E+00 -8.898406307E+02  8.898406307E+02  0.000000000E+00  0.00000E+00  9.000E+00
      25     1     1     2     0     0  6.668105696E+01 -4.047948973E+01 -9.413312151E+01  1.748456377E+02  1.250000000E+02  0.00000E+00  9.000E+00
      25     1     1     2     0     0 -1.041182892E+01  5.346278105E+01  1.706278371E+02  2.184159654E+02  1.250000000E+02  0.00000E+00  9.000E+00
       2     1     1     2   502     0 -5.626922804E+01 -1.298329132E+01 -7.303174101E+02  7.325969638E+02  1.525878906E-05  0.00000E+00  9.000E+00
#rwgt            1           1   3.9742577770010751E-002           6      346991           0
</event>
<event>
      5   9999  3.79277E-02  1.50495E+01 -1.00000E+00  1.77249E-01
      21    -1     0     0   511   501  0.000000000E+00  0.000000000E+00  1.859601175E+02  1.859601175E+02  0.000000000E+00  0.00000E+00  9.000E+00
      21    -1     0     0   501   502  0.000000000E+00  0.000000000E+00 -1.744379587E+02  1.744379587E+02  0.000000000E+00  0.00000E+00  9.000E+00
      25     1     1     2     0     0  4.311429188E+01 -1.110245707E+02  4.521292608E+01  1.784783072E+02  1.250000000E+02  0.00000E+00  9.000E+00
      25     1     1     2     0     0 -4.120186631E+01  9.609708803E+01 -3.542763518E+01  1.667703854E+02  1.250000000E+02  0.00000E+00  9.000E+00
      21     1     1     2   511   502 -1.912425578E+00  1.492748270E+01  1.736867866E+00  1.514938353E+01  2.819432010E-07  0.00000E+00  9.000E+00
#rwgt            1           1   3.9492278455163433E-002           6      347053           0
</event>
<event>
      5   9999  3.79277E-02  4.57958E+01 -1.00000E+00  1.41287E-01
      21    -1     0     0   502   501  0.000000000E+00  0.000000000E+00  5.149673057E+02  5.149673057E+02  0.000000000E+00  0.00000E+00  9.000E+00
      21    -1     0     0   512   502  0.000000000E+00  0.000000000E+00 -4.048380654E+02  4.048380654E+02  0.000000000E+00  0.00000E+00  9.000E+00
      25     1     1     2     0     0 -2.329720003E+01  6.196768220E+01  3.706427015E+02  3.967162277E+02  1.250000000E+02  0.00000E+00  9.000E+00
      25     1     1     2     0     0  6.306638768E+01 -3.925935729E+01  8.906908419E+01  1.705197002E+02  1.250000000E+02  0.00000E+00  9.000E+00
      21     1     1     2   512   501 -3.976918765E+01 -2.270832491E+01 -3.495825453E+02  3.525694432E+02  3.814697266E-06  0.00000E+00  9.000E+00
#rwgt            1           1   4.7732137448199791E-002           6      347264           0
</event>
<event>
      5   9999  3.79277E-02  7.89337E+01 -1.00000E+00  1.28632E-01
       2    -1     0     0   502     0  0.000000000E+00  0.000000000E+00  7.542583627E+01  7.542583627E+01  0.000000000E+00  0.00000E+00  9.000E+00
      21    -1     0     0   501   502  0.000000000E+00  0.000000000E+00 -6.445292527E+02  6.445292527E+02  0.000000000E+00  0.00000E+00  9.000E+00
      25     1     1     2     0     0 -9.446841291E+01  6.058521820E+01 -1.732593693E+02  2.413268712E+02  1.250000000E+02  0.00000E+00  9.000E+00
      25     1     1     2     0     0  4.067567114E+01 -1.183508538E+02 -3.354977189E+02  3.792692371E+02  1.250000000E+02  0.00000E+00  9.000E+00
       2     1     1     2   501     0  5.379274177E+01  5.776563556E+01 -6.034632829E+01  9.935898076E+01  9.536743164E-07  0.00000E+00  9.000E+00
#rwgt            1           1   4.3693460649885878E-002           6      347500           0
</event>
<event>
      5   9999  3.79277E-02  2.18383E+01 -1.00000E+00  1.63279E-01
      21    -1     0     0   502   511  0.000000000E+00  0.000000000E+00  7.677775239E+01  7.677775239E+01  0.000000000E+00  0.00000E+00  9.000E+00
      21    -1     0     0   501   502  0.000000000E+00  0.000000000E+00 -7.220933331E+02  7.220933331E+02  0.000000000E+00  0.00000E+00  9.000E+00
      25     1     1     2     0     0  1.128771615E+02  4.301094578E+01 -1.552372629E+02  2.330553644E+02  1.250000000E+02  0.00000E+00  9.000E+00
      25     1     1     2     0     0 -9.508217208E+01 -5.566990759E+01 -5.098309100E+02  5.363695693E+02  1.250000000E+02  0.00000E+00  9.000E+00
      21     1     1     2   501   511 -1.779498944E+01  1.265896181E+01  1.975259219E+01  2.944615190E+01  7.152557373E-07  0.00000E+00  9.000E+00
#rwgt            1           1   4.1862105336422699E-002           6      347575           0
</event>
<event>
      5   9999  3.79277E-02  2.58318E+01 -1.00000E+00  1.57693E-01
      21    -1     0     0   502   501  0.000000000E+00  0.000000000E+00  1.845100088E+02  1.845100088E+02  0.000000000E+00  0.00000E+00  9.000E+00
      21    -1     0     0   512   502  0.000000000E+00  0.000000000E+00 -3.780485410E+02  3.780485410E+02  0.000000000E+00  0.00000E+00  9.000E+00
      25     1     1     2     0     0 -2.041890005E+02 -7.180568270E+01 -1.347878959E+02  2.839753173E+02  1.250000000E+02  0.00000E+00  9.000E+00
      25     1     1     2     0     0  1.950594789E+02  4.764094922E+01 -2.761821787E+01  2.381294318E+02  1.250000000E+02  0.00000E+00  9.000E+00
      21     1     1     2   512   501  9.129521548E+00  2.416473348E+01 -3.113241845E+01  4.045380064E+01  4.768371582E-07  0.00000E+00  9.000E+00
#rwgt            1           1   7.2956850620871899E-002           6      347751           0
</event>
<event>
      5   9999  3.79277E-02  6.17757E+01 -1.00000E+00  1.34030E-01
      21    -1     0     0   511   501  0.000000000E+00  0.000000000E+00  3.791411641E+02  3.791411641E+02  0.000000000E+00  0.00000E+00  9.000E+00
      21    -1     0     0   501   502  0.000000000E+00  0.000000000E+00 -2.681251046E+02  2.681251046E+02  0.000000000E+00  0.00000E+00  9.000E+00
      25     1     1     2     0     0  3.385678274E+01 -1.979762129E+02 -1.478178478E+02  2.789551554E+02  1.250000000E+02  0.00000E+00  9.000E+00
      25     1     1     2     0     0 -5.990398026E+01  1.419603237E+02  1.778275977E+02  2.664373751E+02  1.250000000E+02  0.00000E+00  9.000E+00
      21     1     1     2   511   502  2.604719751E+01  5.601588921E+01  8.100630952E+01  1.018737381E+02  9.536743164E-07  0.00000E+00  9.000E+00
#rwgt            1           1   4.0565845064904613E-002           6      347903           0
</event>
<event>
      5   9999  3.79277E-02  4.20585E+01 -1.00000E+00  1.43501E-01
      21    -1     0     0   502   501  0.000000000E+00  0.000000000E+00  1.172269154E+02  1.172269154E+02  0.000000000E+00  0.00000E+00  9.000E+00
      21    -1     0     0   512   502  0.000000000E+00  0.000000000E+00 -5.860226499E+02  5.860226499E+02  0.000000000E+00  0.00000E+00  9.000E+00
      25     1     1     2     0     0  1.952534466E+02 -1.410344672E+01 -9.966151865E+01  2.527453934E+02  1.250000000E+02  0.00000E+00  9.000E+00
      25     1     1     2     0     0 -1.596748404E+02 -8.325997558E+00 -2.379714350E+02  3.127631384E+02  1.250000000E+02  0.00000E+00  9.000E+00
      21     1     1     2   512   501 -3.557860615E+01  2.242944428E+01 -1.311627809E+02  1.377410334E+02  0.000000000E+00  0.00000E+00  9.000E+00
#rwgt            1           1   3.4426620893082821E-002           6      348067           0
</event>
<event>
      5   9999  3.79277E-02  3.18400E+01 -1.00000E+00  1.51266E-01
      21    -1     0     0   502   501  0.000000000E+00  0.000000000E+00  6.717359017E+02  6.717359017E+02  0.000000000E+00  0.00000E+00  9.000E+00
      21    -1     0     0   511   502  0.000000000E+00  0.000000000E+00 -3.971285649E+02  3.971285649E+02  0.000000000E+00  0.00000E+00  9.000E+00
      25     1     1     2     0     0 -1.752078564E+02  8.584319977E+01  1.784784428E+02  2.924831661E+02  1.250000000E+02  0.00000E+00  9.000E+00
      25     1     1     2     0     0  1.606515126E+02 -1.141610319E+02  4.041630587E+02  4.667059328E+02  1.250000000E+02  0.00000E+00  9.000E+00
      21     1     1     2   511   501  1.455634381E+01  2.831783211E+01 -3.080341646E+02  3.096753677E+02  5.394796609E-06  0.00000E+00  9.000E+00
#rwgt            1           1   3.8155454558502430E-002           6      348160           0
</event>
<event>
      5   9999  3.79277E-02  6.03066E+01 -1.00000E+00  1.34585E-01
      21    -1     0     0   502   512  0.000000000E+00  0.000000000E+00  6.939171513E+01  6.939171513E+01  0.000000000E+00  0.00000E+00  9.000E+00
      21    -1     0     0   501   502  0.000000000E+00  0.000000000E+00 -1.136443485E+03  1.136443485E+03  0.000000000E+00  0.00000E+00  9.000E+00
      25     1     1     2     0     0 -2.291576306E+00 -1.623053098E+02 -9.018846789E+02  9.248617405E+02  1.250000000E+02  0.00000E+00  9.000E+00
      25     1     1     2     0     0 -2.027000062E+01  1.063780499E+02 -1.056900504E+02  1.962716209E+02  1.250000000E+02  0.00000E+00  9.000E+00
      21     1     1     2   501   512  2.256157692E+01  5.592725993E+01 -5.947704102E+01  8.470183921E+01  9.536743164E-07  0.00000E+00  9.000E+00
#rwgt            1           1   3.6515649452753117E-002           6      348376           0
</event>
<event>
      5   9999  3.79277E-02  1.78764E+01 -1.00000E+00  1.70494E-01
      21    -1     0     0   502   511  0.000000000E+00  0.000000000E+00  9.669960452E+02  9.669960452E+02  0.000000000E+00  0.00000E+00  9.000E+00
      21    -1     0     0   501   502  0.000000000E+00  0.000000000E+00 -1.695812976E+02  1.695812976E+02  0.000000000E+00  0.00000E+00  9.000E+00
      25     1     1     2     0     0  8.822351864E+01 -6.311833456E+01 -1.011803136E+02  1.939839407E+02  1.250000000E+02  0.00000E+00  9.000E+00
      25     1     1     2     0     0 -9.824702061E+01  7.792024212E+01  3.367124508E+02  3.804264919E+02  1.250000000E+02  0.00000E+00  9.000E+00
      21     1     1     2   501   511  1.002350196E+01 -1.480190756E+01  5.618826104E+02  5.621669102E+02  1.078959322E-05  0.00000E+00  9.000E+00
#rwgt            1           1   3.0653102794804328E-002           6      348481           0
</event>
<event>
      5   9999  3.79277E-02  4.64546E+01 -1.00000E+00  1.40923E-01
      21    -1     0     0   502   501  0.000000000E+00  0.000000000E+00  1.405327236E+02  1.405327236E+02  0.000000000E+00  0.00000E+00  9.000E+00
      21    -1     0     0   501   512  0.000000000E+00  0.000000000E+00 -3.574283722E+02  3.574283722E+02  0.000000000E+00  0.00000E+00  9.000E+00
      25     1     1     2     0     0 -7.640953535E+01  5.848558015E+01 -8.331308457E+01  1.783957686E+02  1.250000000E+02  0.00000E+00  9.000E+00
      25     1     1     2     0     0  1.129553303E+02 -2.980741951E+01  7.273748812E+00  1.712463031E+02  1.250000000E+02  0.00000E+00  9.000E+00
      21     1     1     2   502   512 -3.654579497E+01 -2.867816065E+01 -1.408563129E+02  1.483190241E+02  1.907348633E-06  0.00000E+00  9.000E+00
#rwgt            1           1   4.1507762209595400E-002           6      348688           0
</event>
<event>
      5   9999  3.79277E-02  4.41619E+01 -1.00000E+00  1.42224E-01
       2    -1     0     0   502     0  0.000000000E+00  0.000000000E+00  8.477759744E+02  8.477759744E+02  0.000000000E+00  0.00000E+00  9.000E+00
      21    -1     0     0   501   502  0.000000000E+00  0.000000000E+00 -6.211184673E+01  6.211184673E+01  0.000000000E+00  0.00000E+00  9.000E+00
      25     1     1     2     0     0 -8.044367316E+01 -1.564699574E-01  1.339273429E+02  2.000818388E+02  1.250000000E+02  0.00000E+00  9.000E+00
      25     1     1     2     0     0  1.116566238E+02  3.139781720E+01  2.329285569E+02  2.886758341E+02  1.250000000E+02  0.00000E+00  9.000E+00
       2     1     1     2   501     0 -3.121295065E+01 -3.124134725E+01  4.188082277E+02  4.211301482E+02  0.000000000E+00  0.00000E+00  9.000E+00
#rwgt            1           1   5.4493666505548134E-002           6      348828           0
</event>
<event>
      5   9999  3.79277E-02  4.41727E+01 -1.00000E+00  1.42217E-01
      21    -1     0     0   502   501  0.000000000E+00  0.000000000E+00  3.075093030E+02  3.075093030E+02  0.000000000E+00  0.00000E+00  9.000E+00
      21    -1     0     0   501   511  0.000000000E+00  0.000000000E+00 -2.840842289E+02  2.840842289E+02  0.000000000E+00  0.00000E+00  9.000E+00
      25     1     1     2     0     0 -2.425093877E+01  1.784793213E+02 -1.424072221E+02  2.614341084E+02  1.250000000E+02  0.00000E+00  9.000E+00
      25     1     1     2     0     0  1.684797171E+01 -1.349313348E+02  2.015286621E+02  2.733662761E+02  1.250000000E+02  0.00000E+00  9.000E+00
      21     1     1     2   502   511  7.402967060E+00 -4.354798644E+01 -3.569636591E+01  5.679314733E+01  0.000000000E+00  0.00000E+00  9.000E+00
#rwgt            1           1   4.7615390135630264E-002           6      348939           0
</event>
<event>
      5   9999  3.79277E-02  5.37438E+01 -1.00000E+00  1.37310E-01
       1    -1     0     0   502     0  0.000000000E+00  0.000000000E+00  2.609148788E+02  2.609148788E+02  0.000000000E+00  0.00000E+00  9.000E+00
      21    -1     0     0   501   502  0.000000000E+00  0.000000000E+00 -2.692389392E+02  2.692389392E+02  0.000000000E+00  0.00000E+00  9.000E+00
      25     1     1     2     0     0 -3.584907724E+01 -1.883330839E+02 -2.117278696E+01  2.298429763E+02  1.250000000E+02  0.00000E+00  9.000E+00
      25     1     1     2     0     0  3.127989158E+01  1.347838697E+02  8.938924204E+01  2.067862659E+02  1.250000000E+02  0.00000E+00  9.000E+00
       1     1     1     2   501     0  4.569185664E+00  5.354921419E+01 -7.654051544E+01  9.352457593E+01  9.536743164E-07  0.00000E+00  9.000E+00
#rwgt            1           1   2.8372705824525047E-002           6      349073           0
</event>
<event>
      5   9999  3.79277E-02  1.54952E+02 -1.00000E+00  1.15837E-01
      21    -1     0     0   511   501  0.000000000E+00  0.000000000E+00  2.486270097E+02  2.486270097E+02  0.000000000E+00  0.00000E+00  9.000E+00
      21    -1     0     0   501   502  0.000000000E+00  0.000000000E+00 -1.873950940E+03  1.873950940E+03  0.000000000E+00  0.00000E+00  9.000E+00
      25     1     1     2     0     0  4.288185113E+01 -5.659897729E+01 -1.502685346E+03  1.509546470E+03  1.250000000E+02  0.00000E+00  9.000E+00
      25     1     1     2     0     0 -1.197142310E+02 -7.796285262E+01 -3.139269692E+02  3.668580727E+02  1.250000000E+02  0.00000E+00  9.000E+00
      21     1     1     2   511   502  7.683237987E+01  1.345618299E+02  1.912883841E+02  2.461734075E+02  9.344061824E-06  0.00000E+00  9.000E+00
#rwgt            1           1   3.6007260316754157E-002           6      349214           0
</event>
<event>
      5   9999  3.79277E-02  3.81439E+01 -1.00000E+00  1.46132E-01
      21    -1     0     0   502   501  0.000000000E+00  0.000000000E+00  7.453793944E+01  7.453793944E+01  0.000000000E+00  0.00000E+00  9.000E+00
      21    -1     0     0   501   512  0.000000000E+00  0.000000000E+00 -1.021918290E+03  1.021918290E+03  0.000000000E+00  0.00000E+00  9.000E+00
      25     1     1     2     0     0 -7.848140911E+01 -1.855829770E+02 -4.713678882E+02  5.276486131E+02  1.250000000E+02  0.00000E+00  9.000E+00
      25     1     1     2     0     0  1.164055206E+02  1.814940133E+02 -3.064233056E+02  3.949817265E+02  1.250000000E+02  0.00000E+00  9.000E+00
      21     1     1     2   502   512 -3.792411147E+01  4.088963668E+00 -1.695891566E+02  1.738258896E+02  2.697398305E-06  0.00000E+00  9.000E+00
#rwgt            1           1   4.4577173142725482E-002           6      349258           0
</event>
<event>
      5   9999  3.79277E-02  6.70220E+01 -1.00000E+00  1.32184E-01
       2    -1     0     0   502     0  0.000000000E+00  0.000000000E+00  2.761796427E+02  2.761796427E+02  0.000000000E+00  0.00000E+00  9.000E+00
      21    -1     0     0   501   502  0.000000000E+00  0.000000000E+00 -2.955838421E+02  2.955838421E+02  0.000000000E+00  0.00000E+00  9.000E+00
      25     1     1     2     0     0  3.163215151E+01 -2.151862855E+02 -4.556391347E+01  2.549643126E+02  1.250000000E+02  0.00000E+00  9.000E+00
      25     1     1     2     0     0  3.506861079E+01  2.086325192E+02  2.553406932E+00  2.457414402E+02  1.250000000E+02  0.00000E+00  9.000E+00
       2     1     1     2   501     0 -6.670076230E+01  6.553766338E+00  2.360630720E+01  7.105773205E+01  1.685873940E-06  0.00000E+00  9.000E+00
#rwgt            1           1   3.4273890638200022E-002           6      349404           0
</event>
<event>
      5   9999  3.79277E-02  3.16150E+01 -1.00000E+00  1.51475E-01
      21    -1     0     0   502   501  0.000000000E+00  0.000000000E+00  1.403467791E+03  1.403467791E+03  0.000000000E+00  0.00000E+00  9.000E+00
      21    -1     0     0   501   511  0.000000000E+00  0.000000000E+00 -4.855721992E+01  4.855721992E+01  0.000000000E+00  0.00000E+00  9.000E+00
      25     1     1     2     0     0  8.886363493E+01  1.480730053E+02  6.080967602E+02  6.443826738E+02  1.250000000E+02  0.00000E+00  9.000E+00
      25     1     1     2     0     0 -5.795203230E+01 -1.547046742E+02  7.478471116E+02  7.760104874E+02  1.250000000E+02  0.00000E+00  9.000E+00
      21     1     1     2   502   511 -3.091160262E+01  6.631668903E+00 -1.033300644E+00  3.163184976E+01  1.145064798E-06  0.00000E+00  9.000E+00
#rwgt            1           1   3.6026463308353428E-002           6      349537           0
</event>
<event>
      5   9999  3.79277E-02  3.75083E+01 -1.00000E+00  1.46594E-01
      21    -1     0     0   502   501  0.000000000E+00  0.000000000E+00  7.426102225E+02  7.426102225E+02  0.000000000E+00  0.00000E+00  9.000E+00
      21    -1     0     0   501   512  0.000000000E+00  0.000000000E+00 -1.184041530E+02  1.184041530E+02  0.000000000E+00  0.00000E+00  9.000E+00
      25     1     1     2     0     0 -6.748442756E+01  1.113492265E+02  2.241106121E+02  2.877557379E+02  1.250000000E+02  0.00000E+00  9.000E+00
      25     1     1     2     0     0  3.827063179E+01 -1.348743291E+02  4.632075485E+02  4.998419339E+02  1.250000000E+02  0.00000E+00  9.000E+00
      21     1     1     2   502   512  2.921379577E+01  2.352510258E+01 -6.311209121E+01  7.341670363E+01  2.023048729E-06  0.00000E+00  9.000E+00
#rwgt            1           1   4.4045728832264042E-002           6      349668           0
</event>
<event>
      5   9999  3.79277E-02  1.83575E+01 -1.00000E+00  1.69499E-01
      21    -1     0     0   511   501  0.000000000E+00  0.000000000E+00  8.165517861E+02  8.165517861E+02  0.000000000E+00  0.00000E+00  9.000E+00
      21    -1     0     0   501   502  0.000000000E+00  0.000000000E+00 -8.403316596E+01  8.403316596E+01  0.000000000E+00  0.00000E+00  9.000E+00
      25     1     1     2     0     0 -4.991128320E+01  2.075570538E+02  3.015305125E+02  3.900214311E+02  1.250000000E+02  0.00000E+00  9.000E+00
      25     1     1     2     0     0  5.881225298E+01 -1.915017783E+02  3.179348717E+02  3.960295378E+02  1.250000000E+02  0.00000E+00  9.000E+00
      21     1     1     2   511   502 -8.900969778E+00 -1.605527543E+01  1.130532360E+02  1.145339832E+02  1.907348633E-06  0.00000E+00  9.000E+00
#rwgt            1           1  0.17500692330985052                6      349778           0
</event>
<event>
      5   9999  3.79277E-02  2.39305E+01 -1.00000E+00  1.60186E-01
      21    -1     0     0   502   501  0.000000000E+00  0.000000000E+00  3.925129412E+02  3.925129412E+02  0.000000000E+00  0.00000E+00  9.000E+00
      21    -1     0     0   501   512  0.000000000E+00  0.000000000E+00 -5.332578890E+01  5.332578890E+01  0.000000000E+00  0.00000E+00  9.000E+00
      25     1     1     2     0     0 -3.926879725E+00 -4.001261908E+01  1.400843207E+02  1.920027264E+02  1.250000000E+02  0.00000E+00  9.000E+00
      25     1     1     2     0     0 -1.264919622E+01  2.275273149E+01  1.884737266E+02  2.276511247E+02  1.250000000E+02  0.00000E+00  9.000E+00
      21     1     1     2   502   512  1.657607595E+01  1.725988758E+01  1.062910511E+01  2.618487901E+01  3.153981341E-07  0.00000E+00  9.000E+00
#rwgt            1           1   1.1857848307687314E-003           6      350256           0
</event>
<event>
      5   9999  3.79277E-02  5.39013E+01 -1.00000E+00  1.37239E-01
      21    -1     0     0   502   511  0.000000000E+00  0.000000000E+00  1.779819921E+03  1.779819921E+03  0.000000000E+00  0.00000E+00  9.000E+00
      21    -1     0     0   501   502  0.000000000E+00  0.000000000E+00 -7.287854932E+01  7.287854932E+01  0.000000000E+00  0.00000E+00  9.000E+00
      25     1     1     2     0     0  1.883955494E+02 -5.281194580E+01  1.109800095E+03  1.133826810E+03  1.250000000E+02  0.00000E+00  9.000E+00
      25     1     1     2     0     0 -2.316157021E+02  8.502012304E+01  2.672505517E+02  3.846064380E+02  1.250000000E+02  0.00000E+00  9.000E+00
      21     1     1     2   501   511  4.322015272E+01 -3.220817723E+01  3.298907245E+02  3.342652216E+02  5.394796609E-06  0.00000E+00  9.000E+00
#rwgt            1           1   4.7668350880142513E-002           6      350458           0
</event>
<event>
      5   9999  3.79277E-02  3.34612E+01 -1.00000E+00  1.49818E-01
      21    -1     0     0   512   501  0.000000000E+00  0.000000000E+00  2.564231072E+02  2.564231072E+02  0.000000000E+00  0.00000E+00  9.000E+00
      21    -1     0     0   501   502  0.000000000E+00  0.000000000E+00 -1.446293680E+02  1.446293680E+02  0.000000000E+00  0.00000E+00  9.000E+00
      25     1     1     2     0     0 -9.437703067E+01  7.018432702E+01  2.627579198E+01  1.736326033E+02  1.250000000E+02  0.00000E+00  9.000E+00
      25     1     1     2     0     0  1.062277120E+02 -3.889192031E+01  4.426472316E+01  1.743022489E+02  1.250000000E+02  0.00000E+00  9.000E+00
      21     1     1     2   512   502 -1.185068137E+01 -3.129240671E+01  4.125322408E+01  5.311762291E+01  4.768371582E-07  0.00000E+00  9.000E+00
#rwgt            1           1   4.1443736000196067E-002           6      350610           0
</event>
<event>
      5   9999  3.79277E-02  7.16524E+00 -1.00000E+00  2.14131E-01
      21    -1     0     0   502   501  0.000000000E+00  0.000000000E+00  1.391783084E+03  1.391783084E+03  0.000000000E+00  0.00000E+00  9.000E+00
      21    -1     0     0   501   511  0.000000000E+00  0.000000000E+00 -9.167551444E+01  9.167551444E+01  0.000000000E+00  0.00000E+00  9.000E+00
      25     1     1     2     0     0 -9.689539320E+01  2.372077692E+02  8.541764327E+02  9.004990956E+02  1.250000000E+02  0.00000E+00  9.000E+00
      25     1     1     2     0     0  9.837527029E+01 -2.442185186E+02  4.726553864E+02  5.552913586E+02  1.250000000E+02  0.00000E+00  9.000E+00
      21     1     1     2   502   511 -1.479877086E+00  7.010749432E+00 -2.672424999E+01  2.766814380E+01  1.011524364E-06  0.00000E+00  9.000E+00
#rwgt            1           1   8.5208660541702286E-002           6      350717           0
</event>
<event>
      5   9999  3.79277E-02  6.34659E+01 -1.00000E+00  1.33413E-01
      21    -1     0     0   502   501  0.000000000E+00  0.000000000E+00  7.076086080E+02  7.076086080E+02  0.000000000E+00  0.00000E+00  9.000E+00
      21    -1     0     0   501   512  0.000000000E+00  0.000000000E+00 -1.243193320E+02  1.243193320E+02  0.000000000E+00  0.00000E+00  9.000E+00
      25     1     1     2     0     0 -1.763580647E+02 -9.442151284E+01  5.160600670E+02  5.674157045E+02  1.250000000E+02  0.00000E+00  9.000E+00
      25     1     1     2     0     0  1.265538681E+02  5.508374212E+01  2.406991808E+01  1.877617137E+02  1.250000000E+02  0.00000E+00  9.000E+00
      21     1     1     2   502   512  4.980419656E+01  3.933777072E+01  4.315929099E+01  7.675052182E+01  8.259061849E-07  0.00000E+00  9.000E+00
#rwgt            1           1   4.8825626077632127E-002           6      351170           0
</event>
<event>
      5   9999  3.79277E-02  4.72917E+01 -1.00000E+00  1.40470E-01
      21    -1     0     0   511   501  0.000000000E+00  0.000000000E+00  7.267922841E+02  7.267922841E+02  0.000000000E+00  0.00000E+00  9.000E+00
      21    -1     0     0   501   502  0.000000000E+00  0.000000000E+00 -8.351889079E+01  8.351889079E+01  0.000000000E+00  0.00000E+00  9.000E+00
      25     1     1     2     0     0  1.168957563E+01  9.639785497E+01  2.464886231E+02  2.929348630E+02  1.250000000E+02  0.00000E+00  9.000E+00
      25     1     1     2     0     0  3.280843398E+01 -1.124112197E+02  6.652506590E+01  1.837478165E+02  1.250000000E+02  0.00000E+00  9.000E+00
      21     1     1     2   511   502 -4.449800961E+01  1.601336476E+01  3.302597043E+02  3.336284955E+02  3.814697266E-06  0.00000E+00  9.000E+00
#rwgt            1           1   2.8135507267243134E-002           6      351320           0
</event>
<event>
      5   9999  3.79277E-02  6.74944E+01 -1.00000E+00  1.32027E-01
      21    -1     0     0   512   501  0.000000000E+00  0.000000000E+00  1.020927586E+03  1.020927586E+03  0.000000000E+00  0.00000E+00  9.000E+00
      21    -1     0     0   501   502  0.000000000E+00  0.000000000E+00 -1.728701861E+02  1.728701861E+02  0.000000000E+00  0.00000E+00  9.000E+00
      25     1     1     2     0     0 -6.559793734E+01 -7.539934730E+00 -1.194042639E+02  1.850468001E+02  1.250000000E+02  0.00000E+00  9.000E+00
      25     1     1     2     0     0 -1.819375382E+00  1.076492432E+01  1.859175818E+02  2.242978844E+02  1.250000000E+02  0.00000E+00  9.000E+00
      21     1     1     2   512   502  6.741731272E+01 -3.224989589E+00  7.815440824E+02  7.844530881E+02  1.078959322E-05  0.00000E+00  9.000E+00
#rwgt            1           1   4.9863507578407962E-002           6      351412           0
</event>
<event>
      5   9999  3.79277E-02  3.74435E+01 -1.00000E+00  1.46642E-01
      21    -1     0     0   502   501  0.000000000E+00  0.000000000E+00  7.488513263E+02  7.488513263E+02  0.000000000E+00  0.00000E+00  9.000E+00
      -2    -1     0     0     0   502  0.000000000E+00  0.000000000E+00 -1.151821260E+03  1.151821260E+03  0.000000000E+00  0.00000E+00  9.000E+00
      25     1     1     2     0     0 -1.048923891E+02 -2.555611884E+02  2.343819051E+02  3.832411926E+02  1.250000000E+02  0.00000E+00  9.000E+00
      25     1     1     2     0     0  7.790406012E+01  2.296065461E+02  3.973921857E+02  4.820101222E+02  1.250000000E+02  0.00000E+00  9.000E+00
      -2     1     1     2     0   501  2.698832893E+01  2.595464228E+01 -1.034744024E+03  1.035421272E+03  1.525878906E-05  0.00000E+00  9.000E+00
#rwgt            1           1   3.5011217688271729E-002           6      351490           0
</event>
<event>
      5   9999  3.79277E-02  6.98679E+01 -1.00000E+00  1.31262E-01
      -1    -1     0     0     0   501  0.000000000E+00  0.000000000E+00  5.140238420E+02  5.140238420E+02  0.000000000E+00  0.00000E+00  9.000E+00
      21    -1     0     0   501   502  0.000000000E+00  0.000000000E+00 -8.906971831E+02  8.906971831E+02  0.000000000E+00  0.00000E+00  9.000E+00
      25     1     1     2     0     0 -8.463336288E+01 -1.504164674E+02 -3.763489718E+02  4.324944720E+02  1.250000000E+02  0.00000E+00  9.000E+00
      25     1     1     2     0     0  1.258910227E+02  9.403093089E+01 -4.628125663E+02  5.044906709E+02  1.250000000E+02  0.00000E+00  9.000E+00
      -1     1     1     2     0   502 -4.125765979E+01  5.638553650E+01  4.624881969E+02  4.677358822E+02  7.629394531E-06  0.00000E+00  9.000E+00
#rwgt            1           1   7.3450804465057959E-002           6      351620           0
</event>
<event>
      5   9999  3.79277E-02  4.57477E+01 -1.00000E+00  1.41314E-01
      21    -1     0     0   502   501  0.000000000E+00  0.000000000E+00  5.684673589E+01  5.684673589E+01  0.000000000E+00  0.00000E+00  9.000E+00
       2    -1     0     0   501     0  0.000000000E+00  0.000000000E+00 -1.630259512E+03  1.630259512E+03  0.000000000E+00  0.00000E+00  9.000E+00
      25     1     1     2     0     0 -1.615538077E+02 -2.528195018E+01 -1.932859074E+02  2.823530623E+02  1.250000000E+02  0.00000E+00  9.000E+00
      25     1     1     2     0     0  1.752023248E+02 -1.838236554E+01 -1.155054375E+03  1.175078455E+03  1.250000000E+02  0.00000E+00  9.000E+00
       2     1     1     2   502     0 -1.364851705E+01  4.366431572E+01 -2.250724942E+02  2.296747311E+02  2.697398305E-06  0.00000E+00  9.000E+00
#rwgt            1           1   3.2817566632605800E-002           6      351832           0
</event>
<event>
      5   9999  3.79277E-02  5.21726E+01 -1.00000E+00  1.38030E-01
      -1    -1     0     0     0   501  0.000000000E+00  0.000000000E+00  1.695541837E+03  1.695541837E+03  0.000000000E+00  0.00000E+00  9.000E+00
      21    -1     0     0   501   502  0.000000000E+00  0.000000000E+00 -1.711512996E+02  1.711512996E+02  0.000000000E+00  0.00000E+00  9.000E+00
      25     1     1     2     0     0 -3.175036813E+02  1.413535132E+02  1.883202601E+02  4.145828310E+02  1.250000000E+02  0.00000E+00  9.000E+00
      25     1     1     2     0     0  2.867508089E+02 -9.920805357E+01  4.127166381E+02  5.272838777E+02  1.250000000E+02  0.00000E+00  9.000E+00
      -1     1     1     2     0   502  3.075287242E+01 -4.214545967E+01  9.233536394E+02  9.248264282E+02  1.078959322E-05  0.00000E+00  9.000E+00
#rwgt            1           1   1.1825159928098319E-002           6      351910           0
</event>
<event>
      5   9999  3.79277E-02  2.38667E+01 -1.00000E+00  1.60275E-01
      21    -1     0     0   511   501  0.000000000E+00  0.000000000E+00  5.543011789E+02  5.543011789E+02  0.000000000E+00  0.00000E+00  9.000E+00
      21    -1     0     0   501   502  0.000000000E+00  0.000000000E+00 -8.917996927E+01  8.917996927E+01  0.000000000E+00  0.00000E+00  9.000E+00
      25     1     1     2     0     0 -9.171304726E+01 -1.324350860E+02  1.297344517E+02  2.416740843E+02  1.250000000E+02  0.00000E+00  9.000E+00
      25     1     1     2     0     0  6.794607730E+01  1.302552687E+02  2.671030240E+02  3.294725024E+02  1.250000000E+02  0.00000E+00  9.000E+00
      21     1     1     2   511   502  2.376696996E+01  2.179817272E+00  6.828373388E+01  7.233456142E+01  9.536743164E-07  0.00000E+00  9.000E+00
#rwgt            1           1   2.3972530416201971E-002           6      352076           0
</event>
<event>
      5   9999  3.79277E-02  4.17061E+01 -1.00000E+00  1.43724E-01
      21    -1     0     0   502   512  0.000000000E+00  0.000000000E+00  2.272409577E+02  2.272409577E+02  0.000000000E+00  0.00000E+00  9.000E+00
      21    -1     0     0   501   502  0.000000000E+00  0.000000000E+00 -1.804626373E+02  1.804626373E+02  0.000000000E+00  0.00000E+00  9.000E+00
      25     1     1     2     0     0  8.819377153E+01 -4.488199725E+01 -3.127080004E+01  1.624666056E+02  1.250000000E+02  0.00000E+00  9.000E+00
      25     1     1     2     0     0 -5.957965446E+01  1.454006508E+01 -1.812528484E+01  1.404089551E+02  1.250000000E+02  0.00000E+00  9.000E+00
      21     1     1     2   501   512 -2.861411707E+01  3.034193218E+01  9.617440529E+01  1.048280343E+02  0.000000000E+00  0.00000E+00  9.000E+00
#rwgt            1           1   9.5736041656243359E-002           6      352341           0
</event>
<event>
      5   9999  3.79277E-02  4.81769E+01 -1.00000E+00  1.40002E-01
      21    -1     0     0   502   501  0.000000000E+00  0.000000000E+00  2.907316033E+02  2.907316033E+02  0.000000000E+00  0.00000E+00  9.000E+00
      21    -1     0     0   501   511  0.000000000E+00  0.000000000E+00 -2.065861310E+03  2.065861310E+03  0.000000000E+00  0.00000E+00  9.000E+00
      25     1     1     2     0     0 -1.963660861E+02  8.846842255E+01 -1.695794758E+02  3.012781110E+02  1.250000000E+02  0.00000E+00  9.000E+00
      25     1     1     2     0     0  1.817056692E+02 -4.257635524E+01  1.683834393E+02  2.807270541E+02  1.250000000E+02  0.00000E+00  9.000E+00
      21     1     1     2   502   511  1.466041693E+01 -4.589206732E+01 -1.773933670E+03  1.774587748E+03  2.157918644E-05  0.00000E+00  9.000E+00
#rwgt            1           1   1.4507006502679809E-002           6      352461           0
</event>
<event>
      5   9999  3.79277E-02  5.76744E+00 -1.00000E+00  2.28172E-01
      21    -1     0     0   502   501  0.000000000E+00  0.000000000E+00  1.354179752E+01  1.354179752E+01  0.000000000E+00  0.00000E+00  9.000E+00
      21    -1     0     0   512   502  0.000000000E+00  0.000000000E+00 -2.668532696E+03  2.668532696E+03  0.000000000E+00  0.00000E+00  9.000E+00
      25     1     1     2     0     0  5.525079889E+01 -8.709191351E+01 -1.731521805E+03  1.739088961E+03  1.250000000E+02  0.00000E+00  9.000E+00
      25     1     1     2     0     0 -5.272931010E+01  9.227895877E+01 -6.824179842E+02  7.018654370E+02  1.250000000E+02  0.00000E+00  9.000E+00
      21     1     1     2   512   501 -2.521488791E+00 -5.187045260E+00 -2.410511089E+02  2.411200955E+02  2.697398305E-06  0.00000E+00  9.000E+00
#rwgt            1           1   5.3798635864865621E-002           6      352765           0
</event>
<event>
      5   9999  3.79277E-02  2.21056E+01 -1.00000E+00  1.62860E-01
      21    -1     0     0   502   511  0.000000000E+00  0.000000000E+00  4.385642551E+02  4.385642551E+02  0.000000000E+00  0.00000E+00  9.000E+00
      21    -1     0     0   501   502  0.000000000E+00  0.000000000E+00 -1.590832948E+02  1.590832948E+02  0.000000000E+00  0.00000E+00  9.000E+00
      25     1     1     2     0     0 -2.834400160E+01  1.035237774E+02  1.089814021E+02  1.975411373E+02  1.250000000E+02  0.00000E+00  9.000E+00
      25     1     1     2     0     0  4.978430007E+01 -9.814132838E+01 -5.357491731E+01  1.749441872E+02  1.250000000E+02  0.00000E+00  9.000E+00
      21     1     1     2   501   511 -2.144029846E+01 -5.382449048E+00  2.240744755E+02  2.251622253E+02  2.697398305E-06  0.00000E+00  9.000E+00
#rwgt            1           1   4.5491827582074276E-002           6      353215           0
</event>
<event>
      5   9999  3.79277E-02  1.26189E+02 -1.00000E+00  1.19449E-01
      21    -1     0     0   502   501  0.000000000E+00  0.000000000E+00  5.573196904E+02  5.573196904E+02  0.000000000E+00  0.00000E+00  9.000E+00
      21    -1     0     0   501   512  0.000000000E+00  0.000000000E+00 -5.201747837E+02  5.201747837E+02  0.000000000E+00  0.00000E+00  9.000E+00
      25     1     1     2     0     0  7.276437889E+01 -6.019047671E+01  2.856646507E+02  3.258018432E+02  1.250000000E+02  0.00000E+00  9.000E+00
      25     1     1     2     0     0 -1.908879889E+02  1.045799355E+02  1.774726248E+02  3.074031876E+02  1.250000000E+02  0.00000E+00  9.000E+00
      21     1     1     2   502   512  1.181236100E+02 -4.438945874E+01 -4.259923687E+02  4.442894434E+02  5.394796609E-06  0.00000E+00  9.000E+00
#rwgt            1           1   5.9466871653102077E-002           6      353393           0
</event>
<event>
      5   9999  3.79277E-02  1.11898E+02 -1.00000E+00  1.21671E-01
      21    -1     0     0   502   501  0.000000000E+00  0.000000000E+00  5.953647681E+01  5.953647681E+01  0.000000000E+00  0.00000E+00  9.000E+00
       2    -1     0     0   501     0  0.000000000E+00  0.000000000E+00 -2.614331996E+03  2.614331996E+03  0.000000000E+00  0.00000E+00  9.000E+00
      25     1     1     2     0     0  1.149658322E+02 -2.209720556E+02 -5.812018401E+02  6.445668087E+02  1.250000000E+02  0.00000E+00  9.000E+00
      25     1     1     2     0     0 -2.078201671E+02  1.585278898E+02 -8.084963339E+02  8.588431962E+02  1.250000000E+02  0.00000E+00  9.000E+00
       2     1     1     2   502     0  9.285433488E+01  6.244416586E+01 -1.165097345E+03  1.170458468E+03  2.157918644E-05  0.00000E+00  9.000E+00
#rwgt            2          13   6.5938776144251776E-004           6      353811           0
</event>
<event>
      5   9999  3.79277E-02  3.01183E+01 -1.00000E+00  1.52921E-01
      21    -1     0     0   502   501  0.000000000E+00  0.000000000E+00  1.279449245E+02  1.279449245E+02  0.000000000E+00  0.00000E+00  9.000E+00
      21    -1     0     0   501   511  0.000000000E+00  0.000000000E+00 -1.399649271E+03  1.399649271E+03  0.000000000E+00  0.00000E+00  9.000E+00
      25     1     1     2     0     0  1.295346729E+02  7.707449763E+01 -1.640309724E+02  2.554424976E+02  1.250000000E+02  0.00000E+00  9.000E+00
      25     1     1     2     0     0 -1.416337070E+02 -4.949328261E+01 -3.419674333E+01  1.982526399E+02  1.250000000E+02  0.00000E+00  9.000E+00
      21     1     1     2   502   511  1.209903406E+01 -2.758121503E+01 -1.073476631E+03  1.073899058E+03  1.525878906E-05  0.00000E+00  9.000E+00
#rwgt            1           1   4.2205240905946281E-002           6      353830           0
</event>
<event>
      5   9999  3.79277E-02  3.37730E+01 -1.00000E+00  1.49550E-01
      21    -1     0     0   502   501  0.000000000E+00  0.000000000E+00  6.255459546E+02  6.255459546E+02  0.000000000E+00  0.00000E+00  9.000E+00
      21    -1     0     0   512   502  0.000000000E+00  0.000000000E+00 -9.755375956E+02  9.755375956E+02  0.000000000E+00  0.00000E+00  9.000E+00
      25     1     1     2     0     0  3.936708996E+01 -1.016852575E+02  4.926613547E+02  5.198363875E+02  1.250000000E+02  0.00000E+00  9.000E+00
      25     1     1     2     0     0 -1.307026215E+01  8.049352336E+01  7.218348431E+01  1.657874979E+02  1.250000000E+02  0.00000E+00  9.000E+00
      21     1     1     2   512   501 -2.629682781E+01  2.119173411E+01 -9.148364800E+02  9.154596648E+02  0.000000000E+00  0.00000E+00  9.000E+00
#rwgt            1           1   3.6980073996024689E-002           6      354065           0
</event>
<event>
      5   9999  3.79277E-02  2.80220E+01 -1.00000E+00  1.55126E-01
      21    -1     0     0   502   501  0.000000000E+00  0.000000000E+00  8.069929005E+01  8.069929005E+01  0.000000000E+00  0.00000E+00  9.000E+00
      21    -1     0     0   511   502  0.000000000E+00  0.000000000E+00 -6.289224540E+02  6.289224540E+02  0.000000000E+00  0.00000E+00  9.000E+00
      25     1     1     2     0     0  1.476479597E+02 -7.607393771E+00 -1.271309493E+02  2.316140556E+02  1.250000000E+02  0.00000E+00  9.000E+00
      25     1     1     2     0     0 -1.495834443E+02  3.556249121E+01 -3.659772252E+02  4.161781193E+02  1.250000000E+02  0.00000E+00  9.000E+00
      21     1     1     2   511   501  1.935484558E+00 -2.795509744E+01 -5.511498941E+01  6.182956923E+01  6.743495762E-07  0.00000E+00  9.000E+00
#rwgt            1           1   3.2247856126314117E-002           6      354180           0
</event>
<event>
      5   9999  3.79277E-02  5.70302E+01 -1.00000E+00  1.35892E-01
      21    -1     0     0   502   501  0.000000000E+00  0.000000000E+00  6.241853019E+02  6.241853019E+02  0.000000000E+00  0.00000E+00  9.000E+00
       1    -1     0     0   501     0  0.000000000E+00  0.000000000E+00 -2.849726680E+03  2.849726680E+03  0.000000000E+00  0.00000E+00  9.000E+00
      25     1     1     2     0     0 -1.727122892E+02  1.932228593E+02  1.914954791E+02  3.456300431E+02  1.250000000E+02  0.00000E+00  9.000E+00
      25     1     1     2     0     0  1.903964198E+02 -1.390037354E+02  3.052302673E+02  4.054175023E+02  1.250000000E+02  0.00000E+00  9.000E+00
       1     1     1     2   502     0 -1.768413059E+01 -5.421912394E+01 -2.722267124E+03  2.722864436E+03  3.051757812E-05  0.00000E+00  9.000E+00
#rwgt            1           1   3.7452693950396784E-002           6      354282           0
</event>
<event>
      5   9999  3.79277E-02  1.68693E+01 -1.00000E+00  1.72710E-01
      21    -1     0     0   502   501  0.000000000E+00  0.000000000E+00  2.587677385E+02  2.587677385E+02  0.000000000E+00  0.00000E+00  9.000E+00
      21    -1     0     0   511   502  0.000000000E+00  0.000000000E+00 -1.611171836E+02  1.611171836E+02  0.000000000E+00  0.00000E+00  9.000E+00
      25     1     1     2     0     0 -3.680649469E+01  1.009858405E+02 -4.247303441E+01  1.702404672E+02  1.250000000E+02  0.00000E+00  9.000E+00
      25     1     1     2     0     0  4.048927606E+01 -1.174482155E+02  1.488214179E+02  2.306648634E+02  1.250000000E+02  0.00000E+00  9.000E+00
      21     1     1     2   511   501 -3.682781365E+00  1.646237494E+01 -8.697828613E+00  1.897959141E+01  4.768371582E-07  0.00000E+00  9.000E+00
#rwgt            1           1   3.5991916141222352E-002           6      354427           0
</event>
<event>
      5   9999  3.79277E-02  4.73354E+01 -1.00000E+00  1.40446E-01
      21    -1     0     0   502   512  0.000000000E+00  0.000000000E+00  7.551685487E+02  7.551685487E+02  0.000000000E+00  0.00000E+00  9.000E+00
      21    -1     0     0   501   502  0.000000000E+00  0.000000000E+00 -5.980587282E+01  5.980587282E+01  0.000000000E+00  0.00000E+00  9.000E+00
      25     1     1     2     0     0 -1.487104302E+01 -1.060897119E+02  3.087763810E+02  3.499200313E+02  1.250000000E+02  0.00000E+00  9.000E+00
      25     1     1     2     0     0 -2.266510525E+01  1.349284546E+02  2.004430137E+02  2.729868067E+02  1.250000000E+02  0.00000E+00  9.000E+00
      21     1     1     2   501   512  3.753614827E+01 -2.883874274E+01  1.861432812E+02  1.920675835E+02  3.814697266E-06  0.00000E+00  9.000E+00
#rwgt            1           1   4.6432248188047448E-002           6      354685           0
</event>
<event>
      5   9999  3.79277E-02  5.34790E+01 -1.00000E+00  1.37429E-01
      21    -1     0     0   502   511  0.000000000E+00  0.000000000E+00  4.282384898E+01  4.282384898E+01  0.000000000E+00  0.00000E+00  9.000E+00
      21    -1     0     0   501   502  0.000000000E+00  0.000000000E+00 -9.970679515E+02  9.970679515E+02  0.000000000E+00  0.00000E+00  9.000E+00
      25     1     1     2     0     0 -1.331775504E+01 -9.598667442E+01 -2.912962227E+02  3.314653732E+02  1.250000000E+02  0.00000E+00  9.000E+00
      25     1     1     2     0     0  4.759336049E+00  1.487763858E+02 -5.529048402E+02  5.860766388E+02  1.250000000E+02  0.00000E+00  9.000E+00
      21     1     1     2   501   511  8.558418995E+00 -5.278971143E+01 -1.100430397E+02  1.223497885E+02  1.907348633E-06  0.00000E+00  9.000E+00
#rwgt            1           1   4.3864123862165795E-002           6      354829           0
</event>
<event>
      5   9999  3.79277E-02  3.20449E+01 -1.00000E+00  1.51077E-01
      21    -1     0     0   502   512  0.000000000E+00  0.000000000E+00  6.312798495E+02  6.312798495E+02  0.000000000E+00  0.00000E+00  9.000E+00
      21    -1     0     0   501   502  0.000000000E+00  0.000000000E+00 -1.178197777E+02  1.178197777E+02  0.000000000E+00  0.00000E+00  9.000E+00
      25     1     1     2     0     0 -1.887571708E+00 -1.196214234E+02  2.439248242E+02  2.990604750E+02  1.250000000E+02  0.00000E+00  9.000E+00
      25     1     1     2     0     0  6.749625345E+00  1.512953001E+02  1.880280687E+01  1.972672573E+02  1.250000000E+02  0.00000E+00  9.000E+00
      21     1     1     2   501   512 -4.862053637E+00 -3.167387668E+01  2.507324407E+02  2.527718949E+02  4.672030912E-06  0.00000E+00  9.000E+00
#rwgt            1           1   3.5758829564107787E-002           6      355037           0
</event>
<event>
      5   9999 -3.79277E-02  4.82340E+01 -1.00000E+00  1.39972E-01
      21    -1     0     0   502   501  0.000000000E+00  0.000000000E+00  7.853926310E+01  7.853926310E+01  0.000000000E+00  0.00000E+00  9.000E+00
      21    -1     0     0   501   511  0.000000000E+00  0.000000000E+00 -9.398401139E+02  9.398401139E+02  0.000000000E+00  0.00000E+00  9.000E+00
      25     1     1     2     0     0  4.088599989E+00 -1.854636893E+02 -2.454047149E+02  3.320571800E+02  1.250000000E+02  0.00000E+00  9.000E+00
      25     1     1     2     0     0  3.144003040E+01  2.180863327E+02 -5.387669838E+02  5.953528255E+02  1.250000000E+02  0.00000E+00  9.000E+00
      21     1     1     2   502   511 -3.552863039E+01 -3.262264345E+01 -7.712915211E+01  9.096937148E+01  0.000000000E+00  0.00000E+00  9.000E+00
#rwgt            1           1 -0.19557029331106773                6      355179           0
</event>
<event>
      5   9999 -3.79277E-02  7.86813E+00 -1.00000E+00  2.08619E-01
      21    -1     0     0   502   501  0.000000000E+00  0.000000000E+00  3.336938022E+02  3.336938022E+02  0.000000000E+00  0.00000E+00  9.000E+00
      21    -1     0     0   512   502  0.000000000E+00  0.000000000E+00 -1.458258362E+02  1.458258362E+02  0.000000000E+00  0.00000E+00  9.000E+00
      25     1     1     2     0     0 -3.577964470E+01  1.581305245E+02  1.521030575E+02  2.550407533E+02  1.250000000E+02  0.00000E+00  9.000E+00
      25     1     1     2     0     0  3.522946046E+01 -1.659793946E+02  4.143068136E+01  2.147830898E+02  1.250000000E+02  0.00000E+00  9.000E+00
      21     1     1     2   512   501  5.501842374E-01  7.848870075E+00 -5.665772896E+00  9.695795308E+00  8.429369702E-08  0.00000E+00  9.000E+00
#rwgt            1           1  -8.4714024054189568E-002           6      355285           0
</event>
<event>
      5   9999  3.79277E-02  4.69299E+01 -1.00000E+00  1.40664E-01
      21    -1     0     0   511   501  0.000000000E+00  0.000000000E+00  1.670237275E+02  1.670237275E+02  0.000000000E+00  0.00000E+00  9.000E+00
      21    -1     0     0   501   502  0.000000000E+00  0.000000000E+00 -6.547112395E+02  6.547112395E+02  0.000000000E+00  0.00000E+00  9.000E+00
      25     1     1     2     0     0 -1.146521908E+02  7.069683188E+01 -1.784433335E+02  2.561448617E+02  1.250000000E+02  0.00000E+00  9.000E+00
      25     1     1     2     0     0  1.517541585E+02 -9.943464109E+01 -4.038185968E+02  4.600119907E+02  1.250000000E+02  0.00000E+00  9.000E+00
      21     1     1     2   511   502 -3.710196772E+01  2.873780921E+01  9.457441829E+01  1.055781146E+02  1.348699152E-06  0.00000E+00  9.000E+00
#rwgt            1           1   3.7686341119244980E-002           6      355596           0
</event>
<event>
      5   9999  3.79277E-02  8.58419E+01 -1.00000E+00  1.26885E-01
      21    -1     0     0   502   501  0.000000000E+00  0.000000000E+00  4.856750694E+02  4.856750694E+02  0.000000000E+00  0.00000E+00  9.000E+00
      21    -1     0     0   501   512  0.000000000E+00  0.000000000E+00 -3.582489999E+02  3.582489999E+02  0.000000000E+00  0.00000E+00  9.000E+00
      25     1     1     2     0     0  2.391263904E+02 -3.285396438E+01 -1.418263896E+02  3.065950723E+02  1.250000000E+02  0.00000E+00  9.000E+00
      25     1     1     2     0     0 -1.748202189E+02  8.971829870E+01  3.493912068E+02  4.198936740E+02  1.250000000E+02  0.00000E+00  9.000E+00
      21     1     1     2   502   512 -6.430617152E+01 -5.686433432E+01 -8.013874773E+01  1.174353231E+02  9.536743164E-07  0.00000E+00  9.000E+00
#rwgt            1           1   2.6867636844173357E-002           6      355718           0
</event>
<event>
      5   9999  3.79277E-02  1.12739E+01 -1.00000E+00  1.89924E-01
      21    -1     0     0   511   501  0.000000000E+00  0.000000000E+00  2.365873476E+02  2.365873476E+02  0.000000000E+00  0.00000E+00  9.000E+00
      21    -1     0     0   501   502  0.000000000E+00  0.000000000E+00 -4.758299448E+02  4.758299448E+02  0.000000000E+00  0.00000E+00  9.000E+00
      25     1     1     2     0     0  1.212852766E+02 -6.754344831E+01  1.652894638E+02  2.494350468E+02  1.250000000E+02  0.00000E+00  9.000E+00
      25     1     1     2     0     0 -1.272645945E+02  7.710114294E+01 -4.073763737E+02  4.513550411E+02  1.250000000E+02  0.00000E+00  9.000E+00
      21     1     1     2   511   502  5.979317897E+00 -9.557694634E+00  2.844312777E+00  1.162720450E+01  4.214684851E-08  0.00000E+00  9.000E+00
#rwgt            1           1   4.9025649198908026E-002           6      355890           0
</event>
<event>
      5   9999  3.79277E-02  2.15773E+02 -1.00000E+00  1.10461E-01
      21    -1     0     0   502   501  0.000000000E+00  0.000000000E+00  1.514628669E+02  1.514628669E+02  0.000000000E+00  0.00000E+00  9.000E+00
      21    -1     0     0   501   512  0.000000000E+00  0.000000000E+00 -9.180126411E+02  9.180126411E+02  0.000000000E+00  0.00000E+00  9.000E+00
      25     1     1     2     0     0  1.364459543E+02 -1.669352296E+02 -2.947511655E+02  3.859897912E+02  1.250000000E+02  0.00000E+00  9.000E+00
      25     1     1     2     0     0 -1.142953530E+01 -8.930559408E+00  3.671661797E+01  1.310858467E+02  1.250000000E+02  0.00000E+00  9.000E+00
      21     1     1     2   502   512 -1.250164190E+02  1.758657890E+02 -5.085152267E+02  5.523998702E+02  0.000000000E+00  0.00000E+00  9.000E+00
#rwgt            1           1   5.2262581829819313E-002           6      356272           0
</event>
<event>
      5   9999  3.79277E-02  2.51602E+01 -1.00000E+00  1.58543E-01
      21    -1     0     0   502   501  0.000000000E+00  0.000000000E+00  1.330590528E+02  1.330590528E+02  0.000000000E+00  0.00000E+00  9.000E+00
      21    -1     0     0   511   502  0.000000000E+00  0.000000000E+00 -7.505642843E+02  7.505642843E+02  0.000000000E+00  0.00000E+00  9.000E+00
      25     1     1     2     0     0  2.012646031E+02 -1.161508444E+02 -2.280769824E+02  3.487729476E+02  1.250000000E+02  0.00000E+00  9.000E+00
      25     1     1     2     0     0 -2.251605908E+02  1.240260574E+02 -2.125849046E+02  3.562261869E+02  1.250000000E+02  0.00000E+00  9.000E+00
      21     1     1     2   511   501  2.389598775E+01 -7.875212987E+00 -1.768433445E+02  1.786242025E+02  0.000000000E+00  0.00000E+00  9.000E+00
#rwgt            1           1   4.8011066388305428E-002           6      356400           0
</event>
<event>
      5   9999  3.79277E-02  3.02081E+01 -1.00000E+00  1.52832E-01
       2    -1     0     0   502     0  0.000000000E+00  0.000000000E+00  7.726152021E+02  7.726152021E+02  0.000000000E+00  0.00000E+00  9.000E+00
      21    -1     0     0   501   502  0.000000000E+00  0.000000000E+00 -1.803162678E+02  1.803162678E+02  0.000000000E+00  0.00000E+00  9.000E+00
      25     1     1     2     0     0 -1.147313082E+02 -1.401898699E+02 -2.925029427E+00  2.201136718E+02  1.250000000E+02  0.00000E+00  9.000E+00
      25     1     1     2     0     0  9.103134408E+01  1.589206414E+02  1.115754580E+02  2.482268291E+02  1.250000000E+02  0.00000E+00  9.000E+00
       2     1     1     2   501     0  2.369996415E+01 -1.873077147E+01  4.836485057E+02  4.845909690E+02  9.344061824E-06  0.00000E+00  9.000E+00
#rwgt            1           1   2.4627753812324075E-002           6      356614           0
</event>
<event>
      5   9999  3.79277E-02  7.09721E+01 -1.00000E+00  1.30918E-01
      21    -1     0     0   502   501  0.000000000E+00  0.000000000E+00  2.242531139E+03  2.242531139E+03  0.000000000E+00  0.00000E+00  9.000E+00
      21    -1     0     0   501   511  0.000000000E+00  0.000000000E+00 -8.842777093E+01  8.842777093E+01  0.000000000E+00  0.00000E+00  9.000E+00
      25     1     1     2     0     0  2.128124154E+02 -3.908833127E+01  1.649139583E+03  1.667963844E+03  1.250000000E+02  0.00000E+00  9.000E+00
      25     1     1     2     0     0 -1.465008530E+02  1.379366590E+01  5.472980730E+02  5.803558786E+02  1.250000000E+02  0.00000E+00  9.000E+00
      21     1     1     2   502   511 -6.631156246E+01  2.529466536E+01 -4.233428745E+01  8.263918746E+01  2.185142372E-06  0.00000E+00  9.000E+00
#rwgt            1           1   6.7782719046372966E-002           6      356774           0
</event>
<event>
      5   9999 -4.84768E-02  1.90226E+02 -1.00000E+00  1.12446E-01
      21    -1     0     0   502   501  0.000000000E+00  0.000000000E+00  4.699426736E+02  4.699426736E+02  0.000000000E+00  0.00000E+00  9.000E+00
       2    -1     0     0   501     0  0.000000000E+00  0.000000000E+00 -8.189519543E+02  8.189519543E+02  0.000000000E+00  0.00000E+00  9.000E+00
      25     1     1     2     0     0  6.142441452E+01  2.387911573E+02 -3.561227650E+02  4.508243552E+02  1.250000000E+02  0.00000E+00  9.000E+00
      25     1     1     2     0     0 -2.486784803E+02 -2.722863225E+02  2.981314160E+02  4.903959310E+02  1.250000000E+02  0.00000E+00  9.000E+00
       2     1     1     2   502     0  1.872540658E+02  3.349516513E+01 -2.910179318E+02  3.476743417E+02  0.000000000E+00  0.00000E+00  9.000E+00
#rwgt            1           1  -1.3283287217617386                6      356896           0
</event>
<event>
      5   9999  3.79277E-02  3.22028E+01 -1.00000E+00  1.50933E-01
      21    -1     0     0   502   501  0.000000000E+00  0.000000000E+00  4.369029428E+02  4.369029428E+02  0.000000000E+00  0.00000E+00  9.000E+00
      21    -1     0     0   501   511  0.000000000E+00  0.000000000E+00 -2.428339340E+03  2.428339340E+03  0.000000000E+00  0.00000E+00  9.000E+00
      25     1     1     2     0     0 -1.553260653E+02 -1.020787328E+01  3.567082120E+02  4.087739421E+02  1.250000000E+02  0.00000E+00  9.000E+00
      25     1     1     2     0     0  1.302591119E+02  3.042340885E+01 -1.009960060E+02  2.090890080E+02  1.250000000E+02  0.00000E+00  9.000E+00
      21     1     1     2   502   511  2.506695341E+01 -2.021553557E+01 -2.247148604E+03  2.247379333E+03  0.000000000E+00  0.00000E+00  9.000E+00
#rwgt            1           1   1.7378482857489070E-002           6      356951           0
</event>
<event>
      5   9999  3.79277E-02  1.95221E+01 -1.00000E+00  1.67240E-01
      21    -1     0     0   502   512  0.000000000E+00  0.000000000E+00  2.204200974E+01  2.204200974E+01  0.000000000E+00  0.00000E+00  9.000E+00
      21    -1     0     0   501   502  0.000000000E+00  0.000000000E+00 -1.360779023E+03  1.360779023E+03  0.000000000E+00  0.00000E+00  9.000E+00
      25     1     1     2     0     0 -6.759583849E+00 -8.781959297E+01 -7.919363610E+02  8.065644256E+02  1.250000000E+02  0.00000E+00  9.000E+00
      25     1     1     2     0     0  2.626951438E+01  8.850788120E+01 -5.223106214E+02  5.449377190E+02  1.250000000E+02  0.00000E+00  9.000E+00
      21     1     1     2   501   512 -1.950993053E+01 -6.882882278E-01 -2.449003052E+01  3.131888766E+01  9.536743164E-07  0.00000E+00  9.000E+00
#rwgt            1           1   4.7914729879852583E-002           6      357146           0
</event>
<event>
      5   9999  3.79277E-02  5.84091E+01 -1.00000E+00  1.35330E-01
      21    -1     0     0   502   501  0.000000000E+00  0.000000000E+00  5.229737190E+01  5.229737190E+01  0.000000000E+00  0.00000E+00  9.000E+00
      21    -1     0     0   501   511  0.000000000E+00  0.000000000E+00 -1.215222780E+03  1.215222780E+03  0.000000000E+00  0.00000E+00  9.000E+00
      25     1     1     2     0     0  5.351706326E+01 -1.173713775E+02 -2.136494108E+02  2.791257550E+02  1.250000000E+02  0.00000E+00  9.000E+00
      25     1     1     2     0     0 -3.619463363E+01  1.731526853E+02 -7.280834233E+02  7.596198886E+02  1.250000000E+02  0.00000E+00  9.000E+00
      21     1     1     2   502   511 -1.732242963E+01 -5.578130781E+01 -2.211925738E+02  2.287745082E+02  3.814697266E-06  0.00000E+00  9.000E+00
#rwgt            1           1   4.1205278162468002E-002           6      357273           0
</event>
<event>
      5   9999  3.79277E-02  4.63723E+01 -1.00000E+00  1.40968E-01
      21    -1     0     0   502   512  0.000000000E+00  0.000000000E+00  8.282589395E+02  8.282589395E+02  0.000000000E+00  0.00000E+00  9.000E+00
      21    -1     0     0   501   502  0.000000000E+00  0.000000000E+00 -7.807942889E+01  7.807942889E+01  0.000000000E+00  0.00000E+00  9.000E+00
      25     1     1     2     0     0 -1.665718586E+02  1.381441017E+01  2.994660360E+02  3.650231893E+02  1.250000000E+02  0.00000E+00  9.000E+00
      25     1     1     2     0     0  2.106473122E+02 -2.822769149E+01  3.295357301E+02  4.115676009E+02  1.250000000E+02  0.00000E+00  9.000E+00
      21     1     1     2   501   512 -4.407545358E+01  1.441328132E+01  1.211777444E+02  1.297475781E+02  1.348699152E-06  0.00000E+00  9.000E+00
#rwgt            1           1  0.11314369093730763                6      357375           0
</event>
<event>
      5   9999  3.79277E-02  3.18423E+01 -1.00000E+00  1.51264E-01
      21    -1     0     0   511   501  0.000000000E+00  0.000000000E+00  1.148724917E+02  1.148724917E+02  0.000000000E+00  0.00000E+00  9.000E+00
      21    -1     0     0   501   502  0.000000000E+00  0.000000000E+00 -1.011633708E+03  1.011633708E+03  0.000000000E+00  0.00000E+00  9.000E+00
      25     1     1     2     0     0  3.320557052E+01  2.062911411E+02 -2.540850953E+02  3.519131718E+02  1.250000000E+02  0.00000E+00  9.000E+00
      25     1     1     2     0     0 -3.736520704E+01 -2.378605527E+02 -6.760581556E+02  7.284596289E+02  1.250000000E+02  0.00000E+00  9.000E+00
      21     1     1     2   511   502  4.159636522E+00  3.156941163E+01  3.338203424E+01  4.613339937E+01  6.743495762E-07  0.00000E+00  9.000E+00
#rwgt            1           1   2.9982058279341414E-002           6      357607           0
</event>
<event>
      5   9999  3.79277E-02  7.52093E+00 -1.00000E+00  2.11240E-01
      21    -1     0     0   512   501  0.000000000E+00  0.000000000E+00  2.111663375E+02  2.111663375E+02  0.000000000E+00  0.00000E+00  9.000E+00
      21    -1     0     0   501   502  0.000000000E+00  0.000000000E+00 -3.393709348E+02  3.393709348E+02  0.000000000E+00  0.00000E+00  9.000E+00
      25     1     1     2     0     0 -2.638201334E+01  1.100122237E+02 -5.720151620E+00  1.686903083E+02  1.250000000E+02  0.00000E+00  9.000E+00
      25     1     1     2     0     0  1.888335169E+01 -1.105905177E+02 -2.240416725E+02  2.800116329E+02  1.250000000E+02  0.00000E+00  9.000E+00
      21     1     1     2   512   502  7.498661649E+00  5.782940616E-01  1.015572267E+02  1.018353310E+02  2.697398305E-06  0.00000E+00  9.000E+00
#rwgt            1           1   4.4671353949228207E-002           6      357930           0
</event>
<event>
      5   9999  3.79277E-02  6.10005E+01 -1.00000E+00  1.34321E-01
      21    -1     0     0   502   501  0.000000000E+00  0.000000000E+00  8.554462082E+01  8.554462082E+01  0.000000000E+00  0.00000E+00  9.000E+00
      21    -1     0     0   501   511  0.000000000E+00  0.000000000E+00 -8.786375080E+02  8.786375080E+02  0.000000000E+00  0.00000E+00  9.000E+00
      25     1     1     2     0     0  3.595454716E+01 -2.276100382E+02 -3.346644818E+02  4.251168949E+02  1.250000000E+02  0.00000E+00  9.000E+00
      25     1     1     2     0     0  6.726995295E+00  1.840286013E+02 -3.560032530E+02  4.198512769E+02  1.250000000E+02  0.00000E+00  9.000E+00
      21     1     1     2   502   511 -4.268154245E+01  4.358143695E+01 -1.024251524E+02  1.192139571E+02  1.348699152E-06  0.00000E+00  9.000E+00
#rwgt            1           1   6.5947293713493588E-002           6      358382           0
</event>
<event>
      5   9999  3.79277E-02  2.83939E+01 -1.00000E+00  1.54718E-01
       1    -1     0     0   502     0  0.000000000E+00  0.000000000E+00  4.959908199E+02  4.959908199E+02  0.000000000E+00  0.00000E+00  9.000E+00
      21    -1     0     0   501   502  0.000000000E+00  0.000000000E+00 -1.180095538E+03  1.180095538E+03  0.000000000E+00  0.00000E+00  9.000E+00
      25     1     1     2     0     0 -1.457430484E+02 -3.214130945E+01 -6.010458888E+02  6.317873538E+02  1.250000000E+02  0.00000E+00  9.000E+00
      25     1     1     2     0     0  1.314858703E+02  5.669625105E+01 -5.472094333E+02  5.792807289E+02  1.250000000E+02  0.00000E+00  9.000E+00
       1     1     1     2   501     0  1.425717809E+01 -2.455494160E+01  4.641506045E+02  4.650182748E+02  9.344061824E-06  0.00000E+00  9.000E+00
#rwgt            1           1   4.5748833587221552E-002           6      358488           0
</event>
<event>
      5   9999  3.79277E-02  7.08676E+01 -1.00000E+00  1.30950E-01
      21    -1     0     0   502   511  0.000000000E+00  0.000000000E+00  3.539238380E+02  3.539238380E+02  0.000000000E+00  0.00000E+00  9.000E+00
      21    -1     0     0   501   502  0.000000000E+00  0.000000000E+00 -1.881549196E+02  1.881549196E+02  0.000000000E+00  0.00000E+00  9.000E+00
      25     1     1     2     0     0 -7.327232971E+01 -4.305333181E+01  6.514278691E+01  1.645934579E+02  1.250000000E+02  0.00000E+00  9.000E+00
      25     1     1     2     0     0  1.413039862E+01  8.209752377E+01 -8.930952934E+01  1.747594450E+02  1.250000000E+02  0.00000E+00  9.000E+00
      21     1     1     2   501   511  5.914193109E+01 -3.904419196E+01  1.899356608E+02  2.027258548E+02  2.697398305E-06  0.00000E+00  9.000E+00
#rwgt            1           1   4.5594114514986593E-002           6      358624           0
</event>
<event>
      5   9999  3.79277E-02  1.79941E+01 -1.00000E+00  1.70247E-01
      21    -1     0     0   502   512  0.000000000E+00  0.000000000E+00  3.039725880E+02  3.039725880E+02  0.000000000E+00  0.00000E+00  9.000E+00
      21    -1     0     0   501   502  0.000000000E+00  0.000000000E+00 -1.627340198E+02  1.627340198E+02  0.000000000E+00  0.00000E+00  9.000E+00
      25     1     1     2     0     0 -3.249921201E+01  1.351105592E+02  1.281308065E+02  2.266132511E+02  1.250000000E+02  0.00000E+00  9.000E+00
      25     1     1     2     0     0  5.034874898E+01 -1.328338819E+02 -3.165323061E+01  1.918508893E+02  1.250000000E+02  0.00000E+00  9.000E+00
      21     1     1     2   501   512 -1.784953697E+01 -2.276677291E+00  4.476099235E+01  4.824246745E+01  4.768371582E-07  0.00000E+00  9.000E+00
#rwgt            1           1   4.0921211361959003E-002           6      358703           0
</event>
<event>
      5   9999  3.79277E-02  1.57622E+01 -1.00000E+00  1.75379E-01
      21    -1     0     0   511   501  0.000000000E+00  0.000000000E+00  1.555886258E+03  1.555886258E+03  0.000000000E+00  0.00000E+00  9.000E+00
      21    -1     0     0   501   502  0.000000000E+00  0.000000000E+00 -3.154123338E+01  3.154123338E+01  0.000000000E+00  0.00000E+00  9.000E+00
      25     1     1     2     0     0 -5.611186237E+01 -1.200195746E+02  5.385981256E+02  5.685650185E+02  1.250000000E+02  0.00000E+00  9.000E+00
      25     1     1     2     0     0  4.842179288E+01  1.337785604E+02  5.296006407E+02  5.624439634E+02  1.250000000E+02  0.00000E+00  9.000E+00
      21     1     1     2   511   502  7.690069498E+00 -1.375898578E+01  4.561462583E+02  4.564185095E+02  9.344061824E-06  0.00000E+00  9.000E+00
#rwgt            1           1   4.5544365935226212E-002           6      358837           0
</event>
<event>
      5   9999  3.79277E-02  1.35826E+01 -1.00000E+00  1.81543E-01
      21    -1     0     0   502   501  0.000000000E+00  0.000000000E+00  1.501394217E+02  1.501394217E+02  0.000000000E+00  0.00000E+00  9.000E+00
      21    -1     0     0   501   512  0.000000000E+00  0.000000000E+00 -5.318480197E+02  5.318480197E+02  0.000000000E+00  0.00000E+00  9.000E+00
      25     1     1     2     0     0  4.244726609E+01  1.956044818E+02 -6.911093597E+01  2.458947034E+02  1.250000000E+02  0.00000E+00  9.000E+00
      25     1     1     2     0     0 -3.744577166E+01 -1.829762435E+02 -1.439255023E+02  2.668745805E+02  1.250000000E+02  0.00000E+00  9.000E+00
      21     1     1     2   502   512 -5.001494427E+00 -1.262823828E+01 -1.686721597E+02  1.692181575E+02  1.907348633E-06  0.00000E+00  9.000E+00
#rwgt            1           1   3.7690373653955771E-002           6      359083           0
</event>
<event>
      5   9999  3.79277E-02  2.63820E+01 -1.00000E+00  1.57020E-01
      21    -1     0     0   502   511  0.000000000E+00  0.000000000E+00  5.089468406E+02  5.089468406E+02  0.000000000E+00  0.00000E+00  9.000E+00
      21    -1     0     0   501   502  0.000000000E+00  0.000000000E+00 -1.169592658E+02  1.169592658E+02  0.000000000E+00  0.00000E+00  9.000E+00
      25     1     1     2     0     0 -1.675411473E+02 -2.713932804E+01  6.463584015E+01  2.204753297E+02  1.250000000E+02  0.00000E+00  9.000E+00
      25     1     1     2     0     0  1.588318620E+02  5.204231922E+01  2.621053261E+02  3.350524815E+02  1.250000000E+02  0.00000E+00  9.000E+00
      21     1     1     2   501   511  8.709285307E+00 -2.490299118E+01  6.524640846E+01  7.037829522E+01  0.000000000E+00  0.00000E+00  9.000E+00
#rwgt            1           1   6.7461943123472909E-002           6      359255           0
</event>
<event>
      5   9999  3.79277E-02  1.05137E+02 -1.00000E+00  1.22857E-01
      21    -1     0     0   502   501  0.000000000E+00  0.000000000E+00  1.586022024E+03  1.586022024E+03  0.000000000E+00  0.00000E+00  9.000E+00
      21    -1     0     0   512   502  0.000000000E+00  0.000000000E+00 -2.958630796E+02  2.958630796E+02  0.000000000E+00  0.00000E+00  9.000E+00
      25     1     1     2     0     0 -2.319990379E+02 -1.460350151E+02  4.740692315E+02  5.617084791E+02  1.250000000E+02  0.00000E+00  9.000E+00
      25     1     1     2     0     0  2.165331828E+02  4.204194799E+01  1.041253945E+03  1.071675754E+03  1.250000000E+02  0.00000E+00  9.000E+00
      21     1     1     2   512   501  1.546585508E+01  1.039930671E+02 -2.251642324E+02  2.485008697E+02  6.607249480E-06  0.00000E+00  9.000E+00
#rwgt            1           1   1.9759357750472797E-002           6      359461           0
</event>
<event>
      5   9999  3.79277E-02  8.00847E+01 -1.00000E+00  1.28327E-01
      21    -1     0     0   502   501  0.000000000E+00  0.000000000E+00  2.481607955E+02  2.481607955E+02  0.000000000E+00  0.00000E+00  9.000E+00
      21    -1     0     0   501   511  0.000000000E+00  0.000000000E+00 -3.002147722E+02  3.002147722E+02  0.000000000E+00  0.00000E+00  9.000E+00
      25     1     1     2     0     0  8.766537808E+01 -1.287026367E+01 -9.288022971E+01  1.791719824E+02  1.250000000E+02  0.00000E+00  9.000E+00
      25     1     1     2     0     0 -7.824806471E+01  9.239928643E+01  1.527660768E+02  2.315661072E+02  1.250000000E+02  0.00000E+00  9.000E+00
      21     1     1     2   502   511 -9.417313365E+00 -7.952902276E+01 -1.119398238E+02  1.376374782E+02  1.348699152E-06  0.00000E+00  9.000E+00
#rwgt            1           1   2.1962207741281999E-002           6      359529           0
</event>
<event>
      5   9999  3.79277E-02  9.76618E+01 -1.00000E+00  1.24292E-01
      21    -1     0     0   502   512  0.000000000E+00  0.000000000E+00  4.845799649E+02  4.845799649E+02  0.000000000E+00  0.00000E+00  9.000E+00
      21    -1     0     0   501   502  0.000000000E+00  0.000000000E+00 -1.391193213E+02  1.391193213E+02  0.000000000E+00  0.00000E+00  9.000E+00
      25     1     1     2     0     0  1.445870383E+02 -6.726383168E+01  1.746175527E+02  2.674810730E+02  1.250000000E+02  0.00000E+00  9.000E+00
      25     1     1     2     0     0 -7.650144200E+01 -2.751692872E+00 -1.391466933E+01  1.472367497E+02  1.250000000E+02  0.00000E+00  9.000E+00
      21     1     1     2   501   512 -6.808559625E+01  7.001552455E+01  1.847577603E+02  2.089814635E+02  2.697398305E-06  0.00000E+00  9.000E+00
#rwgt            1           1   4.6169166163612087E-002           6      359648           0
</event>
<event>
      5   9999  3.79277E-02  1.20562E+01 -1.00000E+00  1.86815E-01
      21    -1     0     0   502   511  0.000000000E+00  0.000000000E+00  7.253571503E+02  7.253571503E+02  0.000000000E+00  0.00000E+00  9.000E+00
      21    -1     0     0   501   502  0.000000000E+00  0.000000000E+00 -2.904707162E+02  2.904707162E+02  0.000000000E+00  0.00000E+00  9.000E+00
      25     1     1     2     0     0 -1.103139116E+02 -4.112627243E+01 -4.681466062E+01  1.779807344E+02  1.250000000E+02  0.00000E+00  9.000E+00
      25     1     1     2     0     0  1.217677271E+02  4.488947719E+01 -1.324170588E+02  2.236106482E+02  1.250000000E+02  0.00000E+00  9.000E+00
      21     1     1     2   501   511 -1.145381546E+01 -3.763204763E+00  6.141181536E+02  6.142364839E+02  7.629394531E-06  0.00000E+00  9.000E+00
#rwgt            1           1   5.5284546359069923E-002           6      359740           0
</event>
<event>
      5   9999  3.79277E-02  9.94314E+01 -1.00000E+00  1.23939E-01
      21    -1     0     0   502   501  0.000000000E+00  0.000000000E+00  1.310194247E+03  1.310194247E+03  0.000000000E+00  0.00000E+00  9.000E+00
      21    -1     0     0   501   512  0.000000000E+00  0.000000000E+00 -5.231214334E+01  5.231214334E+01  0.000000000E+00  0.00000E+00  9.000E+00
      25     1     1     2     0     0  2.596539448E+01 -8.692111846E+01  7.054952228E+02  7.222035668E+02  1.250000000E+02  0.00000E+00  9.000E+00
      25     1     1     2     0     0 -9.564309151E+01  1.578550789E+02  3.528734648E+02  4.173853244E+02  1.250000000E+02  0.00000E+00  9.000E+00
      21     1     1     2   502   512  6.967769704E+01 -7.093396044E+01  1.995134160E+02  2.229174990E+02  0.000000000E+00  0.00000E+00  9.000E+00
#rwgt            2          11   2.6948737981590792E-003           6      359932           0
</event>
<event>
      5   9999  3.79277E-02  3.25115E+01 -1.00000E+00  1.50654E-01
      21    -1     0     0   511   501  0.000000000E+00  0.000000000E+00  1.914697098E+02  1.914697098E+02  0.000000000E+00  0.00000E+00  9.000E+00
      21    -1     0     0   501   502  0.000000000E+00  0.000000000E+00 -5.910054573E+02  5.910054573E+02  0.000000000E+00  0.00000E+00  9.000E+00
      25     1     1     2     0     0 -5.495964050E+01 -5.626081276E+01 -5.396656239E+02  5.595085583E+02  1.250000000E+02  0.00000E+00  9.000E+00
      25     1     1     2     0     0  6.011106271E+01  2.415999566E+01  1.104453320E+02  1.789419364E+02  1.250000000E+02  0.00000E+00  9.000E+00
      21     1     1     2   511   502 -5.151422208E+00  3.210081710E+01  2.968454438E+01  4.402467245E+01  7.539457465E-07  0.00000E+00  9.000E+00
#rwgt            1           1   5.3553447947096856E-002           6      359967           0
</event>
<event>
      5   9999  3.79277E-02  1.06378E+02 -1.00000E+00  1.22632E-01
      21    -1     0     0   512   501  0.000000000E+00  0.000000000E+00  4.677242912E+01  4.677242912E+01  0.000000000E+00  0.00000E+00  9.000E+00
      21    -1     0     0   501   502  0.000000000E+00  0.000000000E+00 -1.543401805E+03  1.543401805E+03  0.000000000E+00  0.00000E+00  9.000E+00
      25     1     1     2     0     0  3.645799134E+01  5.358799926E+01 -1.122994613E+03  1.131787418E+03  1.250000000E+02  0.00000E+00  9.000E+00
      25     1     1     2     0     0  6.241383561E+01 -1.433783108E+01 -1.252662239E+02  1.881958743E+02  1.250000000E+02  0.00000E+00  9.000E+00
      21     1     1     2   512   502 -9.887182695E+01 -3.925016819E+01 -2.483685397E+02  2.701909424E+02  6.607249480E-06  0.00000E+00  9.000E+00
#rwgt            1           1   3.6565160043279421E-002           6      360202           0
</event>
<event>
      5   9999  3.79277E-02  3.25251E+01 -1.00000E+00  1.50641E-01
      21    -1     0     0   502   501  0.000000000E+00  0.000000000E+00  7.891729218E+01  7.891729218E+01  0.000000000E+00  0.00000E+00  9.000E+00
       2    -1     0     0   501     0  0.000000000E+00  0.000000000E+00 -8.702103585E+02  8.702103585E+02  0.000000000E+00  0.00000E+00  9.000E+00
      25     1     1     2     0     0 -4.604337580E+01 -1.146809845E+02 -5.813447395E+01  1.851386986E+02  1.250000000E+02  0.00000E+00  9.000E+00
      25     1     1     2     0     0  2.998223890E+01  8.639809326E+01 -3.951595704E+02  4.244286174E+02  1.250000000E+02  0.00000E+00  9.000E+00
       2     1     1     2   502     0  1.606113690E+01  2.828289123E+01 -3.379990220E+02  3.395603347E+02  3.814697266E-06  0.00000E+00  9.000E+00
#rwgt            1           1   2.5690963178779804E-002           6      360325           0
</event>
<event>
      5   9999  3.79277E-02  1.59707E+01 -1.00000E+00  1.74856E-01
      21    -1     0     0   511   501  0.000000000E+00  0.000000000E+00  2.808688597E+02  2.808688597E+02  0.000000000E+00  0.00000E+00  9.000E+00
      21    -1     0     0   501   502  0.000000000E+00  0.000000000E+00 -1.608885774E+02  1.608885774E+02  0.000000000E+00  0.00000E+00  9.000E+00
      25     1     1     2     0     0  8.494698638E+01 -1.340139740E+02  2.592258824E+01  2.036485117E+02  1.250000000E+02  0.00000E+00  9.000E+00
      25     1     1     2     0     0 -8.427746645E+01  1.180572729E+02  6.027992250E+01  2.007458097E+02  1.250000000E+02  0.00000E+00  9.000E+00
      21     1     1     2   511   502 -6.695199331E-01  1.595670106E+01  3.377777163E+01  3.736311580E+01  0.000000000E+00  0.00000E+00  9.000E+00
#rwgt            1           1   3.9186867338982009E-002           6      360459           0
</event>
<event>
      5   9999  3.79277E-02  2.12793E+01 -1.00000E+00  1.64178E-01
      21    -1     0     0   502   501  0.000000000E+00  0.000000000E+00  1.416995363E+03  1.416995363E+03  0.000000000E+00  0.00000E+00  9.000E+00
      21    -1     0     0   501   512  0.000000000E+00  0.000000000E+00 -1.515023759E+02  1.515023759E+02  0.000000000E+00  0.00000E+00  9.000E+00
      25     1     1     2     0     0  1.151999510E+02  1.041452567E+02  4.244740619E+02  4.689568130E+02  1.250000000E+02  0.00000E+00  9.000E+00
      25     1     1     2     0     0 -9.493114033E+01 -9.766581408E+01  9.605259527E+02  9.781541997E+02  1.250000000E+02  0.00000E+00  9.000E+00
      21     1     1     2   502   512 -2.026881065E+01 -6.479442656E+00 -1.195070271E+02  1.213867266E+02  2.697398305E-06  0.00000E+00  9.000E+00
#rwgt            1           1   4.5466175719086163E-002           6      360858           0
</event>
<event>
      5   9999  3.79277E-02  1.39603E+01 -1.00000E+00  1.80374E-01
      21    -1     0     0   502   511  0.000000000E+00  0.000000000E+00  3.985456136E+02  3.985456136E+02  0.000000000E+00  0.00000E+00  9.000E+00
      21    -1     0     0   501   502  0.000000000E+00  0.000000000E+00 -7.215402527E+01  7.215402527E+01  0.000000000E+00  0.00000E+00  9.000E+00
      25     1     1     2     0     0 -9.943812536E+01 -2.589262662E-01  2.067782054E+02  2.612857326E+02  1.250000000E+02  0.00000E+00  9.000E+00
      25     1     1     2     0     0  9.397266334E+01  1.310484822E+01  1.030014490E+02  1.877149355E+02  1.250000000E+02  0.00000E+00  9.000E+00
      21     1     1     2   501   511  5.465462022E+00 -1.284592196E+01  1.661193398E+01  2.169897086E+01  0.000000000E+00  0.00000E+00  9.000E+00
#rwgt            1           1  0.13642261748530810                6      361048           0
</event>
<event>
      5   9999  3.79277E-02  1.03497E+02 -1.00000E+00  1.23160E-01
      21    -1     0     0   512   501  0.000000000E+00  0.000000000E+00  1.985794642E+03  1.985794642E+03  0.000000000E+00  0.00000E+00  9.000E+00
      21    -1     0     0   501   502  0.000000000E+00  0.000000000E+00 -7.664635765E+01  7.664635765E+01  0.000000000E+00  0.00000E+00  9.000E+00
      25     1     1     2     0     0 -1.573826402E+02 -9.050396684E+01  6.607145266E+02  6.965119878E+02  1.250000000E+02  0.00000E+00  9.000E+00
      25     1     1     2     0     0  5.541388791E+01  7.278190893E+01  4.961155039E+01  1.626475059E+02  1.250000000E+02  0.00000E+00  9.000E+00
      21     1     1     2   512   502  1.019687523E+02  1.772205791E+01  1.198822208E+03  1.203281506E+03  0.000000000E+00  0.00000E+00  9.000E+00
#rwgt            1           1   3.6235106046715093E-002           6      361231           0
</event>
<event>
      5   9999  3.79277E-02  2.14978E+02 -1.00000E+00  1.10518E-01
      21    -1     0     0   511   501  0.000000000E+00  0.000000000E+00  6.536817404E+02  6.536817404E+02  0.000000000E+00  0.00000E+00  9.000E+00
      21    -1     0     0   501   502  0.000000000E+00  0.000000000E+00 -3.985067367E+02  3.985067367E+02  0.000000000E+00  0.00000E+00  9.000E+00
      25     1     1     2     0     0  1.706189527E+02  2.357300319E+02 -1.470205258E+01  3.170498783E+02  1.250000000E+02  0.00000E+00  9.000E+00
      25     1     1     2     0     0 -4.061600302E+01 -6.451424026E+01 -1.826820780E+02  2.341142638E+02  1.250000000E+02  0.00000E+00  9.000E+00
      21     1     1     2   511   502 -1.300029497E+02 -1.712157916E+02  4.525591343E+02  5.010243350E+02  0.000000000E+00  0.00000E+00  9.000E+00
#rwgt            1           1   3.5781455797403140E-002           6      361343           0
</event>
<event>
      5   9999  3.79277E-02  2.64956E+02 -1.00000E+00  1.07375E-01
      21    -1     0     0   502   512  0.000000000E+00  0.000000000E+00  5.895334668E+02  5.895334668E+02  0.000000000E+00  0.00000E+00  9.000E+00
      21    -1     0     0   501   502  0.000000000E+00  0.000000000E+00 -1.104780275E+03  1.104780275E+03  0.000000000E+00  0.00000E+00  9.000E+00
      25     1     1     2     0     0 -1.690413726E+01 -2.075805341E+02 -5.940730568E+02  6.418124530E+02  1.250000000E+02  0.00000E+00  9.000E+00
      25     1     1     2     0     0 -1.901186581E+02  4.222249564E+01 -4.246226272E+02  4.835878605E+02  1.250000000E+02  0.00000E+00  9.000E+00
      21     1     1     2   501   512  2.070227953E+02  1.653580385E+02  5.034488757E+02  5.689134285E+02  1.078959322E-05  0.00000E+00  9.000E+00
#rwgt            2          11   8.8366932573103879E-003           6      361415           0
</event>
<event>
      5   9999  3.79277E-02  1.26024E+01 -1.00000E+00  1.84819E-01
      21    -1     0     0   502   511  0.000000000E+00  0.000000000E+00  1.106033391E+02  1.106033391E+02  0.000000000E+00  0.00000E+00  9.000E+00
      21    -1     0     0   501   502  0.000000000E+00  0.000000000E+00 -3.718979472E+02  3.718979472E+02  0.000000000E+00  0.00000E+00  9.000E+00
      25     1     1     2     0     0  1.032421986E+02  1.012665656E+02 -1.651429881E+02  2.526085418E+02  1.250000000E+02  0.00000E+00  9.000E+00
      25     1     1     2     0     0 -1.140440507E+02 -9.477500829E+01 -9.776127270E+01  2.171879696E+02  1.250000000E+02  0.00000E+00  9.000E+00
      21     1     1     2   501   511  1.080185210E+01 -6.491557313E+00  1.609652667E+00  1.270477496E+01  1.210576058E-07  0.00000E+00  9.000E+00
#rwgt            1           1   3.5217697261567038E-002           6      361435           0
</event>
<event>
      5   9999  3.79277E-02  7.32130E+01 -1.00000E+00  1.30241E-01
      21    -1     0     0   502   512  0.000000000E+00  0.000000000E+00  1.154013605E+03  1.154013605E+03  0.000000000E+00  0.00000E+00  9.000E+00
      21    -1     0     0   501   502  0.000000000E+00  0.000000000E+00 -9.121481141E+01  9.121481141E+01  0.000000000E+00  0.00000E+00  9.000E+00
      25     1     1     2     0     0 -7.342959088E+01  8.420000682E+01  3.991679956E+01  1.723365801E+02  1.250000000E+02  0.00000E+00  9.000E+00
      25     1     1     2     0     0  1.245191589E+02 -3.175954969E+01  3.248760763E+02  3.710568081E+02  1.250000000E+02  0.00000E+00  9.000E+00
      21     1     1     2   501   512 -5.108956803E+01 -5.244045713E+01  6.980059182E+02  7.018350285E+02  7.629394531E-06  0.00000E+00  9.000E+00
#rwgt            1           1   4.3366509252400945E-002           6      361683           0
</event>
<event>
      5   9999  3.79277E-02  3.15735E+01 -1.00000E+00  1.51514E-01
      21    -1     0     0   502   501  0.000000000E+00  0.000000000E+00  2.080931599E+02  2.080931599E+02  0.000000000E+00  0.00000E+00  9.000E+00
       2    -1     0     0   501     0  0.000000000E+00  0.000000000E+00 -1.969171910E+03  1.969171910E+03  0.000000000E+00  0.00000E+00  9.000E+00
      25     1     1     2     0     0  3.130147185E+02 -3.696859968E+02 -8.886158689E+02  1.019759341E+03  1.250000000E+02  0.00000E+00  9.000E+00
      25     1     1     2     0     0 -3.380306111E+02  3.889497636E+02 -3.528309367E+02  6.369154438E+02  1.250000000E+02  0.00000E+00  9.000E+00
       2     1     1     2   502     0  2.501589259E+01 -1.926376677E+01 -5.196319442E+02  5.205902852E+02  1.078959322E-05  0.00000E+00  9.000E+00
#rwgt            1           1   4.6781472126739256E-002           6      361762           0
</event>
<event>
      5   9999  3.79277E-02  4.43663E+01 -1.00000E+00  1.42104E-01
      21    -1     0     0   502   511  0.000000000E+00  0.000000000E+00  4.911583755E+02  4.911583755E+02  0.000000000E+00  0.00000E+00  9.000E+00
      21    -1     0     0   501   502  0.000000000E+00  0.000000000E+00 -2.847413766E+02  2.847413766E+02  0.000000000E+00  0.00000E+00  9.000E+00
      25     1     1     2     0     0  2.941062183E+02  1.385537848E+02  2.200072103E+01  3.490052301E+02  1.250000000E+02  0.00000E+00  9.000E+00
      25     1     1     2     0     0 -2.499033369E+02 -1.423583390E+02  9.598329408E+01  3.279563496E+02  1.250000000E+02  0.00000E+00  9.000E+00
      21     1     1     2   501   511 -4.420288132E+01  3.804554261E+00  8.843298374E+01  9.893817243E+01  1.348699152E-06  0.00000E+00  9.000E+00
#rwgt            1           1   3.4188720447190568E-002           6      361944           0
</event>
<event>
      5   9999  3.79277E-02  1.59121E+01 -1.00000E+00  1.75002E-01
      21    -1     0     0   512   501  0.000000000E+00  0.000000000E+00  4.132041303E+01  4.132041303E+01  0.000000000E+00  0.00000E+00  9.000E+00
      21    -1     0     0   501   502  0.000000000E+00  0.000000000E+00 -1.224103165E+03  1.224103165E+03  0.000000000E+00  0.00000E+00  9.000E+00
      25     1     1     2     0     0  7.537922571E+01  6.741992263E+01 -1.748751407E+02  2.375579686E+02  1.250000000E+02  0.00000E+00  9.000E+00
      25     1     1     2     0     0 -9.117586278E+01 -6.550627324E+01 -9.889244275E+02  1.003095525E+03  1.250000000E+02  0.00000E+00  9.000E+00
      21     1     1     2   512   502  1.579663707E+01 -1.913649392E+00 -1.898318402E+01  2.477008422E+01  4.129530925E-07  0.00000E+00  9.000E+00
#rwgt            1           1   5.5007204684202039E-002           6      362140           0
</event>
<event>
      5   9999 -3.79277E-02  3.87408E+01 -1.00000E+00  1.45707E-01
      21    -1     0     0   502   501  0.000000000E+00  0.000000000E+00  1.008720309E+03  1.008720309E+03  0.000000000E+00  0.00000E+00  9.000E+00
      21    -1     0     0   501   511  0.000000000E+00  0.000000000E+00 -2.252045766E+02  2.252045766E+02  0.000000000E+00  0.00000E+00  9.000E+00
      25     1     1     2     0     0 -1.763150190E+02  1.457134418E+01  7.258064826E+02  7.574426448E+02  1.250000000E+02  0.00000E+00  9.000E+00
      25     1     1     2     0     0  1.973358577E+02  1.797048340E+01  2.128758333E+02  3.165525223E+02  1.250000000E+02  0.00000E+00  9.000E+00
      21     1     1     2   502   511 -2.102083869E+01 -3.254182758E+01 -1.551665835E+02  1.599297184E+02  3.814697266E-06  0.00000E+00  9.000E+00
#rwgt            1           1 -0.13042686666267311                6      362310           0
</event>
<event>
      5   9999  3.79277E-02  1.04308E+02 -1.00000E+00  1.23010E-01
      21    -1     0     0   502   512  0.000000000E+00  0.000000000E+00  3.005718394E+02  3.005718394E+02  0.000000000E+00  0.00000E+00  9.000E+00
      21    -1     0     0   501   502  0.000000000E+00  0.000000000E+00 -4.080383199E+02  4.080383199E+02  0.000000000E+00  0.00000E+00  9.000E+00
      25     1     1     2     0     0 -2.766601820E+02 -5.402819152E+00 -5.169878553E+01  3.080061870E+02  1.250000000E+02  0.00000E+00  9.000E+00
      25     1     1     2     0     0  2.350333760E+02 -9.023892879E+01 -8.246803666E+01  2.929329773E+02  1.250000000E+02  0.00000E+00  9.000E+00
      21     1     1     2   501   512  4.162680604E+01  9.564174795E+01  2.670034164E+01  1.076709951E+02  2.633419279E-06  0.00000E+00  9.000E+00
#rwgt            1           1   3.5066155109906398E-002           6      362388           0
</event>
<event>
      5   9999  3.79277E-02  1.02920E+01 -1.00000E+00  1.94323E-01
      21    -1     0     0   502   501  0.000000000E+00  0.000000000E+00  9.692655169E+01  9.692655169E+01  0.000000000E+00  0.00000E+00  9.000E+00
      21    -1     0     0   501   511  0.000000000E+00  0.000000000E+00 -1.194837372E+03  1.194837372E+03  0.000000000E+00  0.00000E+00  9.000E+00
      25     1     1     2     0     0  1.096990866E+01  1.546131792E+01  3.693478346E+01  1.317139684E+02  1.250000000E+02  0.00000E+00  9.000E+00
      25     1     1     2     0     0 -1.524744201E+01 -2.482225128E+01 -3.150712082E+02  3.402109565E+02  1.250000000E+02  0.00000E+00  9.000E+00
      21     1     1     2   502   511  4.277533345E+00  9.360933351E+00 -8.197743958E+02  8.198389991E+02  1.078959322E-05  0.00000E+00  9.000E+00
#rwgt            1           1   3.4562155509638731E-002           6      362529           0
</event>
<event>
      5   9999  3.79277E-02  1.22899E+01 -1.00000E+00  1.85944E-01
      21    -1     0     0   512   501  0.000000000E+00  0.000000000E+00  4.742114747E+02  4.742114747E+02  0.000000000E+00  0.00000E+00  9.000E+00
      21    -1     0     0   501   502  0.000000000E+00  0.000000000E+00 -2.217362984E+02  2.217362984E+02  0.000000000E+00  0.00000E+00  9.000E+00
      25     1     1     2     0     0  1.453087710E+01 -8.609727791E+01  4.026810768E+02  4.305820912E+02  1.250000000E+02  0.00000E+00  9.000E+00
      25     1     1     2     0     0 -2.589380685E+01  8.141472528E+01 -1.787697548E+02  2.342700834E+02  1.250000000E+02  0.00000E+00  9.000E+00
      21     1     1     2   512   502  1.136292975E+01  4.682552627E+00  2.856385427E+01  3.109559844E+01  3.371747881E-07  0.00000E+00  9.000E+00
#rwgt            1           1   3.9378457821542125E-002           6      363035           0
</event>
<event>
      5   9999  3.79277E-02  4.53253E+01 -1.00000E+00  1.41552E-01
      21    -1     0     0   502   511  0.000000000E+00  0.000000000E+00  1.076274023E+03  1.076274023E+03  0.000000000E+00  0.00000E+00  9.000E+00
      21    -1     0     0   501   502  0.000000000E+00  0.000000000E+00 -5.116835627E+01  5.116835627E+01  0.000000000E+00  0.00000E+00  9.000E+00
      25     1     1     2     0     0 -1.325299845E+02 -1.019894171E+02  3.285120124E+02  3.892443709E+02  1.250000000E+02  0.00000E+00  9.000E+00
      25     1     1     2     0     0  1.005281382E+02  6.989173122E+01  3.796637653E+02  4.180434611E+02  1.250000000E+02  0.00000E+00  9.000E+00
      21     1     1     2   501   511  3.200184624E+01  3.209768587E+01  3.169298885E+02  3.201545468E+02  0.000000000E+00  0.00000E+00  9.000E+00
#rwgt            1           1   3.0029340409392612E-002           6      363272           0
</event>
<event>
      5   9999  3.79277E-02  3.19196E+01 -1.00000E+00  1.51192E-01
      21    -1     0     0   502   501  0.000000000E+00  0.000000000E+00  9.891083614E+01  9.891083614E+01  0.000000000E+00  0.00000E+00  9.000E+00
      21    -1     0     0   501   512  0.000000000E+00  0.000000000E+00 -3.778272435E+02  3.778272435E+02  0.000000000E+00  0.00000E+00  9.000E+00
      25     1     1     2     0     0 -7.718434287E+01 -3.370061012E+01 -2.181817106E+02  2.651818484E+02  1.250000000E+02  0.00000E+00  9.000E+00
      25     1     1     2     0     0  4.587868288E+01  2.747025746E+01  7.562860310E+00  1.361677842E+02  1.250000000E+02  0.00000E+00  9.000E+00
      21     1     1     2   502   512  3.130565998E+01  6.230352663E+00 -6.829755706E+01  7.538844700E+01  9.536743164E-07  0.00000E+00  9.000E+00
#rwgt            1           1   5.0724989189934962E-002           6      363392           0
</event>
<event>
      5   9999  3.79277E-02  6.78377E+01 -1.00000E+00  1.31915E-01
      21    -1     0     0   502   511  0.000000000E+00  0.000000000E+00  6.766431814E+02  6.766431814E+02  0.000000000E+00  0.00000E+00  9.000E+00
      21    -1     0     0   501   502  0.000000000E+00  0.000000000E+00 -1.780553079E+02  1.780553079E+02  0.000000000E+00  0.00000E+00  9.000E+00
      25     1     1     2     0     0  1.348113794E+02  5.286082982E+01 -9.022485560E+01  2.115039005E+02  1.250000000E+02  0.00000E+00  9.000E+00
      25     1     1     2     0     0 -6.697675148E+01 -5.350272469E+01  5.365842272E+02  5.575805410E+02  1.250000000E+02  0.00000E+00  9.000E+00
      21     1     1     2   501   511 -6.783462792E+01  6.418948659E-01  5.222850191E+01  8.561404784E+01  1.348699152E-06  0.00000E+00  9.000E+00
#rwgt            1           1   4.1721458323704955E-002           6      363734           0
</event>
<event>
      5   9999  3.79277E-02  2.22942E+01 -1.00000E+00  1.62569E-01
       2    -1     0     0   502     0  0.000000000E+00  0.000000000E+00  1.572743272E+03  1.572743272E+03  0.000000000E+00  0.00000E+00  9.000E+00
      21    -1     0     0   501   502  0.000000000E+00  0.000000000E+00 -2.127587259E+02  2.127587259E+02  0.000000000E+00  0.00000E+00  9.000E+00
      25     1     1     2     0     0 -1.851774769E+02  9.784588624E+01  3.103869273E+02  3.947525301E+02  1.250000000E+02  0.00000E+00  9.000E+00
      25     1     1     2     0     0  1.908980762E+02 -7.629809034E+01 -8.556931767E+01  2.553636274E+02  1.250000000E+02  0.00000E+00  9.000E+00
       2     1     1     2   501     0 -5.720599219E+00 -2.154779590E+01  1.135166936E+03  1.135385840E+03  0.000000000E+00  0.00000E+00  9.000E+00
#rwgt            1           1   4.9799530943171320E-002           6      363912           0
</event>
<event>
      5   9999  3.79277E-02  7.13411E+01 -1.00000E+00  1.30805E-01
      21    -1     0     0   502   501  0.000000000E+00  0.000000000E+00  9.846298350E+02  9.846298350E+02  0.000000000E+00  0.00000E+00  9.000E+00
      21    -1     0     0   501   511  0.000000000E+00  0.000000000E+00 -3.171513822E+02  3.171513822E+02  0.000000000E+00  0.00000E+00  9.000E+00
      25     1     1     2     0     0  9.356797583E+01 -1.962175155E+02  2.708673765E+02  3.691211389E+02  1.250000000E+02  0.00000E+00  9.000E+00
      25     1     1     2     0     0 -1.563611882E+02  1.623566316E+02  6.342086513E+02  6.845831654E+02  1.250000000E+02  0.00000E+00  9.000E+00
      21     1     1     2   502   511  6.279321237E+01  3.386088397E+01 -2.375975751E+02  2.480769128E+02  4.672030912E-06  0.00000E+00  9.000E+00
#rwgt            1           1   4.3713891873082687E-002           6      364086           0
</event>
<event>
      5   9999  3.79277E-02  7.74653E+01 -1.00000E+00  1.29030E-01
      21    -1     0     0   502   501  0.000000000E+00  0.000000000E+00  6.557076971E+02  6.557076971E+02  0.000000000E+00  0.00000E+00  9.000E+00
      21    -1     0     0   512   502  0.000000000E+00  0.000000000E+00 -4.763861861E+02  4.763861861E+02  0.000000000E+00  0.00000E+00  9.000E+00
      25     1     1     2     0     0 -3.835630585E+02  1.089483804E+02  2.802754104E+01  4.188089212E+02  1.250000000E+02  0.00000E+00  9.000E+00
      25     1     1     2     0     0  4.383415793E+02 -1.637222692E+02  2.826624242E+02  5.607774671E+02  1.250000000E+02  0.00000E+00  9.000E+00
      21     1     1     2   512   501 -5.477852078E+01  5.477388886E+01 -1.313684542E+02  1.525074949E+02  1.907348633E-06  0.00000E+00  9.000E+00
#rwgt            1           1  0.16153101821473623                6      364214           0
</event>
<event>
      5   9999  3.79277E-02  2.46346E+01 -1.00000E+00  1.59231E-01
      21    -1     0     0   511   501  0.000000000E+00  0.000000000E+00  1.169742302E+03  1.169742302E+03  0.000000000E+00  0.00000E+00  9.000E+00
      21    -1     0     0   501   502  0.000000000E+00  0.000000000E+00 -1.016281016E+02  1.016281016E+02  0.000000000E+00  0.00000E+00  9.000E+00
      25     1     1     2     0     0  6.182173075E+01  2.911695078E+02  6.783364392E+02  7.512435913E+02  1.250000000E+02  0.00000E+00  9.000E+00
      25     1     1     2     0     0 -4.075975800E+01 -2.783923612E+02  3.111273888E+02  4.377087122E+02  1.250000000E+02  0.00000E+00  9.000E+00
      21     1     1     2   511   502 -2.106197275E+01 -1.277714660E+01  7.865037275E+01  8.241810059E+01  1.348699152E-06  0.00000E+00  9.000E+00
#rwgt            1           1   3.8944240616982394E-002           6      364385           0
</event>
<event>
      5   9999  3.79277E-02  3.45848E+01 -1.00000E+00  1.48870E-01
      21    -1     0     0   502   512  0.000000000E+00  0.000000000E+00  5.522938071E+01  5.522938071E+01  0.000000000E+00  0.00000E+00  9.000E+00
      21    -1     0     0   501   502  0.000000000E+00  0.000000000E+00 -1.157090768E+03  1.157090768E+03  0.000000000E+00  0.00000E+00  9.000E+00
      25     1     1     2     0     0  8.254144798E+01  6.562946096E+01 -1.424577990E+02  2.168860099E+02  1.250000000E+02  0.00000E+00  9.000E+00
      25     1     1     2     0     0 -1.015298471E+02 -9.453529244E+01 -9.340970686E+02  9.525794271E+02  1.250000000E+02  0.00000E+00  9.000E+00
      21     1     1     2   501   512  1.898839914E+01  2.890583147E+01 -2.530652013E+01  4.285471218E+01  8.920806376E-07  0.00000E+00  9.000E+00
#rwgt            1           1   4.2594840092114894E-002           6      364592           0
</event>
<event>
      5   9999  3.79277E-02  2.56681E+01 -1.00000E+00  1.57898E-01
      21    -1     0     0   502   501  0.000000000E+00  0.000000000E+00  5.655146095E+01  5.655146095E+01  0.000000000E+00  0.00000E+00  9.000E+00
      21    -1     0     0   511   502  0.000000000E+00  0.000000000E+00 -1.074271948E+03  1.074271948E+03  0.000000000E+00  0.00000E+00  9.000E+00
      25     1     1     2     0     0 -9.592024592E+01  1.832081458E+02 -5.333918718E+02  5.855747665E+02  1.250000000E+02  0.00000E+00  9.000E+00
      25     1     1     2     0     0  8.403081944E+01 -1.604596317E+02 -3.934811025E+02  4.508445963E+02  1.250000000E+02  0.00000E+00  9.000E+00
      21     1     1     2   511   501  1.188942648E+01 -2.274851413E+01 -9.084751310E+01  9.440404649E+01  2.336015456E-06  0.00000E+00  9.000E+00
#rwgt            1           1   3.5234553249166016E-002           6      364778           0
</event>
<event>
      5   9999  3.79277E-02  1.87096E+02 -1.00000E+00  1.12713E-01
      21    -1     0     0   512   501  0.000000000E+00  0.000000000E+00  2.138255363E+03  2.138255363E+03  0.000000000E+00  0.00000E+00  9.000E+00
      21    -1     0     0   501   502  0.000000000E+00  0.000000000E+00 -9.502553936E+01  9.502553936E+01  0.000000000E+00  0.00000E+00  9.000E+00
      25     1     1     2     0     0  2.022451301E+02 -7.095675658E+01  2.364946093E+02  3.427720148E+02  1.250000000E+02  0.00000E+00  9.000E+00
      25     1     1     2     0     0 -1.685283266E+01  4.576521180E+01  8.542970275E+01  1.590651021E+02  1.250000000E+02  0.00000E+00  9.000E+00
      21     1     1     2   512   502 -1.853922974E+02  2.519154478E+01  1.721305511E+03  1.731443785E+03  2.157918644E-05  0.00000E+00  9.000E+00
#rwgt            1           1   3.5011213373234498E-002           6      364936           0
</event>
<event>
      5   9999  3.79277E-02  3.15742E+01 -1.00000E+00  1.51513E-01
      21    -1     0     0   502   501  0.000000000E+00  0.000000000E+00  4.088160858E+02  4.088160858E+02  0.000000000E+00  0.00000E+00  9.000E+00
       2    -1     0     0   501     0  0.000000000E+00  0.000000000E+00 -8.877490408E+01  8.877490408E+01  0.000000000E+00  0.00000E+00  9.000E+00
      25     1     1     2     0     0 -6.555688624E+01  3.296273368E+01  5.041746664E+01  1.534638983E+02  1.250000000E+02  0.00000E+00  9.000E+00
      25     1     1     2     0     0  5.287905208E+01 -6.187985940E+01  2.742739892E+02  3.122123193E+02  1.250000000E+02  0.00000E+00  9.000E+00
       2     1     1     2   502     0  1.267783417E+01  2.891712572E+01 -4.650274151E+00  3.191477226E+01  4.339283639E-07  0.00000E+00  9.000E+00
#rwgt            1           1   4.8463420027058980E-002           6      365028           0
</event>
<event>
      5   9999  3.79277E-02  1.36985E+02 -1.00000E+00  1.17978E-01
      21    -1     0     0   502   501  0.000000000E+00  0.000000000E+00  3.109510089E+02  3.109510089E+02  0.000000000E+00  0.00000E+00  9.000E+00
      21    -1     0     0   501   511  0.000000000E+00  0.000000000E+00 -3.100647962E+02  3.100647962E+02  0.000000000E+00  0.00000E+00  9.000E+00
      25     1     1     2     0     0  4.527993424E+01  9.880570452E+01 -4.693563362E+01  1.721650179E+02  1.250000000E+02  0.00000E+00  9.000E+00
      25     1     1     2     0     0 -1.350642849E+02 -2.022642215E+02  1.145483233E+02  2.964784895E+02  1.250000000E+02  0.00000E+00  9.000E+00
      21     1     1     2   502   511  8.978435062E+01  1.034585170E+02 -6.672647699E+01  1.523722976E+02  1.348699152E-06  0.00000E+00  9.000E+00
#rwgt            1           1   3.5106977719732271E-002           6      365139           0
</event>
<event>
      5   9999  3.79277E-02  1.06518E+02 -1.00000E+00  1.22607E-01
      21    -1     0     0   512   501  0.000000000E+00  0.000000000E+00  9.700747182E+01  9.700747182E+01  0.000000000E+00  0.00000E+00  9.000E+00
      21    -1     0     0   501   502  0.000000000E+00  0.000000000E+00 -1.317467983E+03  1.317467983E+03  0.000000000E+00  0.00000E+00  9.000E+00
      25     1     1     2     0     0  1.474391534E+02 -1.754444296E-01 -8.964689394E+02  9.170713680E+02  1.250000000E+02  0.00000E+00  9.000E+00
      25     1     1     2     0     0 -1.093249276E+02  9.964138418E+01 -3.384182829E+02  3.899131691E+02  1.250000000E+02  0.00000E+00  9.000E+00
      21     1     1     2   512   502 -3.811422573E+01 -9.946593975E+01  1.442671120E+01  1.074909176E+02  1.743881564E-06  0.00000E+00  9.000E+00
#rwgt            1           1   4.1427585175182122E-002           6      365203           0
</event>
<event>
      5   9999  3.79277E-02  8.87437E+01 -1.00000E+00  1.26206E-01
      21    -1     0     0   502   501  0.000000000E+00  0.000000000E+00  1.527692077E+02  1.527692077E+02  0.000000000E+00  0.00000E+00  9.000E+00
      21    -1     0     0   511   502  0.000000000E+00  0.000000000E+00 -1.640043969E+03  1.640043969E+03  0.000000000E+00  0.00000E+00  9.000E+00
      25     1     1     2     0     0  1.475024411E+02  1.086256372E+02 -1.400769746E+03  1.418216267E+03  1.250000000E+02  0.00000E+00  9.000E+00
      25     1     1     2     0     0 -6.815123345E+01 -1.483600484E+02  5.015563890E+01  2.116503784E+02  1.250000000E+02  0.00000E+00  9.000E+00
      21     1     1     2   511   501 -7.935120766E+01  3.973441121E+01 -1.366606537E+02  1.629465307E+02  2.697398305E-06  0.00000E+00  9.000E+00
#rwgt            1           1  0.15819532946920664                6      365362           0
</event>
<event>
      5   9999  3.79277E-02  6.18002E+01 -1.00000E+00  1.34021E-01
      21    -1     0     0   502   501  0.000000000E+00  0.000000000E+00  7.982780824E+01  7.982780824E+01  0.000000000E+00  0.00000E+00  9.000E+00
       2    -1     0     0   501     0  0.000000000E+00  0.000000000E+00 -1.273198038E+03  1.273198038E+03  0.000000000E+00  0.00000E+00  9.000E+00
      25     1     1     2     0     0 -2.584068796E+02  4.579771416E+01 -7.621516942E+02  8.157032248E+02  1.250000000E+02  0.00000E+00  9.000E+00
      25     1     1     2     0     0  2.069720422E+02 -8.005726685E+01 -3.096060613E+02  4.009083504E+02  1.250000000E+02  0.00000E+00  9.000E+00
       2     1     1     2   502     0  5.143483738E+01  3.425955268E+01 -1.216124746E+02  1.364142714E+02  1.348699152E-06  0.00000E+00  9.000E+00
#rwgt            1           1   3.6892705538679828E-002           6      365463           0
</event>
<event>
      5   9999  3.79277E-02  1.30344E+01 -1.00000E+00  1.83330E-01
      21    -1     0     0   502   511  0.000000000E+00  0.000000000E+00  6.250401219E+01  6.250401219E+01  0.000000000E+00  0.00000E+00  9.000E+00
      21    -1     0     0   501   502  0.000000000E+00  0.000000000E+00 -6.940236967E+02  6.940236967E+02  0.000000000E+00  0.00000E+00  9.000E+00
      25     1     1     2     0     0 -9.334087201E+01  2.809825884E-01 -5.287627874E+02  5.512963656E+02  1.250000000E+02  0.00000E+00  9.000E+00
      25     1     1     2     0     0  1.053976994E+02  4.671768317E+00 -1.005687222E+02  1.920145003E+02  1.250000000E+02  0.00000E+00  9.000E+00
      21     1     1     2   501   511 -1.205682741E+01 -4.952750905E+00 -2.188174927E+00  1.321684298E+01  1.737759082E-07  0.00000E+00  9.000E+00
#rwgt            1           1   3.6764734232855499E-002           6      365553           0
</event>
<event>
      5   9999  3.79277E-02  1.05978E+02 -1.00000E+00  1.22704E-01
      21    -1     0     0   502   501  0.000000000E+00  0.000000000E+00  6.246611364E+01  6.246611364E+01  0.000000000E+00  0.00000E+00  9.000E+00
       1    -1     0     0   501     0  0.000000000E+00  0.000000000E+00 -2.124876880E+03  2.124876880E+03  0.000000000E+00  0.00000E+00  9.000E+00
      25     1     1     2     0     0 -1.686895514E+01  7.774789461E+01 -9.247657659E+01  1.746602816E+02  1.250000000E+02  0.00000E+00  9.000E+00
      25     1     1     2     0     0 -1.267718442E+01 -1.795237220E+02 -6.018195990E+02  6.404695993E+02  1.250000000E+02  0.00000E+00  9.000E+00
       1     1     1     2   502     0  2.954613957E+01  1.017758274E+02 -1.368114591E+03  1.372213113E+03  0.000000000E+00  0.00000E+00  9.000E+00
#rwgt            1           1   3.6707348862765679E-002           6      365776           0
</event>
<event>
      5   9999  3.79277E-02  2.76091E+01 -1.00000E+00  1.55588E-01
      21    -1     0     0   511   501  0.000000000E+00  0.000000000E+00  3.844473601E+03  3.844473601E+03  0.000000000E+00  0.00000E+00  9.000E+00
      21    -1     0     0   501   502  0.000000000E+00  0.000000000E+00 -9.126921327E+01  9.126921327E+01  0.000000000E+00  0.00000E+00  9.000E+00
      25     1     1     2     0     0  1.755017476E+01 -1.664227014E+02  1.177423306E+02  2.397765222E+02  1.250000000E+02  0.00000E+00  9.000E+00
      25     1     1     2     0     0 -4.181049623E+01  1.796022849E+02  3.807391395E+02  4.411262752E+02  1.250000000E+02  0.00000E+00  9.000E+00
      21     1     1     2   511   502  2.426032147E+01 -1.317958344E+01  3.254722917E+03  3.254840017E+03  6.103515625E-05  0.00000E+00  9.000E+00
#rwgt            1           1   3.3920954725590528E-002           6      365889           0
</event>
<event>
      5   9999  3.79277E-02  8.95077E+00 -1.00000E+00  2.01492E-01
      21    -1     0     0   502   501  0.000000000E+00  0.000000000E+00  5.927654122E+02  5.927654122E+02  0.000000000E+00  0.00000E+00  9.000E+00
      21    -1     0     0   501   512  0.000000000E+00  0.000000000E+00 -2.956577326E+02  2.956577326E+02  0.000000000E+00  0.00000E+00  9.000E+00
      25     1     1     2     0     0 -1.267980370E+02  7.377920660E+01  5.338956788E+02  5.676184540E+02  1.250000000E+02  0.00000E+00  9.000E+00
      25     1     1     2     0     0  1.330254926E+02 -8.020844626E+01 -2.393287623E+02  3.115002937E+02  1.250000000E+02  0.00000E+00  9.000E+00
      21     1     1     2   502   512 -6.227455617E+00  6.429239661E+00  2.540763097E+00  9.304396982E+00  1.576990671E-07  0.00000E+00  9.000E+00
#rwgt            1           1   5.1901492686638774E-002           6      366035           0
</event>
<event>
      5   9999  3.79277E-02  6.90205E+01 -1.00000E+00  1.31531E-01
      21    -1     0     0   502   501  0.000000000E+00  0.000000000E+00  1.336089226E+02  1.336089226E+02  0.000000000E+00  0.00000E+00  9.000E+00
       2    -1     0     0   501     0  0.000000000E+00  0.000000000E+00 -1.349342514E+03  1.349342514E+03  0.000000000E+00  0.00000E+00  9.000E+00
      25     1     1     2     0     0  7.115933947E+01 -1.085105539E+02  3.378810356E+01  1.833161963E+02  1.250000000E+02  0.00000E+00  9.000E+00
      25     1     1     2     0     0 -9.941999144E+01  4.554103890E+01 -2.653069723E+02  3.130033713E+02  1.250000000E+02  0.00000E+00  9.000E+00
       2     1     1     2   502     0  2.826065197E+01  6.296951499E+01 -9.842147226E+02  9.866318688E+02  1.078959322E-05  0.00000E+00  9.000E+00
#rwgt            1           1   3.3421806298047432E-002           6      366289           0
</event>
<event>
      5   9999  3.79277E-02  4.80731E+01 -1.00000E+00  1.40056E-01
      21    -1     0     0   511   501  0.000000000E+00  0.000000000E+00  2.153061198E+02  2.153061198E+02  0.000000000E+00  0.00000E+00  9.000E+00
      21    -1     0     0   501   502  0.000000000E+00  0.000000000E+00 -4.407709854E+02  4.407709854E+02  0.000000000E+00  0.00000E+00  9.000E+00
      25     1     1     2     0     0  1.213881513E+02 -2.451439720E+02 -1.442711318E+02  3.335712963E+02  1.250000000E+02  0.00000E+00  9.000E+00
      25     1     1     2     0     0 -1.204380510E+02  1.970802300E+02 -7.954096134E+01  2.744042742E+02  1.250000000E+02  0.00000E+00  9.000E+00
      21     1     1     2   511   502 -9.501002677E-01  4.806374195E+01 -1.652772386E+00  4.810153466E+01  8.549683266E-07  0.00000E+00  9.000E+00
#rwgt            1           1   3.7593318721368153E-002           6      366544           0
</event>
<event>
      5   9999  3.79277E-02  8.54743E+01 -1.00000E+00  1.26973E-01
      21    -1     0     0   512   501  0.000000000E+00  0.000000000E+00  1.829199657E+02  1.829199657E+02  0.000000000E+00  0.00000E+00  9.000E+00
      21    -1     0     0   501   502  0.000000000E+00  0.000000000E+00 -7.654912281E+02  7.654912281E+02  0.000000000E+00  0.00000E+00  9.000E+00
      25     1     1     2     0     0 -1.531316578E+02 -1.750649707E+02 -1.207109158E+01  2.643251026E+02  1.250000000E+02  0.00000E+00  9.000E+00
      25     1     1     2     0     0  7.875538357E+01  2.171841087E+02 -5.254950804E+02  5.874873846E+02  1.250000000E+02  0.00000E+00  9.000E+00
      21     1     1     2   512   502  7.437627423E+01 -4.211913795E+01 -4.500509042E+01  9.659870659E+01  1.581489940E-06  0.00000E+00  9.000E+00
#rwgt            1           1   2.4126253480142835E-002           6      366697           0
</event>
<event>
      5   9999  3.79277E-02  3.45136E+01 -1.00000E+00  1.48929E-01
      21    -1     0     0   502   511  0.000000000E+00  0.000000000E+00  2.381330342E+02  2.381330342E+02  0.000000000E+00  0.00000E+00  9.000E+00
      21    -1     0     0   501   502  0.000000000E+00  0.000000000E+00 -1.672456399E+02  1.672456399E+02  0.000000000E+00  0.00000E+00  9.000E+00
      25     1     1     2     0     0 -8.882119141E+01 -7.557481988E+01  3.080239629E+01  1.737082182E+02  1.250000000E+02  0.00000E+00  9.000E+00
      25     1     1     2     0     0  1.226207031E+02  8.255943966E+01  3.190935326E+01  1.962016940E+02  1.250000000E+02  0.00000E+00  9.000E+00
      21     1     1     2   501   511 -3.379951166E+01 -6.984619779E+00  8.175644746E+00  3.546876187E+01  6.078504936E-07  0.00000E+00  9.000E+00
#rwgt            1           1   3.9063617367995573E-002           6      366772           0
</event>
<event>
      5   9999  3.79277E-02  4.35687E+01 -1.00000E+00  1.42575E-01
      21    -1     0     0   502   501  0.000000000E+00  0.000000000E+00  6.353841183E+02  6.353841183E+02  0.000000000E+00  0.00000E+00  9.000E+00
      21    -1     0     0   512   502  0.000000000E+00  0.000000000E+00 -9.193188578E+02  9.193188578E+02  0.000000000E+00  0.00000E+00  9.000E+00
      25     1     1     2     0     0 -1.723474724E+02  8.101433276E+01  1.045373734E+02  2.506392543E+02  1.250000000E+02  0.00000E+00  9.000E+00
      25     1     1     2     0     0  1.554985741E+02 -1.211932079E+02  4.274186096E+02  4.870105420E+02  1.250000000E+02  0.00000E+00  9.000E+00
      21     1     1     2   512   501  1.684889831E+01  4.017887509E+01 -8.158907226E+02  8.170531798E+02  0.000000000E+00  0.00000E+00  9.000E+00
#rwgt            1           1   2.2532881320440755E-002           6      366860           0
</event>
<event>
      5   9999  3.79277E-02  2.18332E+01 -1.00000E+00  1.63287E-01
      21    -1     0     0   502   501  0.000000000E+00  0.000000000E+00  4.900526980E+02  4.900526980E+02  0.000000000E+00  0.00000E+00  9.000E+00
      21    -1     0     0   501   511  0.000000000E+00  0.000000000E+00 -1.763717273E+02  1.763717273E+02  0.000000000E+00  0.00000E+00  9.000E+00
      25     1     1     2     0     0 -1.561189077E+02  6.290745586E+01  2.650247910E+02  3.379254374E+02  1.250000000E+02  0.00000E+00  9.000E+00
      25     1     1     2     0     0  1.455643308E+02 -4.379486957E+01  1.355084056E+02  2.389445396E+02  1.250000000E+02  0.00000E+00  9.000E+00
      21     1     1     2   502   511  1.055457696E+01 -1.911258629E+01 -8.685222600E+01  8.955444830E+01  9.536743164E-07  0.00000E+00  9.000E+00
#rwgt            1           1   3.6476595549177995E-002           6      367020           0
</event>
<event>
      5   9999  3.79277E-02  6.91708E+00 -1.00000E+00  2.16288E-01
      21    -1     0     0   502   501  0.000000000E+00  0.000000000E+00  2.072715899E+03  2.072715899E+03  0.000000000E+00  0.00000E+00  9.000E+00
       3    -1     0     0   501     0  0.000000000E+00  0.000000000E+00 -1.928475157E+03  1.928475157E+03  0.000000000E+00  0.00000E+00  9.000E+00
      25     1     1     2     0     0 -2.975799474E+02 -8.748069148E+01  1.521140610E+03  1.557466035E+03  1.250000000E+02  0.00000E+00  9.000E+00
      25     1     1     2     0     0  2.907709731E+02  8.869882373E+01  4.827691944E+02  5.840430936E+02  1.250000000E+02  0.00000E+00  9.000E+00
       3     1     1     2   502     0  6.808974305E+00 -1.218132249E+00 -1.859669062E+03  1.859681926E+03  2.157918644E-05  0.00000E+00  9.000E+00
#rwgt            1           1   2.7920687986937795E-002           6      367172           0
</event>
<event>
      5   9999  3.79277E-02  1.49492E+01 -1.00000E+00  1.77522E-01
      21    -1     0     0   502   501  0.000000000E+00  0.000000000E+00  1.047847390E+02  1.047847390E+02  0.000000000E+00  0.00000E+00  9.000E+00
      21    -1     0     0   511   502  0.000000000E+00  0.000000000E+00 -3.915834794E+02  3.915834794E+02  0.000000000E+00  0.00000E+00  9.000E+00
      25     1     1     2     0     0  8.170389542E+01 -4.996156310E+01 -2.180591619E+02  2.689730143E+02  1.250000000E+02  0.00000E+00  9.000E+00
      25     1     1     2     0     0 -8.960658991E+01  6.265118496E+01 -9.548008497E+00  1.663450522E+02  1.250000000E+02  0.00000E+00  9.000E+00
      21     1     1     2   511   501  7.902694492E+00 -1.268962186E+01 -5.919157007E+01  6.105015193E+01  0.000000000E+00  0.00000E+00  9.000E+00
#rwgt            1           1   2.6129814561704788E-002           6      367551           0
</event>
<event>
      5   9999  3.79277E-02  3.87385E+01 -1.00000E+00  1.45709E-01
      21    -1     0     0   502   512  0.000000000E+00  0.000000000E+00  8.512448407E+02  8.512448407E+02  0.000000000E+00  0.00000E+00  9.000E+00
      21    -1     0     0   501   502  0.000000000E+00  0.000000000E+00 -5.982677426E+01  5.982677426E+01  0.000000000E+00  0.00000E+00  9.000E+00
      25     1     1     2     0     0  7.713370582E+01  4.958086957E+00  6.017478385E+02  6.194349461E+02  1.250000000E+02  0.00000E+00  9.000E+00
      25     1     1     2     0     0 -4.786955758E+01 -3.034079526E+01  4.900467053E+01  1.457344027E+02  1.250000000E+02  0.00000E+00  9.000E+00
      21     1     1     2   501   512 -2.926414824E+01  2.538270830E+01  1.406655574E+02  1.459022662E+02  0.000000000E+00  0.00000E+00  9.000E+00
#rwgt            1           1   5.1148296605283500E-002           6      367833           0
</event>
<event>
      5   9999  3.79277E-02  6.99799E+01 -1.00000E+00  1.31227E-01
      21    -1     0     0   511   501  0.000000000E+00  0.000000000E+00  7.509837313E+02  7.509837313E+02  0.000000000E+00  0.00000E+00  9.000E+00
      21    -1     0     0   501   502  0.000000000E+00  0.000000000E+00 -2.101908843E+02  2.101908843E+02  0.000000000E+00  0.00000E+00  9.000E+00
      25     1     1     2     0     0  5.164500713E+01  3.091703459E+01 -1.600802828E+02  2.118342907E+02  1.250000000E+02  0.00000E+00  9.000E+00
      25     1     1     2     0     0 -1.627235097E+00  1.802584475E+01  6.516634010E+02  6.637904542E+02  1.250000000E+02  0.00000E+00  9.000E+00
      21     1     1     2   511   502 -5.001777203E+01 -4.894287935E+01  4.920972879E+01  8.554987063E+01  9.536743164E-07  0.00000E+00  9.000E+00
#rwgt            1           1   4.4060542333915653E-002           6      367993           0
</event>
<event>
      5   9999  3.79277E-02  4.23911E+01 -1.00000E+00  1.43294E-01
      21    -1     0     0   502   501  0.000000000E+00  0.000000000E+00  2.136794660E+02  2.136794660E+02  0.000000000E+00  0.00000E+00  9.000E+00
      21    -1     0     0   512   502  0.000000000E+00  0.000000000E+00 -2.857940702E+02  2.857940702E+02  0.000000000E+00  0.00000E+00  9.000E+00
      25     1     1     2     0     0 -8.920754417E+01  1.140997401E+02  5.728861795E+01  1.997090944E+02  1.250000000E+02  0.00000E+00  9.000E+00
      25     1     1     2     0     0  1.198070339E+02 -8.476246568E+01 -3.452298077E+01  1.958449314E+02  1.250000000E+02  0.00000E+00  9.000E+00
      21     1     1     2   512   501 -3.059948973E+01 -2.933727441E+01 -9.488024134E+01  1.039195104E+02  0.000000000E+00  0.00000E+00  9.000E+00
#rwgt            1           1   4.6118527167458498E-002           6      368130           0
</event>
<event>
      5   9999  3.79277E-02  8.02428E+01 -1.00000E+00  1.28286E-01
      21    -1     0     0   502   501  0.000000000E+00  0.000000000E+00  1.431379960E+02  1.431379960E+02  0.000000000E+00  0.00000E+00  9.000E+00
      21    -1     0     0   501   511  0.000000000E+00  0.000000000E+00 -7.340675634E+02  7.340675634E+02  0.000000000E+00  0.00000E+00  9.000E+00
      25     1     1     2     0     0 -1.639349334E+02  1.040307174E+02 -1.242804959E+02  2.622359514E+02  1.250000000E+02  0.00000E+00  9.000E+00
      25     1     1     2     0     0  2.108348591E+02 -1.691406023E+02 -2.676507232E+02  4.004020364E+02  1.250000000E+02  0.00000E+00  9.000E+00
      21     1     1     2   502   511 -4.689992570E+01  6.510988486E+01 -1.989983484E+02  2.145675717E+02  0.000000000E+00  0.00000E+00  9.000E+00
#rwgt            1           1   3.7723613362669578E-002           6      368288           0
</event>
<event>
      5   9999  3.79277E-02  3.85004E+01 -1.00000E+00  1.45877E-01
      21    -1     0     0   502   501  0.000000000E+00  0.000000000E+00  3.820146597E+02  3.820146597E+02  0.000000000E+00  0.00000E+00  9.000E+00
      21    -1     0     0   501   512  0.000000000E+00  0.000000000E+00 -1.232491978E+02  1.232491978E+02  0.000000000E+00  0.00000E+00  9.000E+00
      25     1     1     2     0     0 -3.013789290E+01  3.194858472E+01  2.925725160E+02  3.211739121E+02  1.250000000E+02  0.00000E+00  9.000E+00
      25     1     1     2     0     0  1.177441448E+01 -6.578733535E+01 -1.980179675E+01  1.431213523E+02  1.250000000E+02  0.00000E+00  9.000E+00
      21     1     1     2   502   512  1.836347842E+01  3.383875063E+01 -1.400525737E+01  4.096859306E+01  8.429369702E-07  0.00000E+00  9.000E+00
#rwgt            1           1   4.2094822693643751E-002           6      368453           0
</event>
<event>
      5   9999  3.79277E-02  1.41346E+01 -1.00000E+00  1.79850E-01
       2    -1     0     0   502     0  0.000000000E+00  0.000000000E+00  1.068758787E+03  1.068758787E+03  0.000000000E+00  0.00000E+00  9.000E+00
      21    -1     0     0   501   502  0.000000000E+00  0.000000000E+00 -1.763084553E+02  1.763084553E+02  0.000000000E+00  0.00000E+00  9.000E+00
      25     1     1     2     0     0 -1.634060287E+02 -8.512175035E+00  3.252165640E+01  2.084625757E+02  1.250000000E+02  0.00000E+00  9.000E+00
      25     1     1     2     0     0  1.749833982E+02  4.035295024E-01  4.268705037E+01  2.192408191E+02  1.250000000E+02  0.00000E+00  9.000E+00
       2     1     1     2   501     0 -1.157736956E+01  8.108645532E+00  8.172416248E+02  8.173638473E+02  1.078959322E-05  0.00000E+00  9.000E+00
#rwgt            1           1   5.0614722058634938E-002           6      368677           0
</event>
<event>
      5   9999  3.79277E-02  1.40766E+02 -1.00000E+00  1.17498E-01
      21    -1     0     0   502   501  0.000000000E+00  0.000000000E+00  1.086109595E+03  1.086109595E+03  0.000000000E+00  0.00000E+00  9.000E+00
      21    -1     0     0   501   511  0.000000000E+00  0.000000000E+00 -1.812438876E+02  1.812438876E+02  0.000000000E+00  0.00000E+00  9.000E+00
      25     1     1     2     0     0 -2.309302444E+02  4.737329079E+01  3.173950922E+02  4.146536518E+02  1.250000000E+02  0.00000E+00  9.000E+00
      25     1     1     2     0     0  3.709701597E+02 -6.164968220E+01  5.913783843E+02  7.118798608E+02  1.250000000E+02  0.00000E+00  9.000E+00
      21     1     1     2   502   511 -1.400399153E+02  1.427639141E+01 -3.907769307E+00  1.408199698E+02  1.507891493E-06  0.00000E+00  9.000E+00
#rwgt            1           1   6.0042525343677593E-002           6      368867           0
</event>
<event>
      5   9999  3.79277E-02  1.41977E+02 -1.00000E+00  1.17348E-01
       1    -1     0     0   502     0  0.000000000E+00  0.000000000E+00  1.878610902E+03  1.878610902E+03  0.000000000E+00  0.00000E+00  9.000E+00
      21    -1     0     0   501   502  0.000000000E+00  0.000000000E+00 -5.104377775E+01  5.104377775E+01  0.000000000E+00  0.00000E+00  9.000E+00
      25     1     1     2     0     0 -2.126997461E+02  6.572161278E+01  8.629799588E+02  8.999555110E+02  1.250000000E+02  0.00000E+00  9.000E+00
      25     1     1     2     0     0  7.858772690E+01 -1.912173377E+01  1.858833086E+02  2.381580902E+02  1.250000000E+02  0.00000E+00  9.000E+00
       1     1     1     2   501     0  1.341120192E+02 -4.659987901E+01  7.787038570E+02  7.915410787E+02  1.078959322E-05  0.00000E+00  9.000E+00
#rwgt            1           1   4.2495677526109048E-002           6      368944           0
</event>
<event>
      5   9999  3.79277E-02  1.70196E+01 -1.00000E+00  1.72367E-01
      21    -1     0     0   511   501  0.000000000E+00  0.000000000E+00  3.356416884E+02  3.356416884E+02  0.000000000E+00  0.00000E+00  9.000E+00
      21    -1     0     0   501   502  0.000000000E+00  0.000000000E+00 -2.016765568E+02  2.016765568E+02  0.000000000E+00  0.00000E+00  9.000E+00
      25     1     1     2     0     0 -6.991079041E+01 -3.413799724E+01 -9.115447551E+01  1.731677218E+02  1.250000000E+02  0.00000E+00  9.000E+00
      25     1     1     2     0     0  8.692787035E+01  3.384244959E+01  1.876492098E+01  1.570951568E+02  1.250000000E+02  0.00000E+00  9.000E+00
      21     1     1     2   511   502 -1.701707994E+01  2.955476533E-01  2.063546861E+02  2.070553666E+02  0.000000000E+00  0.00000E+00  9.000E+00
#rwgt            1           1   5.2077570701174976E-002           6      369011           0
</event>
<event>
      5   9999  3.79277E-02  3.07537E+01 -1.00000E+00  1.52295E-01
      21    -1     0     0   512   501  0.000000000E+00  0.000000000E+00  7.779483478E+01  7.779483478E+01  0.000000000E+00  0.00000E+00  9.000E+00
      21    -1     0     0   501   502  0.000000000E+00  0.000000000E+00 -1.284272801E+03  1.284272801E+03  0.000000000E+00  0.00000E+00  9.000E+00
      25     1     1     2     0     0 -2.400487360E+02 -7.319175872E+01 -3.898980706E+02  4.802352910E+02  1.250000000E+02  0.00000E+00  9.000E+00
      25     1     1     2     0     0  2.281154317E+02  4.484772515E+01 -8.078270537E+02  8.498573511E+02  1.250000000E+02  0.00000E+00  9.000E+00
      21     1     1     2   512   502  1.193330430E+01  2.834403358E+01 -8.752842160E+00  3.197499393E+01  6.419616708E-07  0.00000E+00  9.000E+00
#rwgt            1           1   3.6268930583100281E-002           6      369218           0
</event>
<event>
      5   9999  3.79277E-02  8.40501E+01 -1.00000E+00  1.27320E-01
       1    -1     0     0   502     0  0.000000000E+00  0.000000000E+00  1.085185341E+03  1.085185341E+03  0.000000000E+00  0.00000E+00  9.000E+00
      21    -1     0     0   501   502  0.000000000E+00  0.000000000E+00 -1.380712153E+02  1.380712153E+02  0.000000000E+00  0.00000E+00  9.000E+00
      25     1     1     2     0     0  5.453595144E+01  1.861657106E+02  1.714568070E+02  2.874965712E+02  1.250000000E+02  0.00000E+00  9.000E+00
      25     1     1     2     0     0  8.410195544E+00 -1.304682665E+02  2.757426098E+01  1.829700517E+02  1.250000000E+02  0.00000E+00  9.000E+00
       1     1     1     2   501     0 -6.294614698E+01 -5.569744410E+01  7.480830576E+02  7.527899333E+02  1.078959322E-05  0.00000E+00  9.000E+00
#rwgt            1           1   3.0491808305982179E-002           6      369423           0
</event>
<event>
      5   9999  3.79277E-02  4.70663E+01 -1.00000E+00  1.40591E-01
      21    -1     0     0   502   511  0.000000000E+00  0.000000000E+00  3.366804935E+02  3.366804935E+02  0.000000000E+00  0.00000E+00  9.000E+00
      21    -1     0     0   501   502  0.000000000E+00  0.000000000E+00 -2.022981403E+02  2.022981403E+02  0.000000000E+00  0.00000E+00  9.000E+00
      25     1     1     2     0     0  1.404948077E+02  1.342239289E+02  1.427782559E+02  2.715980199E+02  1.250000000E+02  0.00000E+00  9.000E+00
      25     1     1     2     0     0 -1.271585051E+02 -8.908657803E+01 -4.895514560E+01  2.052493851E+02  1.250000000E+02  0.00000E+00  9.000E+00
      21     1     1     2   501   511 -1.333630259E+01 -4.513735090E+01  4.055924283E+01  6.213122879E+01  6.743495762E-07  0.00000E+00  9.000E+00
#rwgt            1           1   3.3926697843531181E-002           6      369520           0
</event>
<event>
      5   9999  3.79277E-02  4.32339E+01 -1.00000E+00  1.42777E-01
      21    -1     0     0   502   501  0.000000000E+00  0.000000000E+00  5.459118943E+02  5.459118943E+02  0.000000000E+00  0.00000E+00  9.000E+00
      21    -1     0     0   501   512  0.000000000E+00  0.000000000E+00 -1.503483639E+02  1.503483639E+02  0.000000000E+00  0.00000E+00  9.000E+00
      25     1     1     2     0     0 -7.110807508E+01  3.721871481E+01  4.759131274E+02  4.985578160E+02  1.250000000E+02  0.00000E+00  9.000E+00
      25     1     1     2     0     0  2.889486423E+01 -4.655739957E+01 -5.226572238E+01  1.461479058E+02  1.250000000E+02  0.00000E+00  9.000E+00
      21     1     1     2   502   512  4.221321085E+01  9.338684761E+00 -2.808387463E+01  5.155453634E+01  1.168007728E-06  0.00000E+00  9.000E+00
#rwgt            2          11   1.4645874390338980E-003           6      369663           0
</event>
<event>
      5   9999  3.79277E-02  3.21663E+01 -1.00000E+00  1.50966E-01
      21    -1     0     0   502   501  0.000000000E+00  0.000000000E+00  7.830390970E+01  7.830390970E+01  0.000000000E+00  0.00000E+00  9.000E+00
      21    -1     0     0   501   511  0.000000000E+00  0.000000000E+00 -1.842792932E+03  1.842792932E+03  0.000000000E+00  0.00000E+00  9.000E+00
      25     1     1     2     0     0 -2.398706232E+02 -4.176919630E+01 -1.330127081E+03  1.357993238E+03  1.250000000E+02  0.00000E+00  9.000E+00
      25     1     1     2     0     0  2.652605806E+02  6.151819962E+01 -2.964558718E+02  4.214958463E+02  1.250000000E+02  0.00000E+00  9.000E+00
      21     1     1     2   502   511 -2.538995745E+01 -1.974900331E+01 -1.379060688E+02  1.416077572E+02  1.907348633E-06  0.00000E+00  9.000E+00
#rwgt            1           1   4.4227364170181520E-002           6      369713           0
</event>
<event>
      5   9999  3.79277E-02  2.23729E+01 -1.00000E+00  1.62449E-01
      21    -1     0     0   502   512  0.000000000E+00  0.000000000E+00  3.607973772E+02  3.607973772E+02  0.000000000E+00  0.00000E+00  9.000E+00
      21    -1     0     0   501   502  0.000000000E+00  0.000000000E+00 -2.603158936E+02  2.603158936E+02  0.000000000E+00  0.00000E+00  9.000E+00
      25     1     1     2     0     0 -1.530606970E+02  2.784365310E+01  4.983557383E+01  2.056974244E+02  1.250000000E+02  0.00000E+00  9.000E+00
      25     1     1     2     0     0  1.617639383E+02 -4.845429710E+01 -1.209122904E+02  2.424049765E+02  1.250000000E+02  0.00000E+00  9.000E+00
      21     1     1     2   501   512 -8.703241376E+00  2.061064400E+01  1.715582002E+02  1.730108699E+02  3.303624740E-06  0.00000E+00  9.000E+00
#rwgt            1           1   2.5580937455895684E-002           6      369894           0
</event>
<event>
      5   9999  3.79277E-02  1.56231E+02 -1.00000E+00  1.15697E-01
      21    -1     0     0   502   501  0.000000000E+00  0.000000000E+00  3.049652634E+02  3.049652634E+02  0.000000000E+00  0.00000E+00  9.000E+00
      21    -1     0     0   501   511  0.000000000E+00  0.000000000E+00 -6.475054138E+02  6.475054138E+02  0.000000000E+00  0.00000E+00  9.000E+00
      25     1     1     2     0     0  2.588362597E+01 -7.382075166E+00  2.373571099E+02  2.696068522E+02  1.250000000E+02  0.00000E+00  9.000E+00
      25     1     1     2     0     0  1.303295309E+02  9.717540687E+00 -1.874682618E+02  2.604794933E+02  1.250000000E+02  0.00000E+00  9.000E+00
      21     1     1     2   502   511 -1.562131569E+02 -2.335465521E+00 -3.924289986E+02  4.223843317E+02  5.394796609E-06  0.00000E+00  9.000E+00
#rwgt            1           1   4.1064976258832674E-002           6      370258           0
</event>
<event>
      5   9999  3.79277E-02  1.10646E+02 -1.00000E+00  1.21883E-01
      21    -1     0     0   512   501  0.000000000E+00  0.000000000E+00  2.894779577E+02  2.894779577E+02  0.000000000E+00  0.00000E+00  9.000E+00
      21    -1     0     0   501   502  0.000000000E+00  0.000000000E+00 -3.337558308E+02  3.337558308E+02  0.000000000E+00  0.00000E+00  9.000E+00
      25     1     1     2     0     0 -4.143925411E+01  2.420032122E+02  8.279726546E+01  2.876858594E+02  1.250000000E+02  0.00000E+00  9.000E+00
      25     1     1     2     0     0  5.560815789E+01 -1.322678203E+02 -1.193652982E+02  2.246332965E+02  1.250000000E+02  0.00000E+00  9.000E+00
      21     1     1     2   512   502 -1.416890379E+01 -1.097353920E+02 -7.709840406E+00  1.109146326E+02  2.626665179E-06  0.00000E+00  9.000E+00
#rwgt            1           1   6.4821094065743171E-002           6      370324           0
</event>
<event>
      5   9999  3.79277E-02  6.70933E+01 -1.00000E+00  1.32160E-01
      21    -1     0     0   502   501  0.000000000E+00  0.000000000E+00  2.808220757E+02  2.808220757E+02  0.000000000E+00  0.00000E+00  9.000E+00
      21    -1     0     0   501   511  0.000000000E+00  0.000000000E+00 -2.287945089E+02  2.287945089E+02  0.000000000E+00  0.00000E+00  9.000E+00
      25     1     1     2     0     0  9.981447063E+01 -9.878455659E+01  4.775561330E+01  1.939765856E+02  1.250000000E+02  0.00000E+00  9.000E+00
      25     1     1     2     0     0 -1.651070553E+02  1.142242536E+02  3.963333170E+01  2.397985004E+02  1.250000000E+02  0.00000E+00  9.000E+00
      21     1     1     2   502   511  6.529258462E+01 -1.543969697E+01 -3.536137819E+01  7.584149865E+01  0.000000000E+00  0.00000E+00  9.000E+00
#rwgt            1           1   3.4604858008733613E-002           6      370378           0
</event>
<event>
      5   9999  3.79277E-02  9.12535E+01 -1.00000E+00  1.25643E-01
      -2    -1     0     0     0   501  0.000000000E+00  0.000000000E+00  1.688194787E+02  1.688194787E+02  0.000000000E+00  0.00000E+00  9.000E+00
      21    -1     0     0   501   502  0.000000000E+00  0.000000000E+00 -1.083463802E+03  1.083463802E+03  0.000000000E+00  0.00000E+00  9.000E+00
      25     1     1     2     0     0  2.545114924E+02 -7.735403370E+01 -6.680907416E+02  7.298835423E+02  1.250000000E+02  0.00000E+00  9.000E+00
      25     1     1     2     0     0 -1.706690608E+02  4.133117891E+01 -3.330177096E+02  3.966887817E+02  1.250000000E+02  0.00000E+00  9.000E+00
      -2     1     1     2     0   502 -8.384243158E+01  3.602285479E+01  8.646412743E+01  1.257109571E+02  4.264961200E-06  0.00000E+00  9.000E+00
#rwgt            1           1   3.8924738560080642E-002           6      370432           0
</event>
<event>
      5   9999  3.79277E-02  1.26287E+01 -1.00000E+00  1.84726E-01
      21    -1     0     0   502   501  0.000000000E+00  0.000000000E+00  1.399866750E+02  1.399866750E+02  0.000000000E+00  0.00000E+00  9.000E+00
      21    -1     0     0   511   502  0.000000000E+00  0.000000000E+00 -2.803033980E+02  2.803033980E+02  0.000000000E+00  0.00000E+00  9.000E+00
      25     1     1     2     0     0  1.410928909E+02 -2.722706810E+01 -4.577865808E+01  1.958805826E+02  1.250000000E+02  0.00000E+00  9.000E+00
      25     1     1     2     0     0 -1.347616197E+02  1.630010667E+01 -7.103895653E+01  1.977319422E+02  1.250000000E+02  0.00000E+00  9.000E+00
      21     1     1     2   511   501 -6.331271197E+00  1.092696142E+01 -2.349910839E+01  2.667754816E+01  4.768371582E-07  0.00000E+00  9.000E+00
#rwgt            1           1   3.5712503575270282E-002           6      370513           0
</event>
<event>
      5   9999 -3.79277E-02  1.31925E+02 -1.00000E+00  1.18647E-01
      21    -1     0     0   502   501  0.000000000E+00  0.000000000E+00  4.615004153E+01  4.615004153E+01  0.000000000E+00  0.00000E+00  9.000E+00
      -2    -1     0     0     0   502  0.000000000E+00  0.000000000E+00 -2.252901339E+03  2.252901339E+03  0.000000000E+00  0.00000E+00  9.000E+00
      25     1     1     2     0     0 -8.014581890E+01 -5.033762349E+01 -7.592018023E+02  7.752222941E+02  1.250000000E+02  0.00000E+00  9.000E+00
      25     1     1     2     0     0  5.951993876E+01  1.806399223E+02 -3.443240963E+02  4.127438527E+02  1.250000000E+02  0.00000E+00  9.000E+00
      -2     1     1     2     0   501  2.062588014E+01 -1.303022988E+02 -1.103225399E+03  1.111085234E+03  0.000000000E+00  0.00000E+00  9.000E+00
#rwgt            1           1  -2.0794662666249762E-002           6      370703           0
</event>
<event>
      5   9999  3.79277E-02  4.21759E+01 -1.00000E+00  1.43428E-01
      21    -1     0     0   502   501  0.000000000E+00  0.000000000E+00  1.974553967E+02  1.974553967E+02  0.000000000E+00  0.00000E+00  9.000E+00
      21    -1     0     0   501   511  0.000000000E+00  0.000000000E+00 -3.002214539E+02  3.002214539E+02  0.000000000E+00  0.00000E+00  9.000E+00
      25     1     1     2     0     0 -1.299077576E+02  6.754179337E+00  8.131927704E+01  1.978875166E+02  1.250000000E+02  0.00000E+00  9.000E+00
      25     1     1     2     0     0  1.443081094E+02  3.288715274E+01 -1.419224769E+02  2.401528361E+02  1.250000000E+02  0.00000E+00  9.000E+00
      21     1     1     2   502   511 -1.440035180E+01 -3.964133208E+01 -4.216285730E+01  5.963649786E+01  4.768371582E-07  0.00000E+00  9.000E+00
#rwgt            1           1   4.9038744157638620E-002           6      370785           0
</event>
<event>
      5   9999  3.79277E-02  3.47909E+01 -1.00000E+00  1.48701E-01
      21    -1     0     0   502   501  0.000000000E+00  0.000000000E+00  1.017520427E+03  1.017520427E+03  0.000000000E+00  0.00000E+00  9.000E+00
      21    -1     0     0   512   502  0.000000000E+00  0.000000000E+00 -2.402678427E+02  2.402678427E+02  0.000000000E+00  0.00000E+00  9.000E+00
      25     1     1     2     0     0 -2.553311012E+02  3.509357512E+02  3.108403261E+02  5.482668885E+02  1.250000000E+02  0.00000E+00  9.000E+00
      25     1     1     2     0     0  2.376008331E+02 -3.210017645E+02  5.061266494E+02  6.567232857E+02  1.250000000E+02  0.00000E+00  9.000E+00
      21     1     1     2   512   501  1.773026806E+01 -2.993398669E+01 -3.971439148E+01  5.279809518E+01  0.000000000E+00  0.00000E+00  9.000E+00
#rwgt            1           1   2.3452701710949406E-002           6      370897           0
</event>
<event>
      5   9999  3.79277E-02  5.35858E+01 -1.00000E+00  1.37381E-01
      21    -1     0     0   502   511  0.000000000E+00  0.000000000E+00  5.979867061E+02  5.979867061E+02  0.000000000E+00  0.00000E+00  9.000E+00
      21    -1     0     0   501   502  0.000000000E+00  0.000000000E+00 -1.575513639E+02  1.575513639E+02  0.000000000E+00  0.00000E+00  9.000E+00
      25     1     1     2     0     0  3.414538419E+01 -1.039687764E+01  2.833257714E+02  3.117250312E+02  1.250000000E+02  0.00000E+00  9.000E+00
      25     1     1     2     0     0  1.565474084E+01 -9.386685615E+00 -1.123613629E+02  1.690658352E+02  1.250000000E+02  0.00000E+00  9.000E+00
      21     1     1     2   501   511 -4.980012503E+01  1.978356325E+01  2.694709337E+02  2.747472037E+02  3.814697266E-06  0.00000E+00  9.000E+00
#rwgt            1           1   4.1873713097231355E-002           6      371074           0
</event>
<event>
      5   9999  3.79277E-02  1.23736E+01 -1.00000E+00  1.85639E-01
      21    -1     0     0   512   501  0.000000000E+00  0.000000000E+00  1.721331283E+02  1.721331283E+02  0.000000000E+00  0.00000E+00  9.000E+00
      21    -1     0     0   501   502  0.000000000E+00  0.000000000E+00 -2.220645052E+02  2.220645052E+02  0.000000000E+00  0.00000E+00  9.000E+00
      25     1     1     2     0     0  5.563139472E+01 -1.346274934E+02 -6.943516473E+00  1.920745336E+02  1.250000000E+02  0.00000E+00  9.000E+00
      25     1     1     2     0     0 -5.610289660E+01  1.222628621E+02 -4.616903636E+01  1.893470950E+02  1.250000000E+02  0.00000E+00  9.000E+00
      21     1     1     2   512   502  4.715018770E-01  1.236463132E+01  3.181175863E+00  1.277600492E+01  1.115100797E-07  0.00000E+00  9.000E+00
#rwgt            1           1   4.2717176663464362E-002           6      371206           0
</event>
<event>
      5   9999  3.79277E-02  4.96776E+01 -1.00000E+00  1.39236E-01
      21    -1     0     0   502   501  0.000000000E+00  0.000000000E+00  1.027678041E+03  1.027678041E+03  0.000000000E+00  0.00000E+00  9.000E+00
      21    -1     0     0   501   511  0.000000000E+00  0.000000000E+00 -6.031014002E+02  6.031014002E+02  0.000000000E+00  0.00000E+00  9.000E+00
      25     1     1     2     0     0 -2.173371730E+02  1.772996637E+02  1.980680097E+02  3.654128541E+02  1.250000000E+02  0.00000E+00  9.000E+00
      25     1     1     2     0     0  1.824692312E+02 -2.126845828E+02  7.130634316E+02  7.762823002E+02  1.250000000E+02  0.00000E+00  9.000E+00
      21     1     1     2   502   511  3.486794177E+01  3.538491908E+01 -4.865548005E+02  4.890842869E+02  0.000000000E+00  0.00000E+00  9.000E+00
#rwgt            1           1   4.6444157230848514E-002           6      371448           0
</event>
<event>
      5   9999  3.79277E-02  3.99426E+01 -1.00000E+00  1.44879E-01
      21    -1     0     0   502   501  0.000000000E+00  0.000000000E+00  6.923017261E+01  6.923017261E+01  0.000000000E+00  0.00000E+00  9.000E+00
      21    -1     0     0   512   502  0.000000000E+00  0.000000000E+00 -5.395985637E+02  5.395985637E+02  0.000000000E+00  0.00000E+00  9.000E+00
      25     1     1     2     0     0 -3.209386792E+01  5.192102352E+01 -3.399428498E+02  3.673036213E+02  1.250000000E+02  0.00000E+00  9.000E+00
      25     1     1     2     0     0  7.093570661E+01 -6.123345266E+01 -7.523582886E+01  1.733979243E+02  1.250000000E+02  0.00000E+00  9.000E+00
      21     1     1     2   512   501 -3.884183870E+01  9.312429144E+00 -5.518971241E+01  6.812719080E+01  6.743495762E-07  0.00000E+00  9.000E+00
#rwgt            1           1   3.0912372824628852E-002           6      371602           0
</event>
<event>
      5   9999  3.79277E-02  9.44969E+00 -1.00000E+00  1.98642E-01
      21    -1     0     0   502   511  0.000000000E+00  0.000000000E+00  2.044897966E+02  2.044897966E+02  0.000000000E+00  0.00000E+00  9.000E+00
      21    -1     0     0   501   502  0.000000000E+00  0.000000000E+00 -2.559885207E+02  2.559885207E+02  0.000000000E+00  0.00000E+00  9.000E+00
      25     1     1     2     0     0  1.832764107E+02  4.785399068E+01 -9.947931583E+00  2.271655970E+02  1.250000000E+02  0.00000E+00  9.000E+00
      25     1     1     2     0     0 -1.738760123E+02 -4.881791972E+01 -4.283417076E+01  2.237762792E+02  1.250000000E+02  0.00000E+00  9.000E+00
      21     1     1     2   501   511 -9.400398363E+00  9.639290404E-01  1.283378181E+00  9.536441063E+00  5.575503985E-08  0.00000E+00  9.000E+00
#rwgt            1           1  0.11200470512121329                6      371690           0
</event>
<event>
      5   9999  3.79277E-02  3.98633E+01 -1.00000E+00  1.44932E-01
      21    -1     0     0   512   501  0.000000000E+00  0.000000000E+00  1.842923089E+01  1.842923089E+01  0.000000000E+00  0.00000E+00  9.000E+00
      21    -1     0     0   501   502  0.000000000E+00  0.000000000E+00 -4.415523909E+03  4.415523909E+03  0.000000000E+00  0.00000E+00  9.000E+00
      25     1     1     2     0     0  1.967910245E+02  6.426395295E+01 -3.024014112E+03  3.033668227E+03  1.250000000E+02  0.00000E+00  9.000E+00
      25     1     1     2     0     0 -1.971097362E+02 -2.440189592E+01 -1.157563238E+03  1.181111913E+03  1.250000000E+02  0.00000E+00  9.000E+00
      21     1     1     2   512   502  3.187117289E-01 -3.986205703E+01 -2.155173280E+02  2.191729998E+02  2.697398305E-06  0.00000E+00  9.000E+00
#rwgt            1           1   4.7231665901008406E-003           6      371908           0
</event>
<event>
      5   9999  3.79277E-02  9.72999E+00 -1.00000E+00  1.97141E-01
      21    -1     0     0   502   501  0.000000000E+00  0.000000000E+00  1.422856889E+02  1.422856889E+02  0.000000000E+00  0.00000E+00  9.000E+00
      21    -1     0     0   511   502  0.000000000E+00  0.000000000E+00 -1.323834022E+03  1.323834022E+03  0.000000000E+00  0.00000E+00  9.000E+00
      25     1     1     2     0     0  2.091030130E+02  1.605912506E+02 -1.655510512E+02  3.354784201E+02  1.250000000E+02  0.00000E+00  9.000E+00
      25     1     1     2     0     0 -2.100578625E+02 -1.509082216E+02 -3.028276880E+02  4.174053252E+02  1.250000000E+02  0.00000E+00  9.000E+00
      21     1     1     2   511   501  9.548495123E-01 -9.683028981E+00 -7.131695943E+02  7.132359659E+02  0.000000000E+00  0.00000E+00  9.000E+00
#rwgt            1           1   3.2884229113791026E-002           6      372017           0
</event>
<event>
      5   9999  3.79277E-02  2.37826E+02 -1.00000E+00  1.08976E-01
      21    -1     0     0   502   501  0.000000000E+00  0.000000000E+00  8.043610110E+01  8.043610110E+01  0.000000000E+00  0.00000E+00  9.000E+00
       2    -1     0     0   501     0  0.000000000E+00  0.000000000E+00 -2.034855541E+03  2.034855541E+03  0.000000000E+00  0.00000E+00  9.000E+00
      25     1     1     2     0     0 -1.683677659E+02  8.014801304E+01 -7.062835126E+02  7.411024280E+02  1.250000000E+02  0.00000E+00  9.000E+00
      25     1     1     2     0     0 -2.519234045E+01 -2.183359970E+02 -2.799876647E+02  3.772576759E+02  1.250000000E+02  0.00000E+00  9.000E+00
       2     1     1     2   502     0  1.935601063E+02  1.381879839E+02 -9.681482625E+02  9.969315382E+02  1.078959322E-05  0.00000E+00  9.000E+00
#rwgt            2          13   5.4219693022850794E-004           6      372337           0
</event>
<event>
      5   9999  3.79277E-02  2.53555E+01 -1.00000E+00  1.58293E-01
      21    -1     0     0   502   501  0.000000000E+00  0.000000000E+00  1.508181793E+03  1.508181793E+03  0.000000000E+00  0.00000E+00  9.000E+00
      21    -1     0     0   501   511  0.000000000E+00  0.000000000E+00 -1.238762018E+03  1.238762018E+03  0.000000000E+00  0.00000E+00  9.000E+00
      25     1     1     2     0     0 -6.015892526E+00 -6.778387068E+01  1.233298853E+03  1.241483751E+03  1.250000000E+02  0.00000E+00  9.000E+00
      25     1     1     2     0     0  2.948047640E+01  7.739186433E+01  2.498905585E+02  2.914256172E+02  1.250000000E+02  0.00000E+00  9.000E+00
      21     1     1     2   502   511 -2.346458388E+01 -9.607993649E+00 -1.213769636E+03  1.214034443E+03  2.157918644E-05  0.00000E+00  9.000E+00
#rwgt            1           1   4.7895145060717619E-002           6      372416           0
</event>
<event>
      5   9999 -3.79277E-02  4.61831E+01 -1.00000E+00  1.41072E-01
      21    -1     0     0   502   512  0.000000000E+00  0.000000000E+00  2.073088093E+01  2.073088093E+01  0.000000000E+00  0.00000E+00  9.000E+00
      21    -1     0     0   501   502  0.000000000E+00  0.000000000E+00 -1.715520098E+03  1.715520098E+03  0.000000000E+00  0.00000E+00  9.000E+00
      25     1     1     2     0     0  8.989449236E+01 -6.097310712E+01 -6.907872652E+02  7.103596169E+02  1.250000000E+02  0.00000E+00  9.000E+00
      25     1     1     2     0     0 -1.020615300E+02  1.642157852E+01 -8.396229161E+02  8.551478617E+02  1.250000000E+02  0.00000E+00  9.000E+00
      21     1     1     2   501   512  1.216703759E+01  4.455152859E+01 -1.643790358E+02  1.707435004E+02  2.697398305E-06  0.00000E+00  9.000E+00
#rwgt            1           1  -5.4198652193488489E-002           6      372520           0
</event>
<event>
      5   9999  3.79277E-02  3.03684E+01 -1.00000E+00  1.52673E-01
      21    -1     0     0   502   501  0.000000000E+00  0.000000000E+00  5.635035590E+01  5.635035590E+01  0.000000000E+00  0.00000E+00  9.000E+00
       2    -1     0     0   501     0  0.000000000E+00  0.000000000E+00 -1.586103713E+03  1.586103713E+03  0.000000000E+00  0.00000E+00  9.000E+00
      25     1     1     2     0     0 -5.957507904E+01 -4.710864866E+00 -6.088183009E+01  1.513373038E+02  1.250000000E+02  0.00000E+00  9.000E+00
      25     1     1     2     0     0  8.942982635E+01 -8.509187705E-01 -5.321126994E+02  5.538658166E+02  1.250000000E+02  0.00000E+00  9.000E+00
       2     1     1     2   502     0 -2.985474731E+01  5.561783637E+00 -9.367588279E+02  9.372509488E+02  1.078959322E-05  0.00000E+00  9.000E+00
#rwgt            1           1   4.8279462455772443E-002           6      372650           0
</event>
<event>
      5   9999  3.79277E-02  4.95179E+01 -1.00000E+00  1.39316E-01
      21    -1     0     0   502   501  0.000000000E+00  0.000000000E+00  1.354829085E+03  1.354829085E+03  0.000000000E+00  0.00000E+00  9.000E+00
      21    -1     0     0   511   502  0.000000000E+00  0.000000000E+00 -5.583708375E+01  5.583708375E+01  0.000000000E+00  0.00000E+00  9.000E+00
      25     1     1     2     0     0 -2.334169229E+01 -1.671783890E+02  2.978359135E+02  3.644512035E+02  1.250000000E+02  0.00000E+00  9.000E+00
      25     1     1     2     0     0 -2.471465307E+00  2.094359652E+02  9.138725017E+02  9.458633522E+02  1.250000000E+02  0.00000E+00  9.000E+00
      21     1     1     2   511   501  2.581315760E+01 -4.225757621E+01  8.728358590E+01  1.003516129E+02  2.132480600E-06  0.00000E+00  9.000E+00
#rwgt            1           1   3.5151089117170728E-002           6      372760           0
</event>
<event>
      5   9999  3.79277E-02  1.83083E+01 -1.00000E+00  1.69599E-01
      21    -1     0     0   502   501  0.000000000E+00  0.000000000E+00  3.701871767E+01  3.701871767E+01  0.000000000E+00  0.00000E+00  9.000E+00
      21    -1     0     0   501   512  0.000000000E+00  0.000000000E+00 -1.344696242E+03  1.344696242E+03  0.000000000E+00  0.00000E+00  9.000E+00
      25     1     1     2     0     0  5.750652157E+01  4.140105881E-01 -1.333442208E+02  1.916059828E+02  1.250000000E+02  0.00000E+00  9.000E+00
      25     1     1     2     0     0 -5.378775132E+01  1.751268292E+01 -6.001431142E+02  6.156269762E+02  1.250000000E+02  0.00000E+00  9.000E+00
      21     1     1     2   502   512 -3.718770246E+00 -1.792669351E+01 -5.741901894E+02  5.744820008E+02  7.629394531E-06  0.00000E+00  9.000E+00
#rwgt            1           1   4.2890237334095777E-002           6      372865           0
</event>
<event>
      5   9999  3.79277E-02  9.42252E+01 -1.00000E+00  1.25001E-01
      21    -1     0     0   511   501  0.000000000E+00  0.000000000E+00  8.570889750E+02  8.570889750E+02  0.000000000E+00  0.00000E+00  9.000E+00
      21    -1     0     0   501   502  0.000000000E+00  0.000000000E+00 -1.731416241E+02  1.731416241E+02  0.000000000E+00  0.00000E+00  9.000E+00
      25     1     1     2     0     0  1.290450205E+02  1.280859664E+01  5.522192928E+01  1.883909205E+02  1.250000000E+02  0.00000E+00  9.000E+00
      25     1     1     2     0     0 -1.642405825E+02  7.459653913E+01  1.397373237E+01  2.199087943E+02  1.250000000E+02  0.00000E+00  9.000E+00
      21     1     1     2   511   502  3.519556204E+01 -8.740513577E+01  6.147516893E+02  6.219308843E+02  1.078959322E-05  0.00000E+00  9.000E+00
#rwgt            1           1   3.4627818842881616E-002           6      373037           0
</event>
<event>
      5   9999  3.79277E-02  3.72511E+01 -1.00000E+00  1.46784E-01
      21    -1     0     0   502   512  0.000000000E+00  0.000000000E+00  6.917411826E+02  6.917411826E+02  0.000000000E+00  0.00000E+00  9.000E+00
      21    -1     0     0   501   502  0.000000000E+00  0.000000000E+00 -1.007344592E+02  1.007344592E+02  0.000000000E+00  0.00000E+00  9.000E+00
      25     1     1     2     0     0 -4.999956589E+01  3.554736317E+01  2.063135721E+02  2.489053267E+02  1.250000000E+02  0.00000E+00  9.000E+00
      25     1     1     2     0     0  6.192826565E+01 -2.578150525E-01 -1.666100668E+01  1.404911588E+02  1.250000000E+02  0.00000E+00  9.000E+00
      21     1     1     2   501   512 -1.192869976E+01 -3.528954812E+01  4.013541580E+02  4.030791562E+02  5.394796609E-06  0.00000E+00  9.000E+00
#rwgt            1           1   4.8064862606860423E-002           6      373128           0
</event>
<event>
      5   9999  3.79277E-02  7.10195E+01 -1.00000E+00  1.30903E-01
      -5    -1     0     0     0   501  0.000000000E+00  0.000000000E+00  4.532658807E+02  4.532658807E+02  0.000000000E+00  0.00000E+00  9.000E+00
      21    -1     0     0   501   502  0.000000000E+00  0.000000000E+00 -1.585489068E+02  1.585489068E+02  0.000000000E+00  0.00000E+00  9.000E+00
      25     1     1     2     0     0 -3.003915652E+00 -8.911965575E+01 -2.512872118E+00  1.535664386E+02  1.250000000E+02  0.00000E+00  9.000E+00
      25     1     1     2     0     0 -5.438844912E+01  1.309512699E+02  4.242294818E+01  1.937293086E+02  1.250000000E+02  0.00000E+00  9.000E+00
      -5     1     1     2     0   502  5.739236477E+01 -4.183161414E+01  2.548068978E+02  2.645190402E+02  0.000000000E+00  0.00000E+00  9.000E+00
#rwgt            1           1   1.5890870854467307E-002           6      373244           0
</event>
<event>
      5   9999  3.79277E-02  6.00777E+01 -1.00000E+00  1.34673E-01
      21    -1     0     0   502   511  0.000000000E+00  0.000000000E+00  7.255810617E+02  7.255810617E+02  0.000000000E+00  0.00000E+00  9.000E+00
      21    -1     0     0   501   502  0.000000000E+00  0.000000000E+00 -1.058142738E+02  1.058142738E+02  0.000000000E+00  0.00000E+00  9.000E+00
      25     1     1     2     0     0  1.693551173E+02 -1.448612918E+02  2.382582618E+02  3.493679277E+02  1.250000000E+02  0.00000E+00  9.000E+00
      25     1     1     2     0     0 -1.116366386E+02  1.281905920E+02  1.995784146E+02  2.904343480E+02  1.250000000E+02  0.00000E+00  9.000E+00
      21     1     1     2   501   511 -5.771847876E+01  1.667069987E+01  1.819301116E+02  1.915930597E+02  2.697398305E-06  0.00000E+00  9.000E+00
#rwgt            1           1   2.2056774263704729E-002           6      373327           0
</event>
<event>
      5   9999  3.79277E-02  3.83597E+01 -1.00000E+00  1.45977E-01
      21    -1     0     0   502   501  0.000000000E+00  0.000000000E+00  7.648557384E+01  7.648557384E+01  0.000000000E+00  0.00000E+00  9.000E+00
      21    -1     0     0   512   502  0.000000000E+00  0.000000000E+00 -6.712355944E+02  6.712355944E+02  0.000000000E+00  0.00000E+00  9.000E+00
      25     1     1     2     0     0  2.605609006E+01 -3.853930523E+01 -3.415984204E+02  3.667133468E+02  1.250000000E+02  0.00000E+00  9.000E+00
      25     1     1     2     0     0 -4.947629203E+01  6.891955615E+01 -2.929244139E+01  1.538858532E+02  1.250000000E+02  0.00000E+00  9.000E+00
      21     1     1     2   512   501  2.342020196E+01 -3.038025092E+01 -2.238591588E+02  2.271219683E+02  0.000000000E+00  0.00000E+00  9.000E+00
#rwgt            1           1   4.6881440637673154E-002           6      373477           0
</event>
<event>
      5   9999  3.79277E-02  4.39882E+01 -1.00000E+00  1.42326E-01
      21    -1     0     0   502   501  0.000000000E+00  0.000000000E+00  8.970379568E+01  8.970379568E+01  0.000000000E+00  0.00000E+00  9.000E+00
      21    -1     0     0   511   502  0.000000000E+00  0.000000000E+00 -1.019356662E+03  1.019356662E+03  0.000000000E+00  0.00000E+00  9.000E+00
      25     1     1     2     0     0  1.637623884E+01  1.953041434E+02 -3.471728648E+02  4.178108276E+02  1.250000000E+02  0.00000E+00  9.000E+00
      25     1     1     2     0     0 -3.953044147E+01 -2.327052404E+02 -2.852310639E+02  3.907635404E+02  1.250000000E+02  0.00000E+00  9.000E+00
      21     1     1     2   511   501  2.315420264E+01  3.740109701E+01 -2.972489372E+02  3.004860892E+02  3.814697266E-06  0.00000E+00  9.000E+00
#rwgt            1           1   3.5481919763462252E-002           6      373593           0
</event>
<event>
      5   9999  3.79277E-02  5.57315E+01 -1.00000E+00  1.36439E-01
      21    -1     0     0   502   501  0.000000000E+00  0.000000000E+00  2.885292185E+02  2.885292185E+02  0.000000000E+00  0.00000E+00  9.000E+00
      21    -1     0     0   501   512  0.000000000E+00  0.000000000E+00 -3.444820787E+02  3.444820787E+02  0.000000000E+00  0.00000E+00  9.000E+00
      25     1     1     2     0     0 -6.221931533E+01 -6.656535714E+01  7.890208567E+01  1.736454120E+02  1.250000000E+02  0.00000E+00  9.000E+00
      25     1     1     2     0     0  8.404687982E+01  1.528613536E+01  1.233039295E+02  1.952598345E+02  1.250000000E+02  0.00000E+00  9.000E+00
      21     1     1     2   502   512 -2.182756449E+01  5.127922178E+01 -2.581588753E+02  2.641060508E+02  3.814697266E-06  0.00000E+00  9.000E+00
#rwgt            1           1  0.10734615339578132                6      373803           0
</event>
<event>
      5   9999  3.79277E-02  7.88351E+01 -1.00000E+00  1.28659E-01
      21    -1     0     0   502   511  0.000000000E+00  0.000000000E+00  1.564578040E+02  1.564578040E+02  0.000000000E+00  0.00000E+00  9.000E+00
      21    -1     0     0   501   502  0.000000000E+00  0.000000000E+00 -5.805855775E+02  5.805855775E+02  0.000000000E+00  0.00000E+00  9.000E+00
      25     1     1     2     0     0 -9.435120257E+01  1.555469168E+02 -3.592935004E+02  4.216797507E+02  1.250000000E+02  0.00000E+00  9.000E+00
      25     1     1     2     0     0  1.319456069E+02 -8.625309059E+01 -1.049473367E+02  2.269100753E+02  1.250000000E+02  0.00000E+00  9.000E+00
      21     1     1     2   501   511 -3.759440434E+01 -6.929382621E+01  4.011306365E+01  8.845355540E+01  1.066240300E-06  0.00000E+00  9.000E+00
#rwgt            1           1   3.6085156581297781E-002           6      373935           0
</event>
<event>
      5   9999  3.79277E-02  8.75504E+01 -1.00000E+00  1.26482E-01
      21    -1     0     0   512   501  0.000000000E+00  0.000000000E+00  7.929761540E+01  7.929761540E+01  0.000000000E+00  0.00000E+00  9.000E+00
      21    -1     0     0   501   502  0.000000000E+00  0.000000000E+00 -3.611784556E+03  3.611784556E+03  0.000000000E+00  0.00000E+00  9.000E+00
      25     1     1     2     0     0 -1.043339493E+00 -8.255242404E+01 -3.226051241E+03  3.229527458E+03  1.250000000E+02  0.00000E+00  9.000E+00
      25     1     1     2     0     0 -8.585514029E+01  9.321701633E+01 -3.263763975E+02  3.717621149E+02  1.250000000E+02  0.00000E+00  9.000E+00
      21     1     1     2   512   502  8.689847979E+01 -1.066459229E+01  1.994069800E+01  8.979259855E+01  2.431401974E-06  0.00000E+00  9.000E+00
#rwgt            1           1   2.2701131239388290E-002           6      374011           0
</event>
<event>
      5   9999 -3.79277E-02  5.08242E+01 -1.00000E+00  1.38672E-01
      21    -1     0     0   511   501  0.000000000E+00  0.000000000E+00  4.857372705E+01  4.857372705E+01  0.000000000E+00  0.00000E+00  9.000E+00
      21    -1     0     0   501   502  0.000000000E+00  0.000000000E+00 -1.106322952E+03  1.106322952E+03  0.000000000E+00  0.00000E+00  9.000E+00
      25     1     1     2     0     0  8.931360403E+01  1.526126391E+02 -6.410240247E+02  6.766123984E+02  1.250000000E+02  0.00000E+00  9.000E+00
      25     1     1     2     0     0 -5.978321189E+01 -1.112477347E+02 -3.639695403E+02  4.050295263E+02  1.250000000E+02  0.00000E+00  9.000E+00
      21     1     1     2   511   502 -2.953039214E+01 -4.136490441E+01 -5.275566006E+01  7.325475442E+01  1.348699152E-06  0.00000E+00  9.000E+00
#rwgt            1           1 -0.44871425910114121                6      374250           0
</event>
<event>
      5   9999 -3.79277E-02  3.33427E+01 -1.00000E+00  1.49920E-01
       2    -1     0     0   502     0  0.000000000E+00  0.000000000E+00  1.567416496E+03  1.567416496E+03  0.000000000E+00  0.00000E+00  9.000E+00
      21    -1     0     0   501   502  0.000000000E+00  0.000000000E+00 -1.017619656E+03  1.017619656E+03  0.000000000E+00  0.00000E+00  9.000E+00
      25     1     1     2     0     0 -1.679904410E+02  4.018567409E+02 -1.491214304E+02  4.770448925E+02  1.250000000E+02  0.00000E+00  9.000E+00
      25     1     1     2     0     0  1.354253425E+02 -3.946980515E+02 -6.369765307E+02  7.716804235E+02  1.250000000E+02  0.00000E+00  9.000E+00
       2     1     1     2   501     0  3.256509843E+01 -7.158689372E+00  1.335894801E+03  1.336310836E+03  0.000000000E+00  0.00000E+00  9.000E+00
#rwgt            1           1 -0.27964980109099608                6      374353           0
</event>
<event>
      5   9999  3.79277E-02  7.30241E+01 -1.00000E+00  1.30297E-01
      21    -1     0     0   502   501  0.000000000E+00  0.000000000E+00  6.002683873E+02  6.002683873E+02  0.000000000E+00  0.00000E+00  9.000E+00
      21    -1     0     0   501   511  0.000000000E+00  0.000000000E+00 -2.603427735E+02  2.603427735E+02  0.000000000E+00  0.00000E+00  9.000E+00
      25     1     1     2     0     0  9.968752319E+01  9.944396456E+01 -1.312016150E+02  2.294897997E+02  1.250000000E+02  0.00000E+00  9.000E+00
      25     1     1     2     0     0 -5.458141077E+01 -4.201606633E+01  5.226268141E+02  5.417640327E+02  1.250000000E+02  0.00000E+00  9.000E+00
      21     1     1     2   502   511 -4.510611242E+01 -5.742789823E+01 -5.149958525E+01  8.935732848E+01  1.784161275E-06  0.00000E+00  9.000E+00
#rwgt            1           1   4.0060591277107704E-002           6      374531           0
</event>
<event>
      5   9999  3.79277E-02  2.42519E+01 -1.00000E+00  1.59746E-01
      -2    -1     0     0     0   501  0.000000000E+00  0.000000000E+00  9.573191002E+01  9.573191002E+01  0.000000000E+00  0.00000E+00  9.000E+00
      21    -1     0     0   501   502  0.000000000E+00  0.000000000E+00 -7.338551552E+02  7.338551552E+02  0.000000000E+00  0.00000E+00  9.000E+00
      25     1     1     2     0     0 -3.587599647E+01  1.902119103E+02 -2.688852655E+02  3.541072492E+02  1.250000000E+02  0.00000E+00  9.000E+00
      25     1     1     2     0     0  5.989235502E+01 -1.868399637E+02 -3.826102642E+02  4.477855296E+02  1.250000000E+02  0.00000E+00  9.000E+00
      -2     1     1     2     0   502 -2.401635855E+01 -3.371946605E+00  1.337228458E+01  2.769428636E+01  3.769728732E-07  0.00000E+00  9.000E+00
#rwgt            1           1   3.7675599313169418E-002           6      374648           0
</event>
<event>
      5   9999  3.79277E-02  7.45282E+01 -1.00000E+00  1.29857E-01
      21    -1     0     0   502   501  0.000000000E+00  0.000000000E+00  4.905261527E+01  4.905261527E+01  0.000000000E+00  0.00000E+00  9.000E+00
       1    -1     0     0   501     0  0.000000000E+00  0.000000000E+00 -1.098405118E+03  1.098405118E+03  0.000000000E+00  0.00000E+00  9.000E+00
      25     1     1     2     0     0 -9.240678963E+01  6.843842890E+01 -5.819151067E+02  6.061955334E+02  1.250000000E+02  0.00000E+00  9.000E+00
      25     1     1     2     0     0  5.558739235E+01 -1.332364436E+02 -2.741442077E+02  3.340987200E+02  1.250000000E+02  0.00000E+00  9.000E+00
       1     1     1     2   502     0  3.681939728E+01  6.479801473E+01 -1.932931885E+02  2.071634801E+02  2.697398305E-06  0.00000E+00  9.000E+00
#rwgt            1           1   1.9356881457619820E-002           6      374759           0
</event>
<event>
      5   9999  3.79277E-02  5.70679E+01 -1.00000E+00  1.35877E-01
      21    -1     0     0   502   511  0.000000000E+00  0.000000000E+00  3.642572184E+02  3.642572184E+02  0.000000000E+00  0.00000E+00  9.000E+00
      21    -1     0     0   501   502  0.000000000E+00  0.000000000E+00 -2.110419709E+02  2.110419709E+02  0.000000000E+00  0.00000E+00  9.000E+00
      25     1     1     2     0     0 -5.188660999E+01 -1.388494311E+02  1.589258128E+02  2.507065990E+02  1.250000000E+02  0.00000E+00  9.000E+00
      25     1     1     2     0     0  9.195701205E+01  1.794832883E+02 -6.116037521E+01  2.450223139E+02  1.250000000E+02  0.00000E+00  9.000E+00
      21     1     1     2   501   511 -4.007040206E+01 -4.063385718E+01  5.544980983E+01  7.957027637E+01  6.743495762E-07  0.00000E+00  9.000E+00
#rwgt            1           1   3.3968063476419029E-002           6      374873           0
</event>
<event>
      5   9999  3.79277E-02  2.56423E+01 -1.00000E+00  1.57930E-01
      21    -1     0     0   502   512  0.000000000E+00  0.000000000E+00  2.571505412E+02  2.571505412E+02  0.000000000E+00  0.00000E+00  9.000E+00
      21    -1     0     0   501   502  0.000000000E+00  0.000000000E+00 -4.823642018E+02  4.823642018E+02  0.000000000E+00  0.00000E+00  9.000E+00
      25     1     1     2     0     0  8.443796440E+01  1.587343748E+02 -1.392660142E+02  2.595118385E+02  1.250000000E+02  0.00000E+00  9.000E+00
      25     1     1     2     0     0 -1.012801012E+02 -1.393987152E+02 -2.417442822E+02  3.221101655E+02  1.250000000E+02  0.00000E+00  9.000E+00
      21     1     1     2   501   512  1.684213680E+01 -1.933565962E+01  1.557966358E+02  1.578927391E+02  0.000000000E+00  0.00000E+00  9.000E+00
#rwgt            1           1   4.0951216645430166E-002           6      374989           0
</event>
<event>
      5   9999  3.79277E-02  7.62487E+01 -1.00000E+00  1.29367E-01
      21    -1     0     0   502   511  0.000000000E+00  0.000000000E+00  7.637237731E+01  7.637237731E+01  0.000000000E+00  0.00000E+00  9.000E+00
      21    -1     0     0   501   502  0.000000000E+00  0.000000000E+00 -9.382610519E+02  9.382610519E+02  0.000000000E+00  0.00000E+00  9.000E+00
      25     1     1     2     0     0  1.739312914E+02 -6.060778158E+01 -3.747300038E+02  4.358588912E+02  1.250000000E+02  0.00000E+00  9.000E+00
      25     1     1     2     0     0 -9.782889127E+01  6.532858650E+01 -4.703543887E+02  5.006960826E+02  1.250000000E+02  0.00000E+00  9.000E+00
      21     1     1     2   501   511 -7.610240010E+01 -4.720804922E+00 -1.680428213E+01  7.807845541E+01  6.307962682E-07  0.00000E+00  9.000E+00
#rwgt            1           1   3.9543684555871504E-002           6      375213           0
</event>
<event>
      5   9999  3.79277E-02  3.69725E+01 -1.00000E+00  1.46992E-01
      21    -1     0     0   502   501  0.000000000E+00  0.000000000E+00  2.212053241E+02  2.212053241E+02  0.000000000E+00  0.00000E+00  9.000E+00
      21    -1     0     0   512   502  0.000000000E+00  0.000000000E+00 -3.297912206E+02  3.297912206E+02  0.000000000E+00  0.00000E+00  9.000E+00
      25     1     1     2     0     0  5.906931996E+01 -3.177603167E+01  1.616565426E+02  2.150737978E+02  1.250000000E+02  0.00000E+00  9.000E+00
      25     1     1     2     0     0 -2.528950651E+01  1.674627388E+01 -1.034062960E+02  1.650389617E+02  1.250000000E+02  0.00000E+00  9.000E+00
      21     1     1     2   512   501 -3.377981345E+01  1.502975779E+01 -1.668361430E+02  1.708837852E+02  2.697398305E-06  0.00000E+00  9.000E+00
#rwgt            1           1   5.5102522031617696E-002           6      375403           0
</event>
<event>
      5   9999  3.79277E-02  3.06545E+02 -1.00000E+00  1.05288E-01
       2    -1     0     0   502     0  0.000000000E+00  0.000000000E+00  1.192597987E+03  1.192597987E+03  0.000000000E+00  0.00000E+00  9.000E+00
      21    -1     0     0   501   502  0.000000000E+00  0.000000000E+00 -1.945086416E+03  1.945086416E+03  0.000000000E+00  0.00000E+00  9.000E+00
      25     1     1     2     0     0 -1.093075147E+02 -1.167598701E+01 -9.664622579E+02  9.806929986E+02  1.250000000E+02  0.00000E+00  9.000E+00
      25     1     1     2     0     0  3.049587383E+02  2.476644392E+02 -9.062318685E+02  9.955996716E+02  1.250000000E+02  0.00000E+00  9.000E+00
       2     1     1     2   501     0 -1.956512236E+02 -2.359884522E+02  1.120205698E+03  1.161391732E+03  1.525878906E-05  0.00000E+00  9.000E+00
#rwgt            1           1   4.4333231057449893E-002           6      375484           0
</event>
<event>
      5   9999  3.79277E-02  6.65764E+01 -1.00000E+00  1.32333E-01
      21    -1     0     0   502   501  0.000000000E+00  0.000000000E+00  1.463886824E+02  1.463886824E+02  0.000000000E+00  0.00000E+00  9.000E+00
      21    -1     0     0   501   511  0.000000000E+00  0.000000000E+00 -2.648146389E+02  2.648146389E+02  0.000000000E+00  0.00000E+00  9.000E+00
      25     1     1     2     0     0 -4.625338739E+01 -3.908705333E+01 -2.859100669E+01  1.418083892E+02  1.250000000E+02  0.00000E+00  9.000E+00
      25     1     1     2     0     0  1.069914319E+02  6.635060813E+01 -3.009522713E+01  1.799452483E+02  1.250000000E+02  0.00000E+00  9.000E+00
      21     1     1     2   502   511 -6.073804451E+01 -2.726355480E+01 -5.973972262E+01  8.944968379E+01  1.168007728E-06  0.00000E+00  9.000E+00
#rwgt            1           1   3.1949068422655900E-002           6      375656           0
</event>
<event>
      5   9999  3.79277E-02  2.33432E+02 -1.00000E+00  1.09258E-01
      -3    -1     0     0     0   501  0.000000000E+00  0.000000000E+00  2.286791005E+02  2.286791005E+02  0.000000000E+00  0.00000E+00  9.000E+00
      21    -1     0     0   501   502  0.000000000E+00  0.000000000E+00 -5.945415194E+02  5.945415194E+02  0.000000000E+00  0.00000E+00  9.000E+00
      25     1     1     2     0     0 -7.151571282E+01  5.910926683E+01 -1.647419218E+02  2.266567965E+02  1.250000000E+02  0.00000E+00  9.000E+00
      25     1     1     2     0     0  3.771084504E+01  1.718619180E+02 -2.769543182E+02  3.511229429E+02  1.250000000E+02  0.00000E+00  9.000E+00
      -3     1     1     2     0   502  3.380486778E+01 -2.309711849E+02  7.583382112E+01  2.454408803E+02  2.523185073E-06  0.00000E+00  9.000E+00
#rwgt            1           1   5.8152157802179881E-002           6      375744           0
</event>
<event>
      5   9999  3.79277E-02  6.37128E+01 -1.00000E+00  1.33325E-01
      21    -1     0     0   502   501  0.000000000E+00  0.000000000E+00  1.813269255E+02  1.813269255E+02  0.000000000E+00  0.00000E+00  9.000E+00
      21    -1     0     0   511   502  0.000000000E+00  0.000000000E+00 -3.351767943E+02  3.351767943E+02  0.000000000E+00  0.00000E+00  9.000E+00
      25     1     1     2     0     0  4.062245667E+01 -1.223391464E+02 -4.984869295E+01  1.863516646E+02  1.250000000E+02  0.00000E+00  9.000E+00
      25     1     1     2     0     0 -4.883343171E+01  1.855205970E+02 -2.753378365E+01  2.306202619E+02  1.250000000E+02  0.00000E+00  9.000E+00
      21     1     1     2   511   501  8.210975033E+00 -6.318145062E+01 -7.646739214E+01  9.953179328E+01  9.536743164E-07  0.00000E+00  9.000E+00
#rwgt            2          11   1.8675414170394860E-003           6      376150           0
</event>
<event>
      5   9999  3.79277E-02  1.03145E+02 -1.00000E+00  1.23226E-01
      21    -1     0     0   502   501  0.000000000E+00  0.000000000E+00  2.426639627E+02  2.426639627E+02  0.000000000E+00  0.00000E+00  9.000E+00
      21    -1     0     0   501   512  0.000000000E+00  0.000000000E+00 -5.469764006E+02  5.469764006E+02  0.000000000E+00  0.00000E+00  9.000E+00
      25     1     1     2     0     0 -1.243853491E+02  1.362976732E+02  1.414009522E+02  2.639469645E+02  1.250000000E+02  0.00000E+00  9.000E+00
      25     1     1     2     0     0  1.175054802E+02 -3.338253566E+01 -2.993511707E+02  3.466382191E+02  1.250000000E+02  0.00000E+00  9.000E+00
      21     1     1     2   502   512  6.879868856E+00 -1.029151375E+02 -1.463622194E+02  1.790551797E+02  1.907348633E-06  0.00000E+00  9.000E+00
#rwgt            1           1   3.2457093114544311E-002           6      376170           0
</event>
<event>
      5   9999  3.79277E-02  3.66392E+01 -1.00000E+00  1.47244E-01
      21    -1     0     0   502   501  0.000000000E+00  0.000000000E+00  5.329403014E+01  5.329403014E+01  0.000000000E+00  0.00000E+00  9.000E+00
      21    -1     0     0   511   502  0.000000000E+00  0.000000000E+00 -1.074525067E+03  1.074525067E+03  0.000000000E+00  0.00000E+00  9.000E+00
      25     1     1     2     0     0 -9.791188470E+01  1.331619269E+02 -4.395533397E+02  4.859536752E+02  1.250000000E+02  0.00000E+00  9.000E+00
      25     1     1     2     0     0  7.013440198E+01 -1.092696291E+02 -2.501317479E+02  3.083011149E+02  1.250000000E+02  0.00000E+00  9.000E+00
      21     1     1     2   511   501  2.777748272E+01 -2.389229788E+01 -3.315459494E+02  3.335643072E+02  3.814697266E-06  0.00000E+00  9.000E+00
#rwgt            1           1  0.20634440431087839                6      376277           0
</event>
<event>
      5   9999  3.79277E-02  1.76589E+02 -1.00000E+00  1.13652E-01
      21    -1     0     0   502   501  0.000000000E+00  0.000000000E+00  7.409927130E+01  7.409927130E+01  0.000000000E+00  0.00000E+00  9.000E+00
      21    -1     0     0   512   502  0.000000000E+00  0.000000000E+00 -1.903428754E+03  1.903428754E+03  0.000000000E+00  0.00000E+00  9.000E+00
      25     1     1     2     0     0 -1.529749861E+02 -4.470132517E+01 -1.211689824E+03  1.228501846E+03  1.250000000E+02  0.00000E+00  9.000E+00
      25     1     1     2     0     0 -2.336835610E+01  3.539912986E+01 -2.991819863E+01  1.353487239E+02  1.250000000E+02  0.00000E+00  9.000E+00
      21     1     1     2   512   501  1.763433422E+02  9.302195313E+00 -5.877214598E+02  6.136774556E+02  0.000000000E+00  0.00000E+00  9.000E+00
#rwgt            2          11   1.5164315621556503E-003           6      376525           0
</event>
<event>
      5   9999  3.79277E-02  1.03565E+02 -1.00000E+00  1.23148E-01
      21    -1     0     0   511   501  0.000000000E+00  0.000000000E+00  4.324514257E+02  4.324514257E+02  0.000000000E+00  0.00000E+00  9.000E+00
      21    -1     0     0   501   502  0.000000000E+00  0.000000000E+00 -3.893869369E+02  3.893869369E+02  0.000000000E+00  0.00000E+00  9.000E+00
      25     1     1     2     0     0  1.028636472E+02  7.297413924E+01 -1.523082857E+02  2.339422339E+02  1.250000000E+02  0.00000E+00  9.000E+00
      25     1     1     2     0     0 -1.756541996E+02  6.952480497E-01 -1.263683191E+02  2.498976456E+02  1.250000000E+02  0.00000E+00  9.000E+00
      21     1     1     2   511   502  7.279055237E+01 -7.366938729E+01  3.217410937E+02  3.379984830E+02  3.814697266E-06  0.00000E+00  9.000E+00
#rwgt            1           1   3.9289472574960939E-002           6      376545           0
</event>
<event>
      5   9999  3.79277E-02  8.45102E+01 -1.00000E+00  1.27207E-01
      21    -1     0     0   502   512  0.000000000E+00  0.000000000E+00  1.901468459E+02  1.901468459E+02  0.000000000E+00  0.00000E+00  9.000E+00
      21    -1     0     0   501   502  0.000000000E+00  0.000000000E+00 -6.841911560E+02  6.841911560E+02  0.000000000E+00  0.00000E+00  9.000E+00
      25     1     1     2     0     0  1.325440398E+02 -1.040463993E+02 -2.458534605E+02  3.232065899E+02  1.250000000E+02  0.00000E+00  9.000E+00
      25     1     1     2     0     0 -5.775356575E+01  1.433955188E+02 -3.598395914E+02  4.111049510E+02  1.250000000E+02  0.00000E+00  9.000E+00
      21     1     1     2   501   512 -7.479047404E+01 -3.934911951E+01  1.116487419E+02  1.400264610E+02  2.697398305E-06  0.00000E+00  9.000E+00
#rwgt            1           1   4.2308160616347991E-002           6      376614           0
</event>
<event>
      5   9999  3.79277E-02  7.80873E+01 -1.00000E+00  1.28860E-01
      21    -1     0     0   502   501  0.000000000E+00  0.000000000E+00  1.305957660E+02  1.305957660E+02  0.000000000E+00  0.00000E+00  9.000E+00
       1    -1     0     0   501     0  0.000000000E+00  0.000000000E+00 -8.951596840E+02  8.951596840E+02  0.000000000E+00  0.00000E+00  9.000E+00
      25     1     1     2     0     0  1.080003932E+02  1.039458482E+02 -5.763683000E+02  6.085180700E+02  1.250000000E+02  0.00000E+00  9.000E+00
      25     1     1     2     0     0 -1.318153067E+02 -2.957867672E+01  2.909871135E+01  1.863381555E+02  1.250000000E+02  0.00000E+00  9.000E+00
       1     1     1     2   502     0  2.381491348E+01 -7.436717151E+01 -2.172943293E+02  2.308992245E+02  3.814697266E-06  0.00000E+00  9.000E+00
#rwgt            2          12   1.0599843491905331E-004           6      376839           0
</event>
<event>
      5   9999  3.79277E-02  4.72796E+01 -1.00000E+00  1.40476E-01
      21    -1     0     0   502   511  0.000000000E+00  0.000000000E+00  1.658819145E+02  1.658819145E+02  0.000000000E+00  0.00000E+00  9.000E+00
      21    -1     0     0   501   502  0.000000000E+00  0.000000000E+00 -4.322402941E+02  4.322402941E+02  0.000000000E+00  0.00000E+00  9.000E+00
      25     1     1     2     0     0  1.155067690E+02  9.588978356E+01 -1.624414117E+02  2.540647093E+02  1.250000000E+02  0.00000E+00  9.000E+00
      25     1     1     2     0     0 -6.922673394E+01 -1.055600846E+02 -1.810086296E+02  2.536225466E+02  1.250000000E+02  0.00000E+00  9.000E+00
      21     1     1     2   501   511 -4.628003511E+01  9.670300991E+00  7.709166167E+01  9.043495270E+01  0.000000000E+00  0.00000E+00  9.000E+00
#rwgt            1           1   2.8947472702961059E-002           6      376873           0
</event>
<event>
      5   9999  3.79277E-02  7.79487E+01 -1.00000E+00  1.28898E-01
      21    -1     0     0   502   501  0.000000000E+00  0.000000000E+00  5.695817724E+01  5.695817724E+01  0.000000000E+00  0.00000E+00  9.000E+00
       1    -1     0     0   501     0  0.000000000E+00  0.000000000E+00 -1.976205253E+03  1.976205253E+03  0.000000000E+00  0.00000E+00  9.000E+00
      25     1     1     2     0     0 -3.176068170E+01  2.177937137E+02 -5.378720833E+02  5.944528750E+02  1.250000000E+02  0.00000E+00  9.000E+00
      25     1     1     2     0     0  5.436097085E-01 -1.463690152E+02 -3.126734441E+02  3.671700788E+02  1.250000000E+02  0.00000E+00  9.000E+00
       1     1     1     2   502     0  3.121707199E+01 -7.142469856E+01 -1.068701549E+03  1.071540477E+03  1.525878906E-05  0.00000E+00  9.000E+00
#rwgt            1           1   1.9704256217169331E-002           6      376956           0
</event>
<event>
      5   9999  3.79277E-02  1.03515E+02 -1.00000E+00  1.23157E-01
      21    -1     0     0   502   511  0.000000000E+00  0.000000000E+00  2.710058256E+02  2.710058256E+02  0.000000000E+00  0.00000E+00  9.000E+00
      21    -1     0     0   501   502  0.000000000E+00  0.000000000E+00 -3.684371907E+02  3.684371907E+02  0.000000000E+00  0.00000E+00  9.000E+00
      25     1     1     2     0     0 -6.066232682E+01  1.499891485E+02 -1.629293822E+02  2.614338275E+02  1.250000000E+02  0.00000E+00  9.000E+00
      25     1     1     2     0     0  1.637489821E+02 -1.405789188E+02 -1.045097517E+01  2.496204807E+02  1.250000000E+02  0.00000E+00  9.000E+00
      21     1     1     2   501   511 -1.030866552E+02 -9.410229754E+00  7.594899231E+01  1.283887080E+02  1.651812370E-06  0.00000E+00  9.000E+00
#rwgt            1           1   3.8524875393113736E-002           6      377150           0
</event>
<event>
      5   9999  3.79277E-02  9.37699E+00 -1.00000E+00  1.99043E-01
      21    -1     0     0   502   501  0.000000000E+00  0.000000000E+00  6.866505141E+01  6.866505141E+01  0.000000000E+00  0.00000E+00  9.000E+00
      21    -1     0     0   512   502  0.000000000E+00  0.000000000E+00 -9.214085112E+02  9.214085112E+02  0.000000000E+00  0.00000E+00  9.000E+00
      25     1     1     2     0     0  5.374623833E+01  3.534239778E+01 -2.837762534E+01  1.434155948E+02  1.250000000E+02  0.00000E+00  9.000E+00
      25     1     1     2     0     0 -6.310380606E+01 -3.473911116E+01 -4.582861712E+02  4.804582301E+02  1.250000000E+02  0.00000E+00  9.000E+00
      21     1     1     2   512   501  9.357567728E+00 -6.032866256E-01 -3.660796632E+02  3.661997376E+02  5.394796609E-06  0.00000E+00  9.000E+00
#rwgt            1           1   4.1774340637589509E-002           6      377209           0
</event>
<event>
      5   9999  3.79277E-02  5.93357E+01 -1.00000E+00  1.34962E-01
      21    -1     0     0   511   501  0.000000000E+00  0.000000000E+00  1.084868445E+03  1.084868445E+03  0.000000000E+00  0.00000E+00  9.000E+00
      21    -1     0     0   501   502  0.000000000E+00  0.000000000E+00 -7.542102485E+02  7.542102485E+02  0.000000000E+00  0.00000E+00  9.000E+00
      25     1     1     2     0     0 -1.245629272E+02 -9.266649770E+01 -5.659790015E+02  6.000501919E+02  1.250000000E+02  0.00000E+00  9.000E+00
      25     1     1     2     0     0  1.444461773E+02  3.676138453E+01 -1.147840459E+02  2.258682685E+02  1.250000000E+02  0.00000E+00  9.000E+00
      21     1     1     2   511   502 -1.988325009E+01  5.590511316E+01  1.011421244E+03  1.013160233E+03  1.525878906E-05  0.00000E+00  9.000E+00
#rwgt            1           1   4.3364390074313745E-002           6      377570           0
</event>
<event>
      5   9999  3.79277E-02  3.64826E+01 -1.00000E+00  1.47364E-01
      21    -1     0     0   512   501  0.000000000E+00  0.000000000E+00  8.411649793E+01  8.411649793E+01  0.000000000E+00  0.00000E+00  9.000E+00
      21    -1     0     0   501   502  0.000000000E+00  0.000000000E+00 -4.688865663E+02  4.688865663E+02  0.000000000E+00  0.00000E+00  9.000E+00
      25     1     1     2     0     0 -9.823154767E+01 -5.270959859E+00 -8.918125258E+01  1.823609492E+02  1.250000000E+02  0.00000E+00  9.000E+00
      25     1     1     2     0     0  8.425165297E+01  3.896882385E+01 -2.956697148E+02  3.341593789E+02  1.250000000E+02  0.00000E+00  9.000E+00
      21     1     1     2   512   502  1.397989470E+01 -3.369786399E+01  8.089899018E-02  3.648273616E+01  7.288157026E-08  0.00000E+00  9.000E+00
#rwgt            1           1   4.2955438463735361E-002           6      377788           0
</event>
<event>
      5   9999  3.79277E-02  2.15345E+01 -1.00000E+00  1.63763E-01
      21    -1     0     0   502   511  0.000000000E+00  0.000000000E+00  2.148435997E+02  2.148435997E+02  0.000000000E+00  0.00000E+00  9.000E+00
      21    -1     0     0   501   502  0.000000000E+00  0.000000000E+00 -4.055304580E+02  4.055304580E+02  0.000000000E+00  0.00000E+00  9.000E+00
      25     1     1     2     0     0 -5.536777345E+01 -1.474223937E+02 -3.067587475E+02  3.667763374E+02  1.250000000E+02  0.00000E+00  9.000E+00
      25     1     1     2     0     0  7.400175614E+01  1.366284971E+02  8.738194836E+01  2.177250813E+02  1.250000000E+02  0.00000E+00  9.000E+00
      21     1     1     2   501   511 -1.863398269E+01  1.079389661E+01  2.868994086E+01  3.587263890E+01  9.536743164E-07  0.00000E+00  9.000E+00
#rwgt            1           1   3.6282419031958522E-002           6      377862           0
</event>
<event>
      5   9999  3.79277E-02  1.19165E+02 -1.00000E+00  1.20497E-01
      21    -1     0     0   502   512  0.000000000E+00  0.000000000E+00  2.925242028E+02  2.925242028E+02  0.000000000E+00  0.00000E+00  9.000E+00
      21    -1     0     0   501   502  0.000000000E+00  0.000000000E+00 -2.501327462E+02  2.501327462E+02  0.000000000E+00  0.00000E+00  9.000E+00
      25     1     1     2     0     0  7.994888879E+00 -1.887707778E+01 -1.494946423E+02  1.959436409E+02  1.250000000E+02  0.00000E+00  9.000E+00
      25     1     1     2     0     0  1.110055587E+02  2.513072675E+01  1.230742320E+02  2.091077571E+02  1.250000000E+02  0.00000E+00  9.000E+00
      21     1     1     2   501   512 -1.190004476E+02 -6.253648967E+00  6.881186701E+01  1.376055511E+02  9.536743164E-07  0.00000E+00  9.000E+00
#rwgt            1           1   2.5070100633386966E-002           6      378008           0
</event>
<event>
      5   9999  3.79277E-02  1.14283E+02 -1.00000E+00  1.21275E-01
      21    -1     0     0   511   501  0.000000000E+00  0.000000000E+00  3.162108746E+02  3.162108746E+02  0.000000000E+00  0.00000E+00  9.000E+00
      21    -1     0     0   501   502  0.000000000E+00  0.000000000E+00 -1.633810449E+02  1.633810449E+02  0.000000000E+00  0.00000E+00  9.000E+00
      25     1     1     2     0     0  2.633324498E+01  1.364706604E+02  1.410391604E+01  1.874609329E+02  1.250000000E+02  0.00000E+00  9.000E+00
      25     1     1     2     0     0  3.511656503E+01 -4.011491619E+01  4.151080850E+01  1.420933737E+02  1.250000000E+02  0.00000E+00  9.000E+00
      21     1     1     2   511   502 -6.144981001E+01 -9.635574417E+01  9.721510519E+01  1.500376128E+02  1.348699152E-06  0.00000E+00  9.000E+00
#rwgt            1           1   3.3847808381623039E-002           6      378130           0
</event>
<event>
      5   9999 -3.79277E-02  2.63892E+01 -1.00000E+00  1.57012E-01
      21    -1     0     0   502   501  0.000000000E+00  0.000000000E+00  1.608197635E+02  1.608197635E+02  0.000000000E+00  0.00000E+00  9.000E+00
      21    -1     0     0   512   502  0.000000000E+00  0.000000000E+00 -3.970566110E+02  3.970566110E+02  0.000000000E+00  0.00000E+00  9.000E+00
      25     1     1     2     0     0 -1.747847252E+02  2.794510275E+01 -1.528912850E+02  2.652006297E+02  1.250000000E+02  0.00000E+00  9.000E+00
      25     1     1     2     0     0  1.950808036E+02 -1.107911549E+01 -3.095437986E+01  2.340137611E+02  1.250000000E+02  0.00000E+00  9.000E+00
      21     1     1     2   512   501 -2.029607836E+01 -1.686598726E+01 -5.239118266E+01  5.866198380E+01  0.000000000E+00  0.00000E+00  9.000E+00
#rwgt            1           1  -6.6449555163849858E-002           6      378223           0
</event>
<event>
      5   9999  3.79277E-02  6.85210E+01 -1.00000E+00  1.31692E-01
      21    -1     0     0   502   501  0.000000000E+00  0.000000000E+00  8.825711356E+02  8.825711356E+02  0.000000000E+00  0.00000E+00  9.000E+00
      21    -1     0     0   501   511  0.000000000E+00  0.000000000E+00 -1.467061844E+02  1.467061844E+02  0.000000000E+00  0.00000E+00  9.000E+00
      25     1     1     2     0     0 -1.214720448E+01 -1.045193951E+01  6.861738414E+02  6.976505846E+02  1.250000000E+02  0.00000E+00  9.000E+00
      25     1     1     2     0     0 -3.432813476E+01  6.080241322E+01  1.517915305E+02  2.086648581E+02  1.250000000E+02  0.00000E+00  9.000E+00
      21     1     1     2   502   511  4.647533925E+01 -5.035047372E+01 -1.021004207E+02  1.229618773E+02  3.814697266E-06  0.00000E+00  9.000E+00
#rwgt            1           1   4.9865085705389299E-002           6      378329           0
</event>
<event>
      5   9999 -4.14727E-02  5.76340E+00 -1.00000E+00  2.28220E-01
      21    -1     0     0   512   501  0.000000000E+00  0.000000000E+00  9.288306185E+02  9.288306185E+02  0.000000000E+00  0.00000E+00  9.000E+00
      21    -1     0     0   501   502  0.000000000E+00  0.000000000E+00 -7.145483629E+01  7.145483629E+01  0.000000000E+00  0.00000E+00  9.000E+00
      25     1     1     2     0     0  4.442053398E+01 -1.632720456E+02  5.723371741E+02  6.097751927E+02  1.250000000E+02  0.00000E+00  9.000E+00
      25     1     1     2     0     0 -4.859173353E+01  1.672492141E+02  1.654919163E+02  2.708247229E+02  1.250000000E+02  0.00000E+00  9.000E+00
      21     1     1     2   512   502  4.171199551E+00 -3.977168456E+00  1.195466918E+02  1.196855392E+02  2.336015456E-06  0.00000E+00  9.000E+00
#rwgt            1           1 -0.41303072904721710                6      378439           0
</event>
<event>
      5   9999  3.79277E-02  1.10489E+01 -1.00000E+00  1.90879E-01
      21    -1     0     0   502   501  0.000000000E+00  0.000000000E+00  3.480818984E+02  3.480818984E+02  0.000000000E+00  0.00000E+00  9.000E+00
      21    -1     0     0   501   511  0.000000000E+00  0.000000000E+00 -2.109747177E+02  2.109747177E+02  0.000000000E+00  0.00000E+00  9.000E+00
      25     1     1     2     0     0  5.448565218E+01 -1.290938132E+01  3.067401870E+02  3.359313631E+02  1.250000000E+02  0.00000E+00  9.000E+00
      25     1     1     2     0     0 -4.386828173E+01  1.596712064E+01 -1.609834495E+02  2.090933908E+02  1.250000000E+02  0.00000E+00  9.000E+00
      21     1     1     2   502   511 -1.061737045E+01 -3.057739322E+00 -8.649556704E+00  1.403186218E+01  3.153981341E-07  0.00000E+00  9.000E+00
#rwgt            1           1   2.1909090014153927E-002           6      378867           0
</event>
<event>
      5   9999  3.79277E-02  1.79196E+01 -1.00000E+00  1.70403E-01
      21    -1     0     0   502   501  0.000000000E+00  0.000000000E+00  1.174628447E+03  1.174628447E+03  0.000000000E+00  0.00000E+00  9.000E+00
      21    -1     0     0   512   502  0.000000000E+00  0.000000000E+00 -4.467650333E+02  4.467650333E+02  0.000000000E+00  0.00000E+00  9.000E+00
      25     1     1     2     0     0 -8.853169731E+00  2.033591967E+02  2.197266717E+02  3.245583950E+02  1.250000000E+02  0.00000E+00  9.000E+00
      25     1     1     2     0     0  1.705207570E+01 -1.874252283E+02  8.881316303E+02  9.164179081E+02  1.250000000E+02  0.00000E+00  9.000E+00
      21     1     1     2   512   501 -8.198905965E+00 -1.593396837E+01 -3.799948884E+02  3.804171771E+02  0.000000000E+00  0.00000E+00  9.000E+00
#rwgt            1           1   4.5721704116931501E-002           6      379094           0
</event>
<event>
      5   9999  3.79277E-02  1.80099E+01 -1.00000E+00  1.70215E-01
      21    -1     0     0   502   511  0.000000000E+00  0.000000000E+00  2.776055387E+02  2.776055387E+02  0.000000000E+00  0.00000E+00  9.000E+00
      21    -1     0     0   501   502  0.000000000E+00  0.000000000E+00 -1.283400737E+02  1.283400737E+02  0.000000000E+00  0.00000E+00  9.000E+00
      25     1     1     2     0     0  1.125527963E+02 -4.514799221E+01  6.861800935E+01  1.871894878E+02  1.250000000E+02  0.00000E+00  9.000E+00
      25     1     1     2     0     0 -1.161186368E+02  6.280133602E+01  6.020735828E+01  1.915136330E+02  1.250000000E+02  0.00000E+00  9.000E+00
      21     1     1     2   501   511  3.565840522E+00 -1.765334380E+01  2.044009740E+01  2.724249159E+01  2.384185791E-07  0.00000E+00  9.000E+00
#rwgt            2          11   1.7605906062031417E-003           6      379343           0
</event>
<event>
      5   9999  3.79277E-02  2.08834E+01 -1.00000E+00  1.64835E-01
      21    -1     0     0   502   501  0.000000000E+00  0.000000000E+00  3.094193192E+02  3.094193192E+02  0.000000000E+00  0.00000E+00  9.000E+00
      21    -1     0     0   501   512  0.000000000E+00  0.000000000E+00 -1.494347437E+02  1.494347437E+02  0.000000000E+00  0.00000E+00  9.000E+00
      25     1     1     2     0     0  4.066901438E+01  1.481340917E+02  1.041251921E+02  2.237514994E+02  1.250000000E+02  0.00000E+00  9.000E+00
      25     1     1     2     0     0 -6.154832769E+01 -1.477186208E+02  6.366514486E+01  2.128079844E+02  1.250000000E+02  0.00000E+00  9.000E+00
      21     1     1     2   502   512  2.087931330E+01 -4.154709374E-01 -7.805761470E+00  2.229457899E+01  4.129530925E-07  0.00000E+00  9.000E+00
#rwgt            1           1   3.3257836849128836E-002           6      379378           0
</event>
<event>
      5   9999  3.79277E-02  4.60706E+01 -1.00000E+00  1.41134E-01
      21    -1     0     0   511   501  0.000000000E+00  0.000000000E+00  6.769769582E+02  6.769769582E+02  0.000000000E+00  0.00000E+00  9.000E+00
      21    -1     0     0   501   502  0.000000000E+00  0.000000000E+00 -2.359923150E+02  2.359923150E+02  0.000000000E+00  0.00000E+00  9.000E+00
      25     1     1     2     0     0 -2.508891278E+01  2.805396166E+02  3.498523131E+02  4.662119379E+02  1.250000000E+02  0.00000E+00  9.000E+00
      25     1     1     2     0     0 -5.920946796E+00 -2.464677477E+02 -6.501095693E+01  2.839592097E+02  1.250000000E+02  0.00000E+00  9.000E+00
      21     1     1     2   511   502  3.100985957E+01 -3.407186892E+01  1.561432870E+02  1.627981257E+02  0.000000000E+00  0.00000E+00  9.000E+00
#rwgt            1           1   7.1848286806719452E-002           6      379623           0
</event>
<event>
      5   9999 -3.79277E-02  4.87888E+01 -1.00000E+00  1.39686E-01
      21    -1     0     0   512   501  0.000000000E+00  0.000000000E+00  2.305481339E+02  2.305481339E+02  0.000000000E+00  0.00000E+00  9.000E+00
      21    -1     0     0   501   502  0.000000000E+00  0.000000000E+00 -1.837343052E+03  1.837343052E+03  0.000000000E+00  0.00000E+00  9.000E+00
      25     1     1     2     0     0  1.962733473E+01  2.288061424E+02 -5.828160426E+02  6.387777568E+02  1.250000000E+02  0.00000E+00  9.000E+00
      25     1     1     2     0     0  2.222644723E+01 -2.538781777E+02 -1.206882811E+03  1.239814206E+03  1.250000000E+02  0.00000E+00  9.000E+00
      21     1     1     2   512   502 -4.185378197E+01  2.507203531E+01  1.829039362E+02  1.892992232E+02  5.394796609E-06  0.00000E+00  9.000E+00
#rwgt            1           1  -9.0380568384256163E-002           6      379868           0
</event>
<event>
      5   9999  3.79277E-02  3.34922E+01 -1.00000E+00  1.49791E-01
      21    -1     0     0   502   501  0.000000000E+00  0.000000000E+00  9.911910446E+02  9.911910446E+02  0.000000000E+00  0.00000E+00  9.000E+00
      21    -1     0     0   501   511  0.000000000E+00  0.000000000E+00 -2.101347221E+02  2.101347221E+02  0.000000000E+00  0.00000E+00  9.000E+00
      25     1     1     2     0     0 -1.817935382E+01 -4.003199876E+02  3.314238401E+02  5.348395490E+02  1.250000000E+02  0.00000E+00  9.000E+00
      25     1     1     2     0     0  4.402686863E+00  3.697923970E+02  4.817659028E+02  6.200719197E+02  1.250000000E+02  0.00000E+00  9.000E+00
      21     1     1     2   502   511  1.377666696E+01  3.052759066E+01 -3.213342049E+01  4.641429797E+01  1.168007728E-06  0.00000E+00  9.000E+00
#rwgt            1           1   3.5103580006617931E-002           6      379952           0
</event>
<event>
      5   9999  3.79277E-02  7.84935E+01 -1.00000E+00  1.28750E-01
      21    -1     0     0   502   512  0.000000000E+00  0.000000000E+00  1.968226011E+02  1.968226011E+02  0.000000000E+00  0.00000E+00  9.000E+00
      21    -1     0     0   501   502  0.000000000E+00  0.000000000E+00 -1.158791611E+03  1.158791611E+03  0.000000000E+00  0.00000E+00  9.000E+00
      25     1     1     2     0     0  1.772690214E+02 -1.529755647E+02 -4.640729975E+02  5.346162889E+02  1.250000000E+02  0.00000E+00  9.000E+00
      25     1     1     2     0     0 -1.884872000E+02  7.528781861E+01 -6.265092041E+02  6.703241477E+02  1.250000000E+02  0.00000E+00  9.000E+00
      21     1     1     2   501   512  1.121817861E+01  7.768774612E+01  1.286131919E+02  1.506737753E+02  4.264961200E-06  0.00000E+00  9.000E+00
#rwgt            1           1   3.9267642312992228E-002           6      380076           0
</event>
<event>
      5   9999  3.79277E-02  5.54622E+01 -1.00000E+00  1.36554E-01
      21    -1     0     0   502   501  0.000000000E+00  0.000000000E+00  4.499141793E+02  4.499141793E+02  0.000000000E+00  0.00000E+00  9.000E+00
       1    -1     0     0   501     0  0.000000000E+00  0.000000000E+00 -5.238798371E+02  5.238798371E+02  0.000000000E+00  0.00000E+00  9.000E+00
      25     1     1     2     0     0  8.131085950E+01 -7.474375946E+01  3.268915349E+02  3.669893200E+02  1.250000000E+02  0.00000E+00  9.000E+00
      25     1     1     2     0     0 -6.858811544E+01  2.076055184E+01  5.002695723E+01  1.525222166E+02  1.250000000E+02  0.00000E+00  9.000E+00
       1     1     1     2   502     0 -1.272274406E+01  5.398320762E+01 -4.508841498E+02  4.542824798E+02  0.000000000E+00  0.00000E+00  9.000E+00
#rwgt            1           1   4.6146337697632475E-002           6      380186           0
</event>
<event>
      5   9999  3.79277E-02  4.43560E+01 -1.00000E+00  1.42110E-01
      21    -1     0     0   502   511  0.000000000E+00  0.000000000E+00  2.333928783E+02  2.333928783E+02  0.000000000E+00  0.00000E+00  9.000E+00
      21    -1     0     0   501   502  0.000000000E+00  0.000000000E+00 -3.992274013E+02  3.992274013E+02  0.000000000E+00  0.00000E+00  9.000E+00
      25     1     1     2     0     0  9.467701923E+01 -4.308877300E+01 -2.874589808E+02  3.302696565E+02  1.250000000E+02  0.00000E+00  9.000E+00
      25     1     1     2     0     0 -8.998951800E+01  8.719638544E+01  4.435325863E+00  1.770480022E+02  1.250000000E+02  0.00000E+00  9.000E+00
      21     1     1     2   501   511 -4.687501236E+00 -4.410761243E+01  1.171891320E+02  1.253026209E+02  1.907348633E-06  0.00000E+00  9.000E+00
#rwgt            1           1   3.5523468255191232E-002           6      380257           0
</event>
<event>
      5   9999  3.79277E-02  3.24229E+01 -1.00000E+00  1.50733E-01
      21    -1     0     0   502   512  0.000000000E+00  0.000000000E+00  8.973105749E+01  8.973105749E+01  0.000000000E+00  0.00000E+00  9.000E+00
      21    -1     0     0   501   502  0.000000000E+00  0.000000000E+00 -5.261480622E+02  5.261480622E+02  0.000000000E+00  0.00000E+00  9.000E+00
      25     1     1     2     0     0 -1.214438335E+02 -2.231715551E+01 -2.152350241E+02  2.778448771E+02  1.250000000E+02  0.00000E+00  9.000E+00
      25     1     1     2     0     0  9.737099870E+01  5.974467923E-01 -2.491159586E+02  2.952375809E+02  1.250000000E+02  0.00000E+00  9.000E+00
      21     1     1     2   501   512  2.407283480E+01  2.171970872E+01  2.793397805E+01  4.279666169E+01  9.536743164E-07  0.00000E+00  9.000E+00
#rwgt            1           1   2.5254335323245048E-002           6      380427           0
</event>
<event>
      5   9999  3.79277E-02  6.33456E+01 -1.00000E+00  1.33456E-01
      21    -1     0     0   511   501  0.000000000E+00  0.000000000E+00  3.839081070E+02  3.839081070E+02  0.000000000E+00  0.00000E+00  9.000E+00
      21    -1     0     0   501   502  0.000000000E+00  0.000000000E+00 -2.536521735E+02  2.536521735E+02  0.000000000E+00  0.00000E+00  9.000E+00
      25     1     1     2     0     0  2.780785732E+01 -1.525001897E+02 -1.660894648E+02  2.593073372E+02  1.250000000E+02  0.00000E+00  9.000E+00
      25     1     1     2     0     0  1.052802990E+01  1.020717665E+02  1.579963033E+02  2.260913903E+02  1.250000000E+02  0.00000E+00  9.000E+00
      21     1     1     2   511   502 -3.833588722E+01  5.042842325E+01  1.383490950E+02  1.521615530E+02  2.697398305E-06  0.00000E+00  9.000E+00
#rwgt            1           1   3.4172312840498313E-002           6      380850           0
</event>
<event>
      5   9999  3.79277E-02  1.78467E+01 -1.00000E+00  1.70557E-01
      21    -1     0     0   502   501  0.000000000E+00  0.000000000E+00  1.360809232E+02  1.360809232E+02  0.000000000E+00  0.00000E+00  9.000E+00
      21    -1     0     0   512   502  0.000000000E+00  0.000000000E+00 -6.849199046E+02  6.849199046E+02  0.000000000E+00  0.00000E+00  9.000E+00
      25     1     1     2     0     0  2.204407249E+01  1.570315409E+02  2.563972371E+01  2.035368306E+02  1.250000000E+02  0.00000E+00  9.000E+00
      25     1     1     2     0     0 -5.091144785E+00 -1.626085547E+02 -5.511084852E+02  5.880586912E+02  1.250000000E+02  0.00000E+00  9.000E+00
      21     1     1     2   512   501 -1.695292770E+01  5.577013797E+00 -2.337021996E+01  2.940530601E+01  3.371747881E-07  0.00000E+00  9.000E+00
#rwgt            1           1   4.0350114072526456E-002           6      381078           0
</event>
<event>
      5   9999  3.79277E-02  1.33669E+01 -1.00000E+00  1.82233E-01
      21    -1     0     0   511   501  0.000000000E+00  0.000000000E+00  1.674128191E+03  1.674128191E+03  0.000000000E+00  0.00000E+00  9.000E+00
      21    -1     0     0   501   502  0.000000000E+00  0.000000000E+00 -7.991825472E+02  7.991825472E+02  0.000000000E+00  0.00000E+00  9.000E+00
      25     1     1     2     0     0  9.109425755E+00  1.854771267E+02 -1.693159776E+02  2.806735585E+02  1.250000000E+02  0.00000E+00  9.000E+00
      25     1     1     2     0     0  1.080826437E+00 -1.768265357E+02 -5.537413870E+02  5.945782670E+02  1.250000000E+02  0.00000E+00  9.000E+00
      21     1     1     2   511   502 -1.019025219E+01 -8.650590956E+00  1.598003008E+03  1.598058913E+03  0.000000000E+00  0.00000E+00  9.000E+00
#rwgt            1           1   4.0082583516971512E-002           6      381244           0
</event>
<event>
      5   9999  3.79277E-02  1.00764E+02 -1.00000E+00  1.23680E-01
      21    -1     0     0   502   501  0.000000000E+00  0.000000000E+00  3.047574587E+02  3.047574587E+02  0.000000000E+00  0.00000E+00  9.000E+00
      21    -1     0     0   512   502  0.000000000E+00  0.000000000E+00 -1.033618002E+03  1.033618002E+03  0.000000000E+00  0.00000E+00  9.000E+00
      25     1     1     2     0     0 -3.000280629E+02  9.393339779E+01 -4.068043613E+02  5.291078436E+02  1.250000000E+02  0.00000E+00  9.000E+00
      25     1     1     2     0     0  3.000082143E+02 -1.946969340E+02  8.638042812E+01  3.885851298E+02  1.250000000E+02  0.00000E+00  9.000E+00
      21     1     1     2   512   501  1.984859459E-02  1.007635362E+02 -4.084366101E+02  4.206824873E+02  0.000000000E+00  0.00000E+00  9.000E+00
#rwgt            1           1   3.8341616814811297E-002           6      381388           0
</event>
<event>
      5   9999  3.79277E-02  3.64500E+01 -1.00000E+00  1.47389E-01
      21    -1     0     0   502   511  0.000000000E+00  0.000000000E+00  3.654637756E+02  3.654637756E+02  0.000000000E+00  0.00000E+00  9.000E+00
      21    -1     0     0   501   502  0.000000000E+00  0.000000000E+00 -2.360808094E+02  2.360808094E+02  0.000000000E+00  0.00000E+00  9.000E+00
      25     1     1     2     0     0 -1.391463647E+02 -1.778890804E+02  1.666759401E+02  3.072655281E+02  1.250000000E+02  0.00000E+00  9.000E+00
      25     1     1     2     0     0  1.535036638E+02  1.443857834E+02 -5.877127089E+01  2.519716086E+02  1.250000000E+02  0.00000E+00  9.000E+00
      21     1     1     2   501   511 -1.435729907E+01  3.350329702E+01  2.147829692E+01  4.230744836E+01  7.152557373E-07  0.00000E+00  9.000E+00
#rwgt            1           1   4.0530801645437549E-002           6      381454           0
</event>
<event>
      5   9999  3.79277E-02  4.12641E+01 -1.00000E+00  1.44007E-01
      -2    -1     0     0     0   501  0.000000000E+00  0.000000000E+00  2.479912854E+02  2.479912854E+02  0.000000000E+00  0.00000E+00  9.000E+00
      21    -1     0     0   501   502  0.000000000E+00  0.000000000E+00 -1.765666177E+02  1.765666177E+02  0.000000000E+00  0.00000E+00  9.000E+00
      25     1     1     2     0     0  5.778323820E+01  4.000307386E+01  2.380270331E+01  1.453640850E+02  1.250000000E+02  0.00000E+00  9.000E+00
      25     1     1     2     0     0 -7.967051540E+01 -7.498405420E+01 -4.977655450E+01  1.734148344E+02  1.250000000E+02  0.00000E+00  9.000E+00
      -2     1     1     2     0   502  2.188727719E+01  3.498098033E+01  9.739851898E+01  1.057789837E+02  1.348699152E-06  0.00000E+00  9.000E+00
#rwgt            1           1   4.4959672340213461E-002           6      381723           0
</event>
<event>
      5   9999 -3.79277E-02  2.60491E+01 -1.00000E+00  1.57425E-01
      21    -1     0     0   511   501  0.000000000E+00  0.000000000E+00  1.588053743E+02  1.588053743E+02  0.000000000E+00  0.00000E+00  9.000E+00
      21    -1     0     0   501   502  0.000000000E+00  0.000000000E+00 -9.901250446E+02  9.901250446E+02  0.000000000E+00  0.00000E+00  9.000E+00
      25     1     1     2     0     0  1.050004597E+02  2.942895753E+02 -2.126004655E+02  3.980645784E+02  1.250000000E+02  0.00000E+00  9.000E+00
      25     1     1     2     0     0 -1.285628142E+02 -3.053968400E+02 -6.298116357E+02  7.225533361E+02  1.250000000E+02  0.00000E+00  9.000E+00
      21     1     1     2   511   502  2.356235442E+01  1.110726467E+01  1.109243094E+01  2.831250428E+01  7.052516679E-07  0.00000E+00  9.000E+00
#rwgt            1           1 -0.30485082369347977                6      381850           0
</event>
<event>
      5   9999  3.79277E-02  4.29305E+01 -1.00000E+00  1.42961E-01
      21    -1     0     0   502   512  0.000000000E+00  0.000000000E+00  3.387597718E+01  3.387597718E+01  0.000000000E+00  0.00000E+00  9.000E+00
      21    -1     0     0   501   502  0.000000000E+00  0.000000000E+00 -2.435869042E+03  2.435869042E+03  0.000000000E+00  0.00000E+00  9.000E+00
      25     1     1     2     0     0  9.591172277E+01  7.880534218E+01 -5.217687571E+02  5.507058892E+02  1.250000000E+02  0.00000E+00  9.000E+00
      25     1     1     2     0     0 -1.277019409E+02 -1.076568064E+02 -1.859859252E+03  1.871523233E+03  1.250000000E+02  0.00000E+00  9.000E+00
      21     1     1     2   501   512  3.179021818E+01  2.885146420E+01 -2.036505515E+01  4.751589660E+01  1.450243599E-06  0.00000E+00  9.000E+00
#rwgt            1           1  0.19410113818605212                6      382046           0
</event>
<event>
      5   9999  3.79277E-02  2.36000E+02 -1.00000E+00  1.09092E-01
      21    -1     0     0   502   501  0.000000000E+00  0.000000000E+00  4.329486678E+02  4.329486678E+02  0.000000000E+00  0.00000E+00  9.000E+00
      21    -1     0     0   501   511  0.000000000E+00  0.000000000E+00 -3.507218460E+02  3.507218460E+02  0.000000000E+00  0.00000E+00  9.000E+00
      25     1     1     2     0     0  1.411497454E+02  7.293450907E+01  9.965310478E+01  2.253850806E+02  1.250000000E+02  0.00000E+00  9.000E+00
      25     1     1     2     0     0  2.586663545E+01 -2.396729914E+02  1.065507906E+02  2.917024111E+02  1.250000000E+02  0.00000E+00  9.000E+00
      21     1     1     2   502   511 -1.670163809E+02  1.667384823E+02 -1.239770735E+02  2.665830222E+02  4.862803949E-06  0.00000E+00  9.000E+00
#rwgt            1           1   3.1284661728753438E-002           6      382160           0
</event>
<event>
      5   9999  3.79277E-02  1.65978E+02 -1.00000E+00  1.14678E-01
      21    -1     0     0   502   501  0.000000000E+00  0.000000000E+00  1.352248046E+03  1.352248046E+03  0.000000000E+00  0.00000E+00  9.000E+00
      21    -1     0     0   512   502  0.000000000E+00  0.000000000E+00 -4.848017324E+02  4.848017324E+02  0.000000000E+00  0.00000E+00  9.000E+00
      25     1     1     2     0     0 -2.009764683E+02  3.096290577E+01  7.081933283E+02  7.473372950E+02  1.250000000E+02  0.00000E+00  9.000E+00
      25     1     1     2     0     0  6.922979880E+01 -1.319154851E+02  5.936470943E+02  6.246889888E+02  1.250000000E+02  0.00000E+00  9.000E+00
      21     1     1     2   512   501  1.317466695E+02  1.009525793E+02 -4.343941092E+02  4.650234943E+02  5.394796609E-06  0.00000E+00  9.000E+00
#rwgt            1           1   4.2786144258146849E-002           6      382201           0
</event>
<event>
      5   9999  3.79277E-02  4.11215E+01 -1.00000E+00  1.44099E-01
      21    -1     0     0   502   511  0.000000000E+00  0.000000000E+00  6.773044521E+02  6.773044521E+02  0.000000000E+00  0.00000E+00  9.000E+00
      21    -1     0     0   501   502  0.000000000E+00  0.000000000E+00 -1.811159246E+02  1.811159246E+02  0.000000000E+00  0.00000E+00  9.000E+00
      25     1     1     2     0     0 -8.777730397E+01  1.055737573E+02  3.501472204E+02  3.963316153E+02  1.250000000E+02  0.00000E+00  9.000E+00
      25     1     1     2     0     0  6.294144661E+01 -7.279942407E+01 -1.166503165E+02  1.961980586E+02  1.250000000E+02  0.00000E+00  9.000E+00
      21     1     1     2   501   511  2.483585736E+01 -3.277433318E+01  2.626916236E+02  2.658907028E+02  0.000000000E+00  0.00000E+00  9.000E+00
#rwgt            1           1   3.7598041154868179E-002           6      382267           0
</event>
<event>
      5   9999  3.79277E-02  4.89398E+01 -1.00000E+00  1.39609E-01
      21    -1     0     0   502   501  0.000000000E+00  0.000000000E+00  5.339130904E+02  5.339130904E+02  0.000000000E+00  0.00000E+00  9.000E+00
       4    -1     0     0   501     0  0.000000000E+00  0.000000000E+00 -3.747314509E+02  3.747314509E+02  0.000000000E+00  0.00000E+00  9.000E+00
      25     1     1     2     0     0 -1.751953849E+02  4.649243139E+01  2.308247357E+02  3.189984760E+02  1.250000000E+02  0.00000E+00  9.000E+00
      25     1     1     2     0     0  1.722336725E+02 -9.534256214E+01  2.039150690E+02  3.097757213E+02  1.250000000E+02  0.00000E+00  9.000E+00
       4     1     1     2   502     0  2.961712382E+00  4.885013076E+01 -2.755581653E+02  2.798703441E+02  5.394796609E-06  0.00000E+00  9.000E+00
#rwgt            1           1   3.5630372691395032E-002           6      382407           0
</event>
<event>
      5   9999  3.79277E-02  1.57240E+02 -1.00000E+00  1.15588E-01
      21    -1     0     0   502   501  0.000000000E+00  0.000000000E+00  5.503557191E+01  5.503557191E+01  0.000000000E+00  0.00000E+00  9.000E+00
       1    -1     0     0   501     0  0.000000000E+00  0.000000000E+00 -1.903580762E+03  1.903580762E+03  0.000000000E+00  0.00000E+00  9.000E+00
      25     1     1     2     0     0  5.929933187E+01  1.690721766E+02 -6.134640133E+02  6.512026622E+02  1.250000000E+02  0.00000E+00  9.000E+00
      25     1     1     2     0     0  8.669740691E+01 -1.106824020E+02 -2.668515290E+02  3.264992696E+02  1.250000000E+02  0.00000E+00  9.000E+00
       1     1     1     2   502     0 -1.459967388E+02 -5.838977457E+01 -9.682296475E+02  9.809144019E+02  0.000000000E+00  0.00000E+00  9.000E+00
#rwgt            2          12   3.0559117187789844E-004           6      382774           0
</event>
<event>
      5   9999  3.79277E-02  2.36972E+01 -1.00000E+00  1.60512E-01
      21    -1     0     0   502   501  0.000000000E+00  0.000000000E+00  2.213408031E+02  2.213408031E+02  0.000000000E+00  0.00000E+00  9.000E+00
      21    -1     0     0   511   502  0.000000000E+00  0.000000000E+00 -2.370519101E+02  2.370519101E+02  0.000000000E+00  0.00000E+00  9.000E+00
      25     1     1     2     0     0  1.126482825E+02 -6.235067535E+01 -1.232960410E+02  2.177249549E+02  1.250000000E+02  0.00000E+00  9.000E+00
      25     1     1     2     0     0 -9.282080440E+01  7.532864329E+01  1.231437691E+02  2.123193211E+02  1.250000000E+02  0.00000E+00  9.000E+00
      21     1     1     2   511   501 -1.982747808E+01 -1.297796794E+01 -1.555883518E+01  2.834843719E+01  3.371747881E-07  0.00000E+00  9.000E+00
#rwgt            2          11   2.1742147584294671E-003           6      382853           0
</event>
<event>
      5   9999  3.79277E-02  1.20842E+02 -1.00000E+00  1.20240E-01
      21    -1     0     0   502   512  0.000000000E+00  0.000000000E+00  6.027777636E+02  6.027777636E+02  0.000000000E+00  0.00000E+00  9.000E+00
      21    -1     0     0   501   502  0.000000000E+00  0.000000000E+00 -2.291256124E+02  2.291256124E+02  0.000000000E+00  0.00000E+00  9.000E+00
      25     1     1     2     0     0  9.067506827E+01  1.091284313E+02 -7.986158292E+01  2.052653282E+02  1.250000000E+02  0.00000E+00  9.000E+00
      25     1     1     2     0     0 -2.113771715E+02 -1.033191141E+02  1.638363377E+02  3.127658766E+02  1.250000000E+02  0.00000E+00  9.000E+00
      21     1     1     2   501   512  1.207021033E+02 -5.809317129E+00  2.896773964E+02  3.138721712E+02  3.814697266E-06  0.00000E+00  9.000E+00
#rwgt            1           1   4.3084196910192475E-002           6      382978           0
</event>
<event>
      5   9999  3.79277E-02  1.23936E+01 -1.00000E+00  1.85566E-01
      21    -1     0     0   502   501  0.000000000E+00  0.000000000E+00  4.031402729E+01  4.031402729E+01  0.000000000E+00  0.00000E+00  9.000E+00
      21    -1     0     0   501   511  0.000000000E+00  0.000000000E+00 -1.867751218E+03  1.867751218E+03  0.000000000E+00  0.00000E+00  9.000E+00
      25     1     1     2     0     0  2.002846091E+02  9.622426760E+01 -9.332248128E+02  9.674226509E+02  1.250000000E+02  0.00000E+00  9.000E+00
      25     1     1     2     0     0 -2.126594945E+02 -9.554295171E+01 -7.386972861E+02  7.846344351E+02  1.250000000E+02  0.00000E+00  9.000E+00
      21     1     1     2   502   511  1.237488536E+01 -6.813158945E-01 -1.555150914E+02  1.560081589E+02  1.907348633E-06  0.00000E+00  9.000E+00
#rwgt            1           1   4.1069718191620030E-002           6      383042           0
</event>
<event>
      5   9999  3.79277E-02  9.40583E+01 -1.00000E+00  1.25036E-01
      21    -1     0     0   512   501  0.000000000E+00  0.000000000E+00  1.192228934E+02  1.192228934E+02  0.000000000E+00  0.00000E+00  9.000E+00
      21    -1     0     0   501   502  0.000000000E+00  0.000000000E+00 -2.079516136E+03  2.079516136E+03  0.000000000E+00  0.00000E+00  9.000E+00
      25     1     1     2     0     0 -1.367867633E+02  6.976125412E+01 -1.032798683E+03  1.051606091E+03  1.250000000E+02  0.00000E+00  9.000E+00
      25     1     1     2     0     0  4.373127195E+01 -5.606329328E+01 -1.011107821E+03  1.021283282E+03  1.250000000E+02  0.00000E+00  9.000E+00
      21     1     1     2   512   502  9.305549134E+01 -1.369796083E+01  8.361326099E+01  1.258496564E+02  4.768371582E-06  0.00000E+00  9.000E+00
#rwgt            1           1   7.1323810120951833E-002           6      383266           0
</event>
<event>
      5   9999  3.79277E-02  9.12805E+01 -1.00000E+00  1.25637E-01
      21    -1     0     0   511   501  0.000000000E+00  0.000000000E+00  3.870229366E+02  3.870229366E+02  0.000000000E+00  0.00000E+00  9.000E+00
      21    -1     0     0   501   502  0.000000000E+00  0.000000000E+00 -1.827126378E+02  1.827126378E+02  0.000000000E+00  0.00000E+00  9.000E+00
      25     1     1     2     0     0 -7.391219934E+00 -1.229126218E+02  9.496113197E+01  1.995113012E+02  1.250000000E+02  0.00000E+00  9.000E+00
      25     1     1     2     0     0  1.868501425E+01  2.134917106E+02  3.118552654E+01  2.500507495E+02  1.250000000E+02  0.00000E+00  9.000E+00
      21     1     1     2   511   502 -1.129379431E+01 -9.057908881E+01  7.816364033E+01  1.201735237E+02  9.536743164E-07  0.00000E+00  9.000E+00
#rwgt            1           1   3.8264166044810755E-002           6      383328           0
</event>
<event>
      5   9999  3.79277E-02  1.12921E+02 -1.00000E+00  1.21500E-01
      21    -1     0     0   502   501  0.000000000E+00  0.000000000E+00  1.112010882E+03  1.112010882E+03  0.000000000E+00  0.00000E+00  9.000E+00
      21    -1     0     0   512   502  0.000000000E+00  0.000000000E+00 -8.291696904E+01  8.291696904E+01  0.000000000E+00  0.00000E+00  9.000E+00
      25     1     1     2     0     0  1.816952014E+02  4.615692481E+01  4.863548949E+02  5.360127720E+02  1.250000000E+02  0.00000E+00  9.000E+00
      25     1     1     2     0     0 -2.119051949E+02  6.264805475E+01  4.299746261E+02  4.993313224E+02  1.250000000E+02  0.00000E+00  9.000E+00
      21     1     1     2   512   501  3.020999355E+01 -1.088049796E+02  1.127643917E+02  1.595837565E+02  2.697398305E-06  0.00000E+00  9.000E+00
#rwgt            1           1   3.5587648023003175E-002           6      383583           0
</event>
<event>
      5   9999  3.79277E-02  4.49638E+01 -1.00000E+00  1.41758E-01
      21    -1     0     0   502   511  0.000000000E+00  0.000000000E+00  3.841701624E+02  3.841701624E+02  0.000000000E+00  0.00000E+00  9.000E+00
      21    -1     0     0   501   502  0.000000000E+00  0.000000000E+00 -1.605161584E+02  1.605161584E+02  0.000000000E+00  0.00000E+00  9.000E+00
      25     1     1     2     0     0  1.441947637E+02 -6.660309047E+01  1.012360596E+02  2.260571638E+02  1.250000000E+02  0.00000E+00  9.000E+00
      25     1     1     2     0     0 -1.152827711E+02  3.216708037E+01 -1.532085503E+01  1.737370628E+02  1.250000000E+02  0.00000E+00  9.000E+00
      21     1     1     2   501   511 -2.891199259E+01  3.443601011E+01  1.377387995E+02  1.448920943E+02  1.907348633E-06  0.00000E+00  9.000E+00
#rwgt            1           1   2.3310579314454998E-002           6      383673           0
</event>
<event>
      5   9999  3.79277E-02  2.57058E+01 -1.00000E+00  1.57851E-01
      21    -1     0     0   512   501  0.000000000E+00  0.000000000E+00  3.113744911E+02  3.113744911E+02  0.000000000E+00  0.00000E+00  9.000E+00
      21    -1     0     0   501   502  0.000000000E+00  0.000000000E+00 -3.266712546E+02  3.266712546E+02  0.000000000E+00  0.00000E+00  9.000E+00
      25     1     1     2     0     0  1.351083540E+02 -2.023012535E+02  9.485655707E+01  2.894871861E+02  1.250000000E+02  0.00000E+00  9.000E+00
      25     1     1     2     0     0 -1.364404740E+02  2.279724783E+02 -1.247224658E+02  3.190112024E+02  1.250000000E+02  0.00000E+00  9.000E+00
      21     1     1     2   512   502  1.332119980E+00 -2.567122480E+01  1.456914519E+01  2.954735721E+01  1.685873940E-07  0.00000E+00  9.000E+00
#rwgt            1           1   3.1377463925915151E-002           6      383908           0
</event>
<event>
      5   9999  3.79277E-02  6.03460E+01 -1.00000E+00  1.34570E-01
      21    -1     0     0   502   501  0.000000000E+00  0.000000000E+00  3.524474475E+02  3.524474475E+02  0.000000000E+00  0.00000E+00  9.000E+00
      21    -1     0     0   511   502  0.000000000E+00  0.000000000E+00 -2.352681102E+02  2.352681102E+02  0.000000000E+00  0.00000E+00  9.000E+00
      25     1     1     2     0     0  2.055932740E+02  1.166436751E+02 -6.084427118E+00  2.674628227E+02  1.250000000E+02  0.00000E+00  9.000E+00
      25     1     1     2     0     0 -1.467838923E+02 -1.031123806E+02  1.374599921E+02  2.582594113E+02  1.250000000E+02  0.00000E+00  9.000E+00
      21     1     1     2   511   501 -5.880938169E+01 -1.353129449E+01 -1.419622773E+01  6.199332373E+01  1.294944345E-06  0.00000E+00  9.000E+00
#rwgt            1           1  0.22468376560382020                6      384048           0
</event>
<event>
      5   9999  3.79277E-02  5.52979E+01 -1.00000E+00  1.36625E-01
      21    -1     0     0   502   501  0.000000000E+00  0.000000000E+00  1.389418175E+02  1.389418175E+02  0.000000000E+00  0.00000E+00  9.000E+00
      21    -1     0     0   501   512  0.000000000E+00  0.000000000E+00 -6.859113055E+02  6.859113055E+02  0.000000000E+00  0.00000E+00  9.000E+00
      25     1     1     2     0     0 -9.506184974E+01  1.220526412E+02 -1.570008232E+02  2.533927011E+02  1.250000000E+02  0.00000E+00  9.000E+00
      25     1     1     2     0     0  1.053827146E+02 -6.772646661E+01  6.285266178E-01  1.769683188E+02  1.250000000E+02  0.00000E+00  9.000E+00
      21     1     1     2   502   512 -1.032086486E+01 -5.432617457E+01 -3.905971915E+02  3.944921032E+02  5.394796609E-06  0.00000E+00  9.000E+00
#rwgt            1           1   4.0262062911627892E-002           6      384183           0
</event>
<event>
      5   9999  3.79277E-02  3.34394E+01 -1.00000E+00  1.49836E-01
      21    -1     0     0   502   501  0.000000000E+00  0.000000000E+00  3.432552140E+02  3.432552140E+02  0.000000000E+00  0.00000E+00  9.000E+00
      21    -1     0     0   511   502  0.000000000E+00  0.000000000E+00 -4.150761235E+02  4.150761235E+02  0.000000000E+00  0.00000E+00  9.000E+00
      25     1     1     2     0     0  2.245232376E+02 -1.347909607E+01  1.870034879E+02  3.181001017E+02  1.250000000E+02  0.00000E+00  9.000E+00
      25     1     1     2     0     0 -2.541300426E+02 -2.065393883E+00 -1.383490235E+02  3.152012004E+02  1.250000000E+02  0.00000E+00  9.000E+00
      21     1     1     2   511   501  2.960680503E+01  1.554448995E+01 -1.204753738E+02  1.250300355E+02  1.348699152E-06  0.00000E+00  9.000E+00
#rwgt            1           1  0.11711524303220514                6      384261           0
</event>
<event>
      5   9999  3.79277E-02  1.68864E+02 -1.00000E+00  1.14391E-01
      21    -1     0     0   512   501  0.000000000E+00  0.000000000E+00  1.127407910E+03  1.127407910E+03  0.000000000E+00  0.00000E+00  9.000E+00
      21    -1     0     0   501   502  0.000000000E+00  0.000000000E+00 -2.559618756E+02  2.559618756E+02  0.000000000E+00  0.00000E+00  9.000E+00
      25     1     1     2     0     0 -8.015247662E+01  4.476326743E+02  3.202602937E+02  5.700798947E+02  1.250000000E+02  0.00000E+00  9.000E+00
      25     1     1     2     0     0  2.147747419E+02 -3.456915548E+02  3.540785154E+02  5.537395018E+02  1.250000000E+02  0.00000E+00  9.000E+00
      21     1     1     2   512   502 -1.346222653E+02 -1.019411195E+02  1.971072251E+02  2.595503888E+02  2.697398305E-06  0.00000E+00  9.000E+00
#rwgt            2          11   3.7645052219459729E-003           6      384465           0
</event>
<event>
      5   9999  3.79277E-02  9.09828E+01 -1.00000E+00  1.25702E-01
       2    -1     0     0   502     0  0.000000000E+00  0.000000000E+00  1.087888934E+02  1.087888934E+02  0.000000000E+00  0.00000E+00  9.000E+00
      21    -1     0     0   501   502  0.000000000E+00  0.000000000E+00 -1.840572635E+03  1.840572635E+03  0.000000000E+00  0.00000E+00  9.000E+00
      25     1     1     2     0     0  3.115246035E+01 -5.292650364E+01 -1.165709648E+03  1.173999861E+03  1.250000000E+02  0.00000E+00  9.000E+00
      25     1     1     2     0     0  5.425204112E+01  8.429420983E+01 -6.389854282E+02  6.587686811E+02  1.250000000E+02  0.00000E+00  9.000E+00
       2     1     1     2   501     0 -8.540450147E+01 -3.136770618E+01  7.291133422E+01  1.165929866E+02  5.135693366E-06  0.00000E+00  9.000E+00
#rwgt            1           1   3.8157228452513813E-002           6      384485           0
</event>
<event>
      5   9999  3.79277E-02  1.25016E+01 -1.00000E+00  1.85177E-01
      21    -1     0     0   502   511  0.000000000E+00  0.000000000E+00  3.819301255E+02  3.819301255E+02  0.000000000E+00  0.00000E+00  9.000E+00
      21    -1     0     0   501   502  0.000000000E+00  0.000000000E+00 -1.351047218E+02  1.351047218E+02  0.000000000E+00  0.00000E+00  9.000E+00
      25     1     1     2     0     0  5.465873752E+01 -1.241830667E+02  1.874619409E+02  2.630132904E+02  1.250000000E+02  0.00000E+00  9.000E+00
      25     1     1     2     0     0 -6.125751430E+01  1.348013154E+02  4.290941144E-01  1.937758030E+02  1.250000000E+02  0.00000E+00  9.000E+00
      21     1     1     2   501   511  6.598776779E+00 -1.061824870E+01  5.893436862E+01  6.024575392E+01  6.743495762E-07  0.00000E+00  9.000E+00
#rwgt            1           1   3.7964063354351686E-002           6      384621           0
</event>
<event>
      5   9999 -3.79277E-02  3.07358E+01 -1.00000E+00  1.52312E-01
      21    -1     0     0   512   501  0.000000000E+00  0.000000000E+00  2.552638538E+02  2.552638538E+02  0.000000000E+00  0.00000E+00  9.000E+00
      21    -1     0     0   501   502  0.000000000E+00  0.000000000E+00 -1.608285592E+02  1.608285592E+02  0.000000000E+00  0.00000E+00  9.000E+00
      25     1     1     2     0     0 -3.795117185E+01  1.350149526E+02 -1.312058118E+01  1.883254591E+02  1.250000000E+02  0.00000E+00  9.000E+00
      25     1     1     2     0     0  1.616974660E+01 -1.133294894E+02  8.483059788E+01  1.895422491E+02  1.250000000E+02  0.00000E+00  9.000E+00
      21     1     1     2   512   502  2.178142525E+01 -2.168546325E+01  2.272527788E+01  3.822470480E+01  0.000000000E+00  0.00000E+00  9.000E+00
#rwgt            1           1  -6.1257544830434114E-002           6      384929           0
</event>
<event>
      5   9999  3.79277E-02  1.16445E+02 -1.00000E+00  1.20925E-01
      21    -1     0     0   502   501  0.000000000E+00  0.000000000E+00  6.285432450E+02  6.285432450E+02  0.000000000E+00  0.00000E+00  9.000E+00
      21    -1     0     0   511   502  0.000000000E+00  0.000000000E+00 -3.932426742E+02  3.932426742E+02  0.000000000E+00  0.00000E+00  9.000E+00
      25     1     1     2     0     0  2.909342802E+02  1.711890878E+02  3.159460740E+02  4.789523785E+02  1.250000000E+02  0.00000E+00  9.000E+00
      25     1     1     2     0     0 -2.021001377E+02 -2.464753864E+02  7.297818499E+01  3.500648472E+02  1.250000000E+02  0.00000E+00  9.000E+00
      21     1     1     2   511   501 -8.883414255E+01  7.528629855E+01 -1.536236881E+02  1.927686935E+02  1.907348633E-06  0.00000E+00  9.000E+00
#rwgt            2          11   2.2117109862905206E-003           6      385107           0
</event>
<event>
      5   9999  3.79277E-02  8.23587E+01 -1.00000E+00  1.27742E-01
      21    -1     0     0   502   501  0.000000000E+00  0.000000000E+00  6.779015811E+02  6.779015811E+02  0.000000000E+00  0.00000E+00  9.000E+00
      21    -1     0     0   501   512  0.000000000E+00  0.000000000E+00 -1.858402658E+02  1.858402658E+02  0.000000000E+00  0.00000E+00  9.000E+00
      25     1     1     2     0     0  2.437530269E+02 -1.828325092E+01  3.009446850E+02  4.073604286E+02  1.250000000E+02  0.00000E+00  9.000E+00
      25     1     1     2     0     0 -2.952354635E+02  8.256791923E+01  1.400279544E+02  3.594638622E+02  1.250000000E+02  0.00000E+00  9.000E+00
      21     1     1     2   502   512  5.148243665E+01 -6.428466831E+01  5.108867592E+01  9.691755604E+01  9.536743164E-07  0.00000E+00  9.000E+00
#rwgt            1           1   3.2725037455897117E-002           6      385157           0
</event>
<event>
      5   9999  3.79277E-02  1.60941E+01 -1.00000E+00  1.74551E-01
      21    -1     0     0   502   501  0.000000000E+00  0.000000000E+00  2.509241483E+02  2.509241483E+02  0.000000000E+00  0.00000E+00  9.000E+00
      21    -1     0     0   511   502  0.000000000E+00  0.000000000E+00 -1.948572411E+02  1.948572411E+02  0.000000000E+00  0.00000E+00  9.000E+00
      25     1     1     2     0     0 -6.993617991E+01 -8.902553635E+00  1.861366320E+02  2.350365301E+02  1.250000000E+02  0.00000E+00  9.000E+00
      25     1     1     2     0     0  5.694930432E+01 -6.033103079E-01 -8.182663652E+01  1.598880411E+02  1.250000000E+02  0.00000E+00  9.000E+00
      21     1     1     2   511   501  1.298687559E+01  9.505863942E+00 -4.824308823E+01  5.085681812E+01  6.743495762E-07  0.00000E+00  9.000E+00
#rwgt            1           1   4.4565465548238273E-002           6      385390           0
</event>
<event>
      5   9999  3.79277E-02  1.51297E+01 -1.00000E+00  1.77032E-01
       2    -1     0     0   502     0  0.000000000E+00  0.000000000E+00  4.697009967E+02  4.697009967E+02  0.000000000E+00  0.00000E+00  9.000E+00
      21    -1     0     0   501   502  0.000000000E+00  0.000000000E+00 -2.989059645E+02  2.989059645E+02  0.000000000E+00  0.00000E+00  9.000E+00
      25     1     1     2     0     0 -2.123316068E+02 -1.814063715E+02 -4.580171421E+01  3.093796695E+02  1.250000000E+02  0.00000E+00  9.000E+00
      25     1     1     2     0     0  2.066805035E+02  1.673716591E+02  5.752774417E+01  2.994403850E+02  1.250000000E+02  0.00000E+00  9.000E+00
       2     1     1     2   501     0  5.651103312E+00  1.403471237E+01  1.590690022E+02  1.597869067E+02  0.000000000E+00  0.00000E+00  9.000E+00
#rwgt            1           1   3.4999908268019478E-002           6      385629           0
</event>
<event>
      5   9999  3.79277E-02  2.38280E+01 -1.00000E+00  1.60329E-01
      21    -1     0     0   502   511  0.000000000E+00  0.000000000E+00  1.725725988E+02  1.725725988E+02  0.000000000E+00  0.00000E+00  9.000E+00
      21    -1     0     0   501   502  0.000000000E+00  0.000000000E+00 -4.547331747E+02  4.547331747E+02  0.000000000E+00  0.00000E+00  9.000E+00
      25     1     1     2     0     0  1.520268042E+01  1.186572669E+02  8.260725822E+01  1.917280042E+02  1.250000000E+02  0.00000E+00  9.000E+00
      25     1     1     2     0     0 -1.214087562E-01 -1.002092068E+02 -3.763891209E+02  4.090668285E+02  1.250000000E+02  0.00000E+00  9.000E+00
      21     1     1     2   501   511 -1.508127166E+01 -1.844806008E+01  1.162128682E+01  2.651094082E+01  3.371747881E-07  0.00000E+00  9.000E+00
#rwgt            1           1   1.8594338426090810E-002           6      385879           0
</event>
<event>
      5   9999  3.79277E-02  1.02755E+02 -1.00000E+00  1.23299E-01
      21    -1     0     0   502   501  0.000000000E+00  0.000000000E+00  4.298825675E+02  4.298825675E+02  0.000000000E+00  0.00000E+00  9.000E+00
      21    -1     0     0   512   502  0.000000000E+00  0.000000000E+00 -2.715561426E+02  2.715561426E+02  0.000000000E+00  0.00000E+00  9.000E+00
      25     1     1     2     0     0  2.331936406E+02  8.497282254E+01  8.626976227E+01  2.909761613E+02  1.250000000E+02  0.00000E+00  9.000E+00
      25     1     1     2     0     0 -1.481630385E+02 -1.426642152E+02  1.481251383E+02  2.826153231E+02  1.250000000E+02  0.00000E+00  9.000E+00
      21     1     1     2   512   501 -8.503060214E+01  5.769139266E+01 -7.606847574E+01  1.278472256E+02  9.536743164E-07  0.00000E+00  9.000E+00
#rwgt            1           1   3.3685475124812632E-002           6      386032           0
</event>
<event>
      5   9999  3.79277E-02  1.03678E+01 -1.00000E+00  1.93961E-01
      -3    -1     0     0     0   501  0.000000000E+00  0.000000000E+00  1.029750354E+03  1.029750354E+03  0.000000000E+00  0.00000E+00  9.000E+00
      21    -1     0     0   501   502  0.000000000E+00  0.000000000E+00 -1.535783495E+03  1.535783495E+03  0.000000000E+00  0.00000E+00  9.000E+00
      25     1     1     2     0     0 -5.813198229E+01 -1.111016655E+02 -5.040458674E+02  5.342379095E+02  1.250000000E+02  0.00000E+00  9.000E+00
      25     1     1     2     0     0  4.856357234E+01  1.150938446E+02 -1.008935018E+03  1.024294823E+03  1.250000000E+02  0.00000E+00  9.000E+00
      -3     1     1     2     0   502  9.568409944E+00 -3.992179098E+00  1.006947744E+03  1.007001118E+03  1.525878906E-05  0.00000E+00  9.000E+00
#rwgt            1           1   3.0467558567830230E-002           6      386128           0
</event>
<event>
      5   9999  3.79277E-02  6.78934E+01 -1.00000E+00  1.31896E-01
      21    -1     0     0   502   501  0.000000000E+00  0.000000000E+00  1.432398083E+03  1.432398083E+03  0.000000000E+00  0.00000E+00  9.000E+00
      21    -1     0     0   501   511  0.000000000E+00  0.000000000E+00 -8.330725742E+01  8.330725742E+01  0.000000000E+00  0.00000E+00  9.000E+00
      25     1     1     2     0     0  5.533555147E+01  1.246166698E+02  1.471621371E+02  2.363747707E+02  1.250000000E+02  0.00000E+00  9.000E+00
      25     1     1     2     0     0 -5.269750880E+01 -1.924588397E+02  1.186589326E+03  1.209725862E+03  1.250000000E+02  0.00000E+00  9.000E+00
      21     1     1     2   502   511 -2.638042673E+00  6.784216987E+01  1.533936235E+01  6.960470760E+01  7.348554138E-07  0.00000E+00  9.000E+00
#rwgt            1           1   3.6457531154725095E-002           6      386404           0
</event>
<event>
      5   9999  3.79277E-02  6.30525E+00 -1.00000E+00  2.22176E-01
      21    -1     0     0   502   512  0.000000000E+00  0.000000000E+00  1.454323371E+02  1.454323371E+02  0.000000000E+00  0.00000E+00  9.000E+00
      21    -1     0     0   501   502  0.000000000E+00  0.000000000E+00 -3.912316261E+02  3.912316261E+02  0.000000000E+00  0.00000E+00  9.000E+00
      25     1     1     2     0     0 -5.372612053E+01  7.881833929E+00 -3.358033910E+02  3.624052107E+02  1.250000000E+02  0.00000E+00  9.000E+00
      25     1     1     2     0     0  5.917286197E+01 -1.105817996E+01  7.440149879E+01  1.574302829E+02  1.250000000E+02  0.00000E+00  9.000E+00
      21     1     1     2   501   512 -5.446741439E+00  3.176346027E+00  1.560260317E+01  1.682846969E+01  3.769728732E-07  0.00000E+00  9.000E+00
#rwgt            1           1   3.8783024364199704E-002           6      386511           0
</event>
<event>
      5   9999  3.79277E-02  4.07163E+01 -1.00000E+00  1.44364E-01
      21    -1     0     0   502   501  0.000000000E+00  0.000000000E+00  7.926178191E+02  7.926178191E+02  0.000000000E+00  0.00000E+00  9.000E+00
      21    -1     0     0   501   511  0.000000000E+00  0.000000000E+00 -5.917889273E+01  5.917889273E+01  0.000000000E+00  0.00000E+00  9.000E+00
      25     1     1     2     0     0 -1.648068828E+01 -1.227065073E+02  4.773104672E+02  5.087030392E+02  1.250000000E+02  0.00000E+00  9.000E+00
      25     1     1     2     0     0  5.689735975E+01  1.177762194E+02  2.368442767E+02  2.980415387E+02  1.250000000E+02  0.00000E+00  9.000E+00
      21     1     1     2   502   511 -4.041667147E+01  4.930287880E+00  1.928418248E+01  4.505213386E+01  6.743495762E-07  0.00000E+00  9.000E+00
#rwgt            1           1   4.2928325399867288E-002           6      386849           0
</event>
<event>
      5   9999  3.79277E-02  7.59691E+01 -1.00000E+00  1.29446E-01
      21    -1     0     0   502   501  0.000000000E+00  0.000000000E+00  4.570528595E+02  4.570528595E+02  0.000000000E+00  0.00000E+00  9.000E+00
       2    -1     0     0   501     0  0.000000000E+00  0.000000000E+00 -4.204369772E+02  4.204369772E+02  0.000000000E+00  0.00000E+00  9.000E+00
      25     1     1     2     0     0 -1.596501664E+02 -3.081464984E+01 -5.261189501E+01  2.117326847E+02  1.250000000E+02  0.00000E+00  9.000E+00
      25     1     1     2     0     0  2.164713910E+02 -1.961010764E+01  3.293332267E+02  4.139200329E+02  1.250000000E+02  0.00000E+00  9.000E+00
       2     1     1     2   502     0 -5.682122456E+01  5.042475749E+01 -2.401054494E+02  2.518371191E+02  3.814697266E-06  0.00000E+00  9.000E+00
#rwgt            1           1   4.2676786856737307E-002           6      386959           0
</event>
<event>
      5   9999  3.79277E-02  6.50895E+01 -1.00000E+00  1.32841E-01
      21    -1     0     0   511   501  0.000000000E+00  0.000000000E+00  6.344638433E+02  6.344638433E+02  0.000000000E+00  0.00000E+00  9.000E+00
      21    -1     0     0   501   502  0.000000000E+00  0.000000000E+00 -3.073564793E+02  3.073564793E+02  0.000000000E+00  0.00000E+00  9.000E+00
      25     1     1     2     0     0 -8.546864958E+01 -4.866368303E+01  1.534225610E+01  1.597918300E+02  1.250000000E+02  0.00000E+00  9.000E+00
      25     1     1     2     0     0  2.320568000E+01  2.969095646E+01 -2.148494109E+02  2.514066941E+02  1.250000000E+02  0.00000E+00  9.000E+00
      21     1     1     2   511   502  6.226296958E+01  1.897272658E+01  5.266145188E+02  5.306217986E+02  7.629394531E-06  0.00000E+00  9.000E+00
#rwgt            1           1   4.9503527391587997E-002           6      387051           0
</event>
<event>
      5   9999  3.79277E-02  9.79717E+01 -1.00000E+00  1.24230E-01
      21    -1     0     0   502   501  0.000000000E+00  0.000000000E+00  1.218368557E+03  1.218368557E+03  0.000000000E+00  0.00000E+00  9.000E+00
      21    -1     0     0   512   502  0.000000000E+00  0.000000000E+00 -3.707532994E+02  3.707532994E+02  0.000000000E+00  0.00000E+00  9.000E+00
      25     1     1     2     0     0 -1.836570812E+02 -2.359912526E+02  2.143708002E+02  3.885892880E+02  1.250000000E+02  0.00000E+00  9.000E+00
      25     1     1     2     0     0  2.250260210E+02  1.471821282E+02  8.834209584E+02  9.318566836E+02  1.250000000E+02  0.00000E+00  9.000E+00
      21     1     1     2   512   501 -4.136893986E+01  8.880912439E+01 -2.501765007E+02  2.686758851E+02  6.031565972E-06  0.00000E+00  9.000E+00
#rwgt            1           1   3.2153935751615591E-002           6      387173           0
</event>
<event>
      5   9999  3.79277E-02  1.67733E+01 -1.00000E+00  1.72931E-01
      21    -1     0     0   502   511  0.000000000E+00  0.000000000E+00  2.202435663E+02  2.202435663E+02  0.000000000E+00  0.00000E+00  9.000E+00
      21    -1     0     0   501   502  0.000000000E+00  0.000000000E+00 -3.477595820E+02  3.477595820E+02  0.000000000E+00  0.00000E+00  9.000E+00
      25     1     1     2     0     0 -8.483561861E+01 -1.477246198E+02  7.756566152E+01  2.250801576E+02  1.250000000E+02  0.00000E+00  9.000E+00
      25     1     1     2     0     0  9.649712317E+01  1.597807995E+02 -2.242728495E+02  3.174348905E+02  1.250000000E+02  0.00000E+00  9.000E+00
      21     1     1     2   501   511 -1.166150455E+01 -1.205617973E+01  1.919117228E+01  2.548810019E+01  3.371747881E-07  0.00000E+00  9.000E+00
#rwgt            1           1   2.9651702316407451E-002           6      387277           0
</event>
<event>
      5   9999  3.79277E-02  1.91624E+01 -1.00000E+00  1.67917E-01
      21    -1     0     0   512   501  0.000000000E+00  0.000000000E+00  1.759859201E+02  1.759859201E+02  0.000000000E+00  0.00000E+00  9.000E+00
      21    -1     0     0   501   502  0.000000000E+00  0.000000000E+00 -4.661141558E+02  4.661141558E+02  0.000000000E+00  0.00000E+00  9.000E+00
      25     1     1     2     0     0  8.224424383E+01  9.307850264E+01 -3.383445145E+01  1.794366000E+02  1.250000000E+02  0.00000E+00  9.000E+00
      25     1     1     2     0     0 -6.407318677E+01 -9.916223477E+01 -3.377429374E+02  3.789905194E+02  1.250000000E+02  0.00000E+00  9.000E+00
      21     1     1     2   512   502 -1.817105706E+01  6.083732122E+00  8.144915313E+01  8.367295655E+01  9.536743164E-07  0.00000E+00  9.000E+00
#rwgt            1           1   3.4101598287373552E-002           6      387452           0
</event>
<event>
      5   9999  3.79277E-02  5.94362E+01 -1.00000E+00  1.34923E-01
      21    -1     0     0   502   501  0.000000000E+00  0.000000000E+00  5.949046335E+02  5.949046335E+02  0.000000000E+00  0.00000E+00  9.000E+00
      21    -1     0     0   501   511  0.000000000E+00  0.000000000E+00 -2.085942321E+02  2.085942321E+02  0.000000000E+00  0.00000E+00  9.000E+00
      25     1     1     2     0     0  1.297419684E+02 -7.284387324E+01  4.728128276E+02  5.111909410E+02  1.250000000E+02  0.00000E+00  9.000E+00
      25     1     1     2     0     0 -1.741874158E+02  3.338163556E+01 -5.036913041E+01  2.227501711E+02  1.250000000E+02  0.00000E+00  9.000E+00
      21     1     1     2   502   511  4.444544743E+01  3.946223768E+01 -3.613329579E+01  6.955775345E+01  4.768371582E-07  0.00000E+00  9.000E+00
#rwgt            1           1   3.1991311114479580E-002           6      387681           0
</event>
<event>
      5   9999  3.79277E-02  4.52306E+01 -1.00000E+00  1.41606E-01
      21    -1     0     0   502   501  0.000000000E+00  0.000000000E+00  2.287852893E+02  2.287852893E+02  0.000000000E+00  0.00000E+00  9.000E+00
      21    -1     0     0   512   502  0.000000000E+00  0.000000000E+00 -2.132959656E+02  2.132959656E+02  0.000000000E+00  0.00000E+00  9.000E+00
      25     1     1     2     0     0  9.723708498E+00 -1.085595484E+02 -5.127386118E+01  1.735907109E+02  1.250000000E+02  0.00000E+00  9.000E+00
      25     1     1     2     0     0  2.113116143E+01  1.416320218E+02  9.767195675E+01  2.137076665E+02  1.250000000E+02  0.00000E+00  9.000E+00
      21     1     1     2   512   501 -3.085486993E+01 -3.307247337E+01 -3.090877181E+01  5.478287751E+01  8.259061849E-07  0.00000E+00  9.000E+00
#rwgt            1           1   4.0808469620274387E-002           6      387840           0
</event>
<event>
      5   9999  3.79277E-02  2.79662E+02 -1.00000E+00  1.06592E-01
      21    -1     0     0   502   501  0.000000000E+00  0.000000000E+00  7.004463133E+02  7.004463133E+02  0.000000000E+00  0.00000E+00  9.000E+00
      21    -1     0     0   511   502  0.000000000E+00  0.000000000E+00 -2.917447948E+02  2.917447948E+02  0.000000000E+00  0.00000E+00  9.000E+00
      25     1     1     2     0     0 -1.909671207E+02 -1.964411046E+02  2.828253935E+01  3.024606599E+02  1.250000000E+02  0.00000E+00  9.000E+00
      25     1     1     2     0     0  1.300402904E+02 -7.650391847E+01  3.593282440E+02  4.092738858E+02  1.250000000E+02  0.00000E+00  9.000E+00
      21     1     1     2   511   501  6.092683024E+01  2.729450231E+02  2.109073519E+01  2.804565623E+02  3.286373318E-06  0.00000E+00  9.000E+00
#rwgt            2          11   1.5515277776535414E-003           6      388008           0
</event>
<event>
      5   9999 -3.79277E-02  1.95252E+01 -1.00000E+00  1.67235E-01
      21    -1     0     0   502   512  0.000000000E+00  0.000000000E+00  3.966631881E+02  3.966631881E+02  0.000000000E+00  0.00000E+00  9.000E+00
      21    -1     0     0   501   502  0.000000000E+00  0.000000000E+00 -1.112351016E+02  1.112351016E+02  0.000000000E+00  0.00000E+00  9.000E+00
      25     1     1     2     0     0 -1.177799586E+01  1.200147597E+02  2.502103892E+02  3.045857886E+02  1.250000000E+02  0.00000E+00  9.000E+00
      25     1     1     2     0     0  3.107151690E+01 -1.170157997E+02  1.416007943E+01  1.745956597E+02  1.250000000E+02  0.00000E+00  9.000E+00
      21     1     1     2   501   512 -1.929352104E+01 -2.998960073E+00  2.105761774E+01  2.871684141E+01  0.000000000E+00  0.00000E+00  9.000E+00
#rwgt            1           1  -8.2640379303725309E-002           6      388223           0
</event>
<event>
      5   9999  3.79277E-02  3.49730E+00 -1.00000E+00  2.78017E-01
      21    -1     0     0   502   501  0.000000000E+00  0.000000000E+00  9.575643872E+02  9.575643872E+02  0.000000000E+00  0.00000E+00  9.000E+00
      21    -1     0     0   501   511  0.000000000E+00  0.000000000E+00 -5.008680671E+01  5.008680671E+01  0.000000000E+00  0.00000E+00  9.000E+00
      25     1     1     2     0     0  1.313457219E+02  2.023275192E+01  6.200347071E+02  6.463196585E+02  1.250000000E+02  0.00000E+00  9.000E+00
      25     1     1     2     0     0 -1.346093246E+02 -1.897576938E+01  2.977924440E+02  3.504070344E+02  1.250000000E+02  0.00000E+00  9.000E+00
      21     1     1     2   502   511  3.263602693E+00 -1.256982545E+00 -1.034957067E+01  1.092450093E+01  5.717076687E-07  0.00000E+00  9.000E+00
#rwgt            1           1   2.3234792673733941E-002           6      388481           0
</event>
<event>
      5   9999 -3.79277E-02  2.38728E+01 -1.00000E+00  1.60266E-01
      21    -1     0     0   502   501  0.000000000E+00  0.000000000E+00  3.557465093E+02  3.557465093E+02  0.000000000E+00  0.00000E+00  9.000E+00
      21    -1     0     0   512   502  0.000000000E+00  0.000000000E+00 -1.730065478E+02  1.730065478E+02  0.000000000E+00  0.00000E+00  9.000E+00
      25     1     1     2     0     0 -1.664463026E+02 -5.118763968E+01  1.387019541E+02  2.553189734E+02  1.250000000E+02  0.00000E+00  9.000E+00
      25     1     1     2     0     0  1.446949322E+02  6.102574126E+01  9.128642345E+01  2.204971102E+02  1.250000000E+02  0.00000E+00  9.000E+00
      21     1     1     2   512   501  2.175137039E+01 -9.838101587E+00 -4.724841597E+01  5.293697354E+01  1.348699152E-06  0.00000E+00  9.000E+00
#rwgt            1           1  -2.0298532988593115E-002           6      388927           0
</event>
<event>
      5   9999  3.79277E-02  2.16698E+02 -1.00000E+00  1.10395E-01
      21    -1     0     0   502   511  0.000000000E+00  0.000000000E+00  3.020119187E+02  3.020119187E+02  0.000000000E+00  0.00000E+00  9.000E+00
      21    -1     0     0   501   502  0.000000000E+00  0.000000000E+00 -5.948949775E+02  5.948949775E+02  0.000000000E+00  0.00000E+00  9.000E+00
      25     1     1     2     0     0 -4.540535666E+01 -6.969622849E+01 -4.081959490E+02  4.349346428E+02  1.250000000E+02  0.00000E+00  9.000E+00
      25     1     1     2     0     0 -1.709921085E+02  8.111342798E+01  2.875233357E+01  2.286249900E+02  1.250000000E+02  0.00000E+00  9.000E+00
      21     1     1     2   501   511  2.163974652E+02 -1.141719949E+01  8.656055663E+01  2.333472634E+02  4.473129043E-06  0.00000E+00  9.000E+00
#rwgt            1           1   4.4502465255120818E-002           6      389078           0
</event>
<event>
      5   9999  3.79277E-02  5.26019E+01 -1.00000E+00  1.37830E-01
      21    -1     0     0   512   501  0.000000000E+00  0.000000000E+00  1.659419760E+03  1.659419760E+03  0.000000000E+00  0.00000E+00  9.000E+00
      21    -1     0     0   501   502  0.000000000E+00  0.000000000E+00 -5.645543716E+01  5.645543716E+01  0.000000000E+00  0.00000E+00  9.000E+00
      25     1     1     2     0     0 -2.357810564E+02  1.057561532E+01  6.541198682E+02  7.065425339E+02  1.250000000E+02  0.00000E+00  9.000E+00
      25     1     1     2     0     0  2.538834333E+02 -5.996456043E+01  7.563190242E+02  8.097505867E+02  1.250000000E+02  0.00000E+00  9.000E+00
      21     1     1     2   512   502 -1.810237688E+01  4.938894511E+01  1.925254305E+02  1.995820767E+02  2.697398305E-06  0.00000E+00  9.000E+00
#rwgt            1           1  0.26912616105465137                6      389147           0
</event>
<event>
      5   9999  3.79277E-02  1.01078E+01 -1.00000E+00  1.95220E-01
      21    -1     0     0   502   501  0.000000000E+00  0.000000000E+00  1.544164866E+02  1.544164866E+02  0.000000000E+00  0.00000E+00  9.000E+00
      21    -1     0     0   511   502  0.000000000E+00  0.000000000E+00 -2.921391839E+02  2.921391839E+02  0.000000000E+00  0.00000E+00  9.000E+00
      25     1     1     2     0     0  4.851416329E+01  1.216829680E+02 -8.065060739E+01  1.982167733E+02  1.250000000E+02  0.00000E+00  9.000E+00
      25     1     1     2     0     0 -5.804620786E+01 -1.183202530E+02  8.645758832E+00  1.818482710E+02  1.250000000E+02  0.00000E+00  9.000E+00
      21     1     1     2   511   501  9.532044577E+00 -3.362714984E+00 -6.571784873E+01  6.649062616E+01  0.000000000E+00  0.00000E+00  9.000E+00
#rwgt            1           1   4.4118372719116117E-002           6      389247           0
</event>
<event>
      5   9999  3.79277E-02  9.88837E+01 -1.00000E+00  1.24048E-01
      21    -1     0     0   502   512  0.000000000E+00  0.000000000E+00  1.314277497E+02  1.314277497E+02  0.000000000E+00  0.00000E+00  9.000E+00
      21    -1     0     0   501   502  0.000000000E+00  0.000000000E+00 -6.666075863E+02  6.666075863E+02  0.000000000E+00  0.00000E+00  9.000E+00
      25     1     1     2     0     0  8.647693259E+01 -6.625621549E+01 -5.387284219E+02  5.636678619E+02  1.250000000E+02  0.00000E+00  9.000E+00
      25     1     1     2     0     0 -2.614328803E+01 -1.208815185E+01 -2.657062916E+01  1.309984475E+02  1.250000000E+02  0.00000E+00  9.000E+00
      21     1     1     2   501   512 -6.033364456E+01  7.834436734E+01  3.011921451E+01  1.033690265E+02  1.507891493E-06  0.00000E+00  9.000E+00
#rwgt            1           1   4.6266987170031817E-002           6      389625           0
</event>
<event>
      5   9999 -3.79277E-02  4.88186E+01 -1.00000E+00  1.39671E-01
      21    -1     0     0   511   501  0.000000000E+00  0.000000000E+00  1.978077756E+02  1.978077756E+02  0.000000000E+00  0.00000E+00  9.000E+00
      21    -1     0     0   501   502  0.000000000E+00  0.000000000E+00 -7.420488962E+02  7.420488962E+02  0.000000000E+00  0.00000E+00  9.000E+00
      25     1     1     2     0     0  1.215690466E+02 -7.993661111E+01 -1.349973188E+02  2.345595254E+02  1.250000000E+02  0.00000E+00  9.000E+00
      25     1     1     2     0     0 -1.699204362E+02  7.319868890E+01 -5.299633620E+02  5.750801403E+02  1.250000000E+02  0.00000E+00  9.000E+00
      21     1     1     2   511   502  4.835138953E+01  6.737922210E+00  1.207195602E+02  1.302170061E+02  2.697398305E-06  0.00000E+00  9.000E+00
#rwgt            1           1 -0.28428425983714661                6      389724           0
</event>
<event>
      5   9999  3.79277E-02  1.42097E+01 -1.00000E+00  1.79627E-01
      21    -1     0     0   502   501  0.000000000E+00  0.000000000E+00  2.839476565E+03  2.839476565E+03  0.000000000E+00  0.00000E+00  9.000E+00
      21    -1     0     0   501   512  0.000000000E+00  0.000000000E+00 -1.965884012E+01  1.965884012E+01  0.000000000E+00  0.00000E+00  9.000E+00
      25     1     1     2     0     0  1.303325463E+02 -2.946931001E+01  5.535126010E+02  5.829718796E+02  1.250000000E+02  0.00000E+00  9.000E+00
      25     1     1     2     0     0 -1.226651104E+02  4.143283984E+01  2.228843986E+03  2.236097923E+03  1.250000000E+02  0.00000E+00  9.000E+00
      21     1     1     2   502   512 -7.667435836E+00 -1.196352983E+01  3.746113743E+01  4.006560165E+01  1.066240300E-06  0.00000E+00  9.000E+00
#rwgt            1           1   4.2430898334853910E-002           6      389870           0
</event>
<event>
      5   9999  3.79277E-02  8.21635E+01 -1.00000E+00  1.27791E-01
      21    -1     0     0   502   511  0.000000000E+00  0.000000000E+00  1.318084100E+02  1.318084100E+02  0.000000000E+00  0.00000E+00  9.000E+00
      21    -1     0     0   501   502  0.000000000E+00  0.000000000E+00 -1.073986070E+03  1.073986070E+03  0.000000000E+00  0.00000E+00  9.000E+00
      25     1     1     2     0     0  8.246098722E+01  1.609702928E+02 -5.497009130E+01  2.266229479E+02  1.250000000E+02  0.00000E+00  9.000E+00
      25     1     1     2     0     0 -4.127625221E+01 -2.320664246E+02 -8.463550833E+02  8.874122387E+02  1.250000000E+02  0.00000E+00  9.000E+00
      21     1     1     2   501   511 -4.118473501E+01  7.109613180E+01 -4.085248554E+01  9.175929343E+01  2.286830675E-06  0.00000E+00  9.000E+00
#rwgt            1           1   5.1072757606561658E-002           6      390182           0
</event>
<event>
      5   9999  3.79277E-02  9.75227E+00 -1.00000E+00  1.97025E-01
      21    -1     0     0   502   512  0.000000000E+00  0.000000000E+00  2.189907987E+02  2.189907987E+02  0.000000000E+00  0.00000E+00  9.000E+00
      21    -1     0     0   501   502  0.000000000E+00  0.000000000E+00 -2.866333912E+02  2.866333912E+02  0.000000000E+00  0.00000E+00  9.000E+00
      25     1     1     2     0     0  1.001295559E+02  6.168425872E+01 -2.157475546E+02  2.756862040E+02  1.250000000E+02  0.00000E+00  9.000E+00
      25     1     1     2     0     0 -9.039012846E+01 -6.118394612E+01  1.373088187E+02  2.153893272E+02  1.250000000E+02  0.00000E+00  9.000E+00
      21     1     1     2   501   512 -9.739427475E+00 -5.003125926E-01  1.079614341E+01  1.454865880E+01  1.192092896E-07  0.00000E+00  9.000E+00
#rwgt            1           1   1.7537549916544132E-002           6      390237           0
</event>
<event>
      5   9999  3.79277E-02  1.52605E+02 -1.00000E+00  1.16098E-01
      21    -1     0     0   511   501  0.000000000E+00  0.000000000E+00  3.565986173E+02  3.565986173E+02  0.000000000E+00  0.00000E+00  9.000E+00
      21    -1     0     0   501   502  0.000000000E+00  0.000000000E+00 -4.248461771E+02  4.248461771E+02  0.000000000E+00  0.00000E+00  9.000E+00
      25     1     1     2     0     0 -5.679499349E+01  5.515446438E+01 -2.510979741E+02  2.914496163E+02  1.250000000E+02  0.00000E+00  9.000E+00
      25     1     1     2     0     0  1.098728244E+02 -1.982319074E+02  9.445267417E+00  2.590022003E+02  1.250000000E+02  0.00000E+00  9.000E+00
      21     1     1     2   511   502 -5.307783094E+01  1.430774430E+02  1.734051469E+02  2.309929778E+02  0.000000000E+00  0.00000E+00  9.000E+00
#rwgt            2          11   1.7184183005636172E-003           6      390561           0
</event>
<event>
      5   9999  3.79277E-02  2.74702E+01 -1.00000E+00  1.55746E-01
      21    -1     0     0   502   501  0.000000000E+00  0.000000000E+00  4.303951727E+01  4.303951727E+01  0.000000000E+00  0.00000E+00  9.000E+00
      21    -1     0     0   512   502  0.000000000E+00  0.000000000E+00 -1.293086237E+03  1.293086237E+03  0.000000000E+00  0.00000E+00  9.000E+00
      25     1     1     2     0     0  7.711433213E+01 -3.896092159E+01 -1.305701476E+02  2.003450450E+02  1.250000000E+02  0.00000E+00  9.000E+00
      25     1     1     2     0     0 -7.538857678E+01  6.637687328E+01 -1.022135105E+03  1.034637376E+03  1.250000000E+02  0.00000E+00  9.000E+00
      21     1     1     2   512   501 -1.725755357E+00 -2.741595169E+01 -9.734146678E+01  1.011433329E+02  2.336015456E-06  0.00000E+00  9.000E+00
#rwgt            1           1   4.4246976358234449E-002           6      390686           0
</event>
<event>
      5   9999  3.79277E-02  6.13811E+01 -1.00000E+00  1.34177E-01
      21    -1     0     0   502   501  0.000000000E+00  0.000000000E+00  5.513545853E+01  5.513545853E+01  0.000000000E+00  0.00000E+00  9.000E+00
       1    -1     0     0   501     0  0.000000000E+00  0.000000000E+00 -2.820754374E+03  2.820754374E+03  0.000000000E+00  0.00000E+00  9.000E+00
      25     1     1     2     0     0 -5.855020256E+01  1.300088510E+02 -1.547058563E+02  2.447229649E+02  1.250000000E+02  0.00000E+00  9.000E+00
      25     1     1     2     0     0  1.189080843E+02 -1.188480742E+02 -1.147493290E+03  1.166460392E+03  1.250000000E+02  0.00000E+00  9.000E+00
       1     1     1     2   502     0 -6.035788176E+01 -1.116077677E+01 -1.463419770E+03  1.464706476E+03  0.000000000E+00  0.00000E+00  9.000E+00
#rwgt            1           1   4.8131805968719368E-002           6      390855           0
</event>
<event>
      5   9999  3.79277E-02  5.50312E+01 -1.00000E+00  1.36741E-01
      21    -1     0     0   502   501  0.000000000E+00  0.000000000E+00  3.666350800E+02  3.666350800E+02  0.000000000E+00  0.00000E+00  9.000E+00
      21    -1     0     0   501   511  0.000000000E+00  0.000000000E+00 -9.126964613E+02  9.126964613E+02  0.000000000E+00  0.00000E+00  9.000E+00
      25     1     1     2     0     0 -2.187652042E+00 -8.007082092E+01  5.366535468E+01  1.578641583E+02  1.250000000E+02  0.00000E+00  9.000E+00
      25     1     1     2     0     0 -5.182391549E+01  6.952636496E+01  2.377099570E+02  2.822244803E+02  1.250000000E+02  0.00000E+00  9.000E+00
      21     1     1     2   502   511  5.401156754E+01  1.054445596E+01 -8.374366929E+02  8.392429026E+02  0.000000000E+00  0.00000E+00  9.000E+00
#rwgt            1           1  0.10813772997343019                6      391128           0
</event>
<event>
      5   9999  3.79277E-02  1.68264E+02 -1.00000E+00  1.14450E-01
      21    -1     0     0   502   512  0.000000000E+00  0.000000000E+00  1.205726633E+02  1.205726633E+02  0.000000000E+00  0.00000E+00  9.000E+00
      21    -1     0     0   501   502  0.000000000E+00  0.000000000E+00 -9.315618434E+02  9.315618434E+02  0.000000000E+00  0.00000E+00  9.000E+00
      25     1     1     2     0     0 -1.936982056E+02 -9.838265619E+01 -5.438315573E+02  5.988120779E+02  1.250000000E+02  0.00000E+00  9.000E+00
      25     1     1     2     0     0  3.008404114E+01  1.376678166E+02 -8.923346826E+01  2.084348558E+02  1.250000000E+02  0.00000E+00  9.000E+00
      21     1     1     2   501   512  1.636141645E+02 -3.928516038E+01 -1.779241545E+02  2.448875730E+02  1.907348633E-06  0.00000E+00  9.000E+00
#rwgt            1           1   3.4050988239443726E-002           6      391300           0
</event>
<event>
      5   9999  3.79277E-02  1.42593E+01 -1.00000E+00  1.79481E-01
      21    -1     0     0   502   501  0.000000000E+00  0.000000000E+00  2.452150842E+03  2.452150842E+03  0.000000000E+00  0.00000E+00  9.000E+00
       2    -1     0     0   501     0  0.000000000E+00  0.000000000E+00 -3.041565252E+02  3.041565252E+02  0.000000000E+00  0.00000E+00  9.000E+00
      25     1     1     2     0     0 -5.714998216E+01 -7.266634496E+01  3.658154899E+02  3.974826925E+02  1.250000000E+02  0.00000E+00  9.000E+00
      25     1     1     2     0     0  7.031614212E+01  6.719093437E+01  2.067294584E+03  2.073352570E+03  1.250000000E+02  0.00000E+00  9.000E+00
       2     1     1     2   502     0 -1.316615996E+01  5.475410586E+00 -2.851157570E+02  2.854721051E+02  9.344061824E-06  0.00000E+00  9.000E+00
#rwgt            1           1   8.4532399832633082E-002           6      391439           0
</event>
<event>
      5   9999  3.79277E-02  2.66027E+02 -1.00000E+00  1.07316E-01
      21    -1     0     0   511   501  0.000000000E+00  0.000000000E+00  2.382986386E+03  2.382986386E+03  0.000000000E+00  0.00000E+00  9.000E+00
      21    -1     0     0   501   502  0.000000000E+00  0.000000000E+00 -3.085560943E+02  3.085560943E+02  0.000000000E+00  0.00000E+00  9.000E+00
      25     1     1     2     0     0 -1.658486258E+02  2.054823601E+02  2.868879115E+02  4.094611590E+02  1.250000000E+02  0.00000E+00  9.000E+00
      25     1     1     2     0     0 -6.276568585E+01 -6.944575636E+01 -2.128968432E+02  2.640308888E+02  1.250000000E+02  0.00000E+00  9.000E+00
      21     1     1     2   511   502  2.286143116E+02 -1.360366038E+02  2.000439224E+03  2.018050433E+03  3.737624730E-05  0.00000E+00  9.000E+00
#rwgt            2          11   7.0596037207435998E-004           6      391749           0
</event>
<event>
      5   9999 -3.79277E-02  1.09375E+02 -1.00000E+00  1.22102E-01
      21    -1     0     0   502   501  0.000000000E+00  0.000000000E+00  3.587332678E+02  3.587332678E+02  0.000000000E+00  0.00000E+00  9.000E+00
      21    -1     0     0   501   512  0.000000000E+00  0.000000000E+00 -1.305596677E+03  1.305596677E+03  0.000000000E+00  0.00000E+00  9.000E+00
      25     1     1     2     0     0  1.522370422E+02 -1.778418651E+01 -1.235074605E+01  1.981664332E+02  1.250000000E+02  0.00000E+00  9.000E+00
      25     1     1     2     0     0 -6.200155329E+01  7.959356084E+01  2.387793866E+02  2.877845080E+02  1.250000000E+02  0.00000E+00  9.000E+00
      21     1     1     2   502   512 -9.023548891E+01 -6.180937432E+01 -1.173292050E+03  1.178379003E+03  1.525878906E-05  0.00000E+00  9.000E+00
#rwgt            1           1  -5.3660349781790009E-003           6      391769           0
</event>
<event>
      5   9999  3.79277E-02  7.11219E+01 -1.00000E+00  1.30872E-01
      21    -1     0     0   511   501  0.000000000E+00  0.000000000E+00  4.200864994E+02  4.200864994E+02  0.000000000E+00  0.00000E+00  9.000E+00
      21    -1     0     0   501   502  0.000000000E+00  0.000000000E+00 -2.363746067E+02  2.363746067E+02  0.000000000E+00  0.00000E+00  9.000E+00
      25     1     1     2     0     0  1.210998584E+01 -1.259063571E+02  2.005712499E+02  2.680538916E+02  1.250000000E+02  0.00000E+00  9.000E+00
      25     1     1     2     0     0 -6.818825292E+01  1.696505758E+02 -1.284805029E+02  2.560531104E+02  1.250000000E+02  0.00000E+00  9.000E+00
      21     1     1     2   511   502  5.607826708E+01 -4.374421872E+01  1.116211458E+02  1.323541042E+02  1.907348633E-06  0.00000E+00  9.000E+00
#rwgt            1           1   3.8981347283767398E-002           6      391827           0
</event>
<event>
      5   9999  3.79277E-02  4.03587E+01 -1.00000E+00  1.44600E-01
      21    -1     0     0   502   501  0.000000000E+00  0.000000000E+00  2.864982382E+02  2.864982382E+02  0.000000000E+00  0.00000E+00  9.000E+00
      21    -1     0     0   512   502  0.000000000E+00  0.000000000E+00 -3.525576044E+02  3.525576044E+02  0.000000000E+00  0.00000E+00  9.000E+00
      25     1     1     2     0     0 -4.564025086E+01 -1.372651592E+02  6.403353939E+01  2.016185770E+02  1.250000000E+02  0.00000E+00  9.000E+00
      25     1     1     2     0     0  1.335668492E+01  1.614848345E+02  8.279191169E+01  2.207606248E+02  1.250000000E+02  0.00000E+00  9.000E+00
      21     1     1     2   512   501  3.228356594E+01 -2.421967530E+01 -2.128848173E+02  2.166766409E+02  2.697398305E-06  0.00000E+00  9.000E+00
#rwgt            1           1   3.7191705390310088E-002           6      391911           0
</event>
<event>
      5   9999  3.79277E-02  1.63466E+01 -1.00000E+00  1.73937E-01
      21    -1     0     0   502   511  0.000000000E+00  0.000000000E+00  6.974087572E+01  6.974087572E+01  0.000000000E+00  0.00000E+00  9.000E+00
      21    -1     0     0   501   502  0.000000000E+00  0.000000000E+00 -1.152165078E+03  1.152165078E+03  0.000000000E+00  0.00000E+00  9.000E+00
      25     1     1     2     0     0  1.968088376E+02  2.083136346E+01 -2.894732925E+02  3.722733556E+02  1.250000000E+02  0.00000E+00  9.000E+00
      25     1     1     2     0     0 -2.128770274E+02 -1.782746623E+01 -7.954765572E+02  8.330920720E+02  1.250000000E+02  0.00000E+00  9.000E+00
      21     1     1     2   501   511  1.606818984E+01 -3.003897227E+00  2.525647019E+00  1.654052648E+01  4.480271452E-07  0.00000E+00  9.000E+00
#rwgt            1           1   1.9627392354271817E-002           6      392011           0
</event>
<event>
      5   9999  3.79277E-02  4.67969E+01 -1.00000E+00  1.40736E-01
      21    -1     0     0   502   501  0.000000000E+00  0.000000000E+00  1.197509524E+03  1.197509524E+03  0.000000000E+00  0.00000E+00  9.000E+00
      21    -1     0     0   512   502  0.000000000E+00  0.000000000E+00 -1.421648570E+02  1.421648570E+02  0.000000000E+00  0.00000E+00  9.000E+00
      25     1     1     2     0     0  9.828271434E+01  1.854792276E+02  6.811779390E+02  7.236645772E+02  1.250000000E+02  0.00000E+00  9.000E+00
      25     1     1     2     0     0 -1.417384949E+02 -1.681141009E+02  4.561652035E+02  5.215973971E+02  1.250000000E+02  0.00000E+00  9.000E+00
      21     1     1     2   512   501  4.345578054E+01 -1.736512670E+01 -8.199847561E+01  9.441240644E+01  3.303624740E-06  0.00000E+00  9.000E+00
#rwgt            1           1  0.19083773280761246                6      392410           0
</event>
<event>
      5   9999  3.79277E-02  9.60315E+00 -1.00000E+00  1.97812E-01
      21    -1     0     0   511   501  0.000000000E+00  0.000000000E+00  4.629397834E+02  4.629397834E+02  0.000000000E+00  0.00000E+00  9.000E+00
      21    -1     0     0   501   502  0.000000000E+00  0.000000000E+00 -1.489235078E+02  1.489235078E+02  0.000000000E+00  0.00000E+00  9.000E+00
      25     1     1     2     0     0  8.651212433E+01 -1.837952239E+02  2.559441753E+02  3.498534734E+02  1.250000000E+02  0.00000E+00  9.000E+00
      25     1     1     2     0     0 -9.556672599E+01  1.805960578E+02  4.184511327E+01  2.431541665E+02  1.250000000E+02  0.00000E+00  9.000E+00
      21     1     1     2   511   502  9.054601659E+00  3.199166134E+00  1.622698710E+01  1.885565129E+01  2.384185791E-07  0.00000E+00  9.000E+00
#rwgt            1           1   3.4492984622180971E-002           6      392603           0
</event>
<event>
      5   9999  3.79277E-02  3.48165E+01 -1.00000E+00  1.48680E-01
      21    -1     0     0   502   501  0.000000000E+00  0.000000000E+00  5.873750932E+01  5.873750932E+01  0.000000000E+00  0.00000E+00  9.000E+00
      21    -1     0     0   501   512  0.000000000E+00  0.000000000E+00 -3.233916483E+03  3.233916483E+03  0.000000000E+00  0.00000E+00  9.000E+00
      25     1     1     2     0     0 -6.821611403E+01 -1.499572845E+02 -2.322827796E+02  3.109998634E+02  1.250000000E+02  0.00000E+00  9.000E+00
      25     1     1     2     0     0  1.014162243E+02  1.394719151E+02 -5.698353616E+02  6.083379037E+02  1.250000000E+02  0.00000E+00  9.000E+00
      21     1     1     2   502   512 -3.320011024E+01  1.048536931E+01 -2.373060833E+03  2.373316226E+03  4.315837288E-05  0.00000E+00  9.000E+00
#rwgt            1           1   4.5372928021316032E-002           6      392980           0
</event>
<event>
      5   9999  3.79277E-02  3.32367E+01 -1.00000E+00  1.50012E-01
      21    -1     0     0   502   501  0.000000000E+00  0.000000000E+00  3.314474796E+02  3.314474796E+02  0.000000000E+00  0.00000E+00  9.000E+00
      -1    -1     0     0     0   502  0.000000000E+00  0.000000000E+00 -5.406355267E+02  5.406355267E+02  0.000000000E+00  0.00000E+00  9.000E+00
      25     1     1     2     0     0  1.219026703E+01 -1.654828528E+02  3.068347102E+01  2.099991728E+02  1.250000000E+02  0.00000E+00  9.000E+00
      25     1     1     2     0     0  1.881172702E+01  1.535014877E+02  1.634437820E+02  2.574013553E+02  1.250000000E+02  0.00000E+00  9.000E+00
      -1     1     1     2     0   501 -3.100199405E+01  1.198136509E+01 -4.033153002E+02  4.046824781E+02  0.000000000E+00  0.00000E+00  9.000E+00
#rwgt            1           1  0.16596438710230943                6      393082           0
</event>
<event>
      5   9999  3.79277E-02  5.54345E+01 -1.00000E+00  1.36566E-01
      21    -1     0     0   502   501  0.000000000E+00  0.000000000E+00  1.964447307E+02  1.964447307E+02  0.000000000E+00  0.00000E+00  9.000E+00
      21    -1     0     0   511   502  0.000000000E+00  0.000000000E+00 -1.844616727E+02  1.844616727E+02  0.000000000E+00  0.00000E+00  9.000E+00
      25     1     1     2     0     0 -3.797358503E+01  6.406950612E+01 -5.012253755E+01  1.538966002E+02  1.250000000E+02  0.00000E+00  9.000E+00
      25     1     1     2     0     0 -4.009842630E+00 -1.002686463E+02  6.115901191E+01  1.715672026E+02  1.250000000E+02  0.00000E+00  9.000E+00
      21     1     1     2   511   501  4.198342766E+01  3.619914017E+01  9.465836755E-01  5.544260066E+01  8.685600412E-07  0.00000E+00  9.000E+00
#rwgt            1           1   5.3605495272607266E-002           6      393197           0
</event>
<event>
      5   9999  3.79277E-02  3.69715E+01 -1.00000E+00  1.46993E-01
      21    -1     0     0   502   512  0.000000000E+00  0.000000000E+00  4.439218384E+02  4.439218384E+02  0.000000000E+00  0.00000E+00  9.000E+00
      21    -1     0     0   501   502  0.000000000E+00  0.000000000E+00 -1.949602650E+02  1.949602650E+02  0.000000000E+00  0.00000E+00  9.000E+00
      25     1     1     2     0     0 -1.762836700E+02  4.213262846E+01  1.390735508E+02  2.604180163E+02  1.250000000E+02  0.00000E+00  9.000E+00
      25     1     1     2     0     0  1.395292771E+02 -4.613367450E+01 -6.199850245E+01  2.026463654E+02  1.250000000E+02  0.00000E+00  9.000E+00
      21     1     1     2   501   512  3.675439292E+01  4.001046043E+00  1.718865251E+02  1.758177217E+02  2.697398305E-06  0.00000E+00  9.000E+00
#rwgt            1           1  0.10646355927626609                6      393503           0
</event>
<event>
      5   9999  3.79277E-02  6.93533E+01 -1.00000E+00  1.31425E-01
      21    -1     0     0   502   501  0.000000000E+00  0.000000000E+00  7.574457766E+01  7.574457766E+01  0.000000000E+00  0.00000E+00  9.000E+00
      21    -1     0     0   501   511  0.000000000E+00  0.000000000E+00 -7.852891859E+02  7.852891859E+02  0.000000000E+00  0.00000E+00  9.000E+00
      25     1     1     2     0     0  5.841734756E+01 -1.426933568E+02 -1.539972725E+02  2.512252784E+02  1.250000000E+02  0.00000E+00  9.000E+00
      25     1     1     2     0     0 -7.938688095E+01  7.658615263E+01 -2.818703314E+02  3.274806855E+02  1.250000000E+02  0.00000E+00  9.000E+00
      21     1     1     2   502   511  2.096953340E+01  6.610720415E+01 -2.736770044E+02  2.823277997E+02  6.607249480E-06  0.00000E+00  9.000E+00
#rwgt            1           1   3.5605340406421507E-002           6      393581           0
</event>
<event>
      5   9999  3.79277E-02  3.35562E+01 -1.00000E+00  1.49736E-01
      21    -1     0     0   502   501  0.000000000E+00  0.000000000E+00  5.725529476E+02  5.725529476E+02  0.000000000E+00  0.00000E+00  9.000E+00
      21    -1     0     0   512   502  0.000000000E+00  0.000000000E+00 -7.659893583E+01  7.659893583E+01  0.000000000E+00  0.00000E+00  9.000E+00
      25     1     1     2     0     0 -1.033288184E+02  4.632041453E+01  3.995564251E+02  4.336966248E+02  1.250000000E+02  0.00000E+00  9.000E+00
      25     1     1     2     0     0  9.219261308E+01 -1.466596602E+01  9.324060764E+01  1.817508717E+02  1.250000000E+02  0.00000E+00  9.000E+00
      21     1     1     2   512   501  1.113620529E+01 -3.165444851E+01  3.156979004E+00  3.370438688E+01  6.122183378E-07  0.00000E+00  9.000E+00
#rwgt            1           1   4.6512741160328989E-002           6      393666           0
</event>
<event>
      5   9999  3.79277E-02  2.36317E+01 -1.00000E+00  1.60604E-01
      21    -1     0     0   502   501  0.000000000E+00  0.000000000E+00  3.654245929E+02  3.654245929E+02  0.000000000E+00  0.00000E+00  9.000E+00
      21    -1     0     0   511   502  0.000000000E+00  0.000000000E+00 -1.517015691E+02  1.517015691E+02  0.000000000E+00  0.00000E+00  9.000E+00
      25     1     1     2     0     0 -7.395936353E+01 -6.732685508E+01  5.293817959E+01  1.686129999E+02  1.250000000E+02  0.00000E+00  9.000E+00
      25     1     1     2     0     0  5.068547085E+01  6.323013713E+01  2.307531815E+02  2.746617883E+02  1.250000000E+02  0.00000E+00  9.000E+00
      21     1     1     2   511   501  2.327389267E+01  4.096717955E+00 -6.996833737E+01  7.385137380E+01  0.000000000E+00  0.00000E+00  9.000E+00
#rwgt            1           1   3.0158247385284408E-002           6      393857           0
</event>
<event>
      5   9999  3.79277E-02  1.44341E+02 -1.00000E+00  1.17059E-01
      21    -1     0     0   502   501  0.000000000E+00  0.000000000E+00  9.851136225E+02  9.851136225E+02  0.000000000E+00  0.00000E+00  9.000E+00
      21    -1     0     0   501   512  0.000000000E+00  0.000000000E+00 -1.616709092E+02  1.616709092E+02  0.000000000E+00  0.00000E+00  9.000E+00
      25     1     1     2     0     0  1.620980087E+02 -8.460979791E+00  4.034455977E+02  4.524828205E+02  1.250000000E+02  0.00000E+00  9.000E+00
      25     1     1     2     0     0 -3.043738355E+02 -1.586799387E+01  4.388502695E+02  5.487347119E+02  1.250000000E+02  0.00000E+00  9.000E+00
      21     1     1     2   502   512  1.422758269E+02  2.432897366E+01 -1.885315384E+01  1.455669993E+02  4.738475541E-06  0.00000E+00  9.000E+00
#rwgt            1           1   3.9158337957938036E-002           6      394004           0
</event>
<event>
      5   9999  3.79277E-02  1.57351E+01 -1.00000E+00  1.75448E-01
      21    -1     0     0   511   501  0.000000000E+00  0.000000000E+00  2.383421389E+02  2.383421389E+02  0.000000000E+00  0.00000E+00  9.000E+00
      21    -1     0     0   501   502  0.000000000E+00  0.000000000E+00 -1.208404023E+02  1.208404023E+02  0.000000000E+00  0.00000E+00  9.000E+00
      25     1     1     2     0     0  7.834608027E+01 -4.435992764E+01 -2.918106702E+00  1.540760423E+02  1.250000000E+02  0.00000E+00  9.000E+00
      25     1     1     2     0     0 -6.448350532E+01  5.180448595E+01  1.129867223E+02  1.877040933E+02  1.250000000E+02  0.00000E+00  9.000E+00
      21     1     1     2   511   502 -1.386257495E+01 -7.444558305E+00  7.433120974E+00  1.740240558E+01  2.795705652E-07  0.00000E+00  9.000E+00
#rwgt            1           1   3.5255504315910548E-002           6      394090           0
</event>
<event>
      5   9999  3.79277E-02  2.97326E+01 -1.00000E+00  1.53310E-01
      21    -1     0     0   502   512  0.000000000E+00  0.000000000E+00  5.909560566E+01  5.909560566E+01  0.000000000E+00  0.00000E+00  9.000E+00
      21    -1     0     0   501   502  0.000000000E+00  0.000000000E+00 -8.456896895E+02  8.456896895E+02  0.000000000E+00  0.00000E+00  9.000E+00
      25     1     1     2     0     0 -2.202771871E+01  4.556127735E+01 -2.200304418E+02  2.580686841E+02  1.250000000E+02  0.00000E+00  9.000E+00
      25     1     1     2     0     0 -1.636158486E+00 -2.755992150E+01 -5.931648883E+02  6.068210700E+02  1.250000000E+02  0.00000E+00  9.000E+00
      21     1     1     2   501   512  2.366387720E+01 -1.800135585E+01  2.660124625E+01  3.989554109E+01  1.784161275E-06  0.00000E+00  9.000E+00
#rwgt            1           1  0.11534830295190214                6      394257           0
</event>
<event>
      5   9999  3.79277E-02  5.51562E+01 -1.00000E+00  1.36686E-01
      21    -1     0     0   502   501  0.000000000E+00  0.000000000E+00  3.656092010E+02  3.656092010E+02  0.000000000E+00  0.00000E+00  9.000E+00
      21    -1     0     0   501   511  0.000000000E+00  0.000000000E+00 -1.667717483E+02  1.667717483E+02  0.000000000E+00  0.00000E+00  9.000E+00
      25     1     1     2     0     0 -7.966712063E+01  2.787982793E+01  2.644587717E+02  3.044463448E+02  1.250000000E+02  0.00000E+00  9.000E+00
      25     1     1     2     0     0  5.529656592E+01  2.160025656E+01  4.824455436E+00  1.384650016E+02  1.250000000E+02  0.00000E+00  9.000E+00
      21     1     1     2   502   511  2.437055471E+01 -4.948008449E+01 -7.044577446E+01  8.946960287E+01  9.536743164E-07  0.00000E+00  9.000E+00
#rwgt            1           1   4.2441985842927854E-002           6      394347           0
</event>
<event>
      5   9999  3.79277E-02  7.11546E+01 -1.00000E+00  1.30862E-01
      21    -1     0     0   502   501  0.000000000E+00  0.000000000E+00  5.963071882E+02  5.963071882E+02  0.000000000E+00  0.00000E+00  9.000E+00
      21    -1     0     0   501   512  0.000000000E+00  0.000000000E+00 -1.080434946E+02  1.080434946E+02  0.000000000E+00  0.00000E+00  9.000E+00
      25     1     1     2     0     0 -1.168453543E+02  5.216980944E+01  8.478200456E+01  1.979583646E+02  1.250000000E+02  0.00000E+00  9.000E+00
      25     1     1     2     0     0  1.849609091E+02 -3.159674166E+01  3.540796642E+02  4.197693421E+02  1.250000000E+02  0.00000E+00  9.000E+00
      21     1     1     2   502   512 -6.811555482E+01 -2.057306779E+01  4.940202491E+01  8.662297612E+01  9.536743164E-07  0.00000E+00  9.000E+00
#rwgt            1           1   4.0921286049076445E-002           6      394474           0
</event>
<event>
      5   9999  3.79277E-02  3.56759E+01 -1.00000E+00  1.47990E-01
      21    -1     0     0   511   501  0.000000000E+00  0.000000000E+00  2.896817031E+01  2.896817031E+01  0.000000000E+00  0.00000E+00  9.000E+00
      21    -1     0     0   501   502  0.000000000E+00  0.000000000E+00 -1.990844977E+03  1.990844977E+03  0.000000000E+00  0.00000E+00  9.000E+00
      25     1     1     2     0     0 -1.091411110E+02 -4.159257642E+01 -3.824773527E+02  4.189936155E+02  1.250000000E+02  0.00000E+00  9.000E+00
      25     1     1     2     0     0  1.437744343E+02  3.303070568E+01 -1.514218081E+03  1.526513515E+03  1.250000000E+02  0.00000E+00  9.000E+00
      21     1     1     2   511   502 -3.463332337E+01  8.561870735E+00 -6.518137366E+01  7.430601719E+01  2.697398305E-06  0.00000E+00  9.000E+00
#rwgt            1           1  0.11624179046330067                6      394541           0
</event>
<event>
      5   9999  3.79277E-02  8.18794E+00 -1.00000E+00  2.06361E-01
      21    -1     0     0   502   501  0.000000000E+00  0.000000000E+00  1.760760632E+02  1.760760632E+02  0.000000000E+00  0.00000E+00  9.000E+00
      21    -1     0     0   501   512  0.000000000E+00  0.000000000E+00 -4.170171996E+02  4.170171996E+02  0.000000000E+00  0.00000E+00  9.000E+00
      25     1     1     2     0     0  1.143372825E+02 -1.508483993E+02  3.707178673E+01  2.298424920E+02  1.250000000E+02  0.00000E+00  9.000E+00
      25     1     1     2     0     0 -1.062193382E+02  1.519167520E+02 -2.566667996E+02  3.403881510E+02  1.250000000E+02  0.00000E+00  9.000E+00
      21     1     1     2   502   512 -8.117944337E+00 -1.068352670E+00 -2.134612353E+01  2.286261987E+01  2.384185791E-07  0.00000E+00  9.000E+00
#rwgt            1           1   3.7458572771480819E-002           6      394764           0
</event>
<event>
      5   9999  3.79277E-02  1.11415E+01 -1.00000E+00  1.90483E-01
      21    -1     0     0   502   501  0.000000000E+00  0.000000000E+00  2.822904932E+01  2.822904932E+01  0.000000000E+00  0.00000E+00  9.000E+00
      21    -1     0     0   501   511  0.000000000E+00  0.000000000E+00 -1.390126073E+03  1.390126073E+03  0.000000000E+00  0.00000E+00  9.000E+00
      25     1     1     2     0     0 -9.034195523E+01 -7.171731696E+01 -7.616550356E+02  7.804155532E+02  1.250000000E+02  0.00000E+00  9.000E+00
      25     1     1     2     0     0  8.241924096E+01  6.388388712E+01 -3.349311252E+02  3.723948723E+02  1.250000000E+02  0.00000E+00  9.000E+00
      21     1     1     2   502   511  7.922714269E+00  7.833429844E+00 -2.653108633E+02  2.655446972E+02  3.814697266E-06  0.00000E+00  9.000E+00
#rwgt            1           1   4.7458337893956502E-002           6      395072           0
</event>
<event>
      5   9999  3.79277E-02  3.58489E+02 -1.00000E+00  1.03138E-01
      21    -1     0     0   502   501  0.000000000E+00  0.000000000E+00  4.796851007E+02  4.796851007E+02  0.000000000E+00  0.00000E+00  9.000E+00
      21    -1     0     0   512   502  0.000000000E+00  0.000000000E+00 -7.934741287E+02  7.934741287E+02  0.000000000E+00  0.00000E+00  9.000E+00
      25     1     1     2     0     0 -9.005915767E+01  2.769996154E+02 -3.638109085E+01  3.190423524E+02  1.250000000E+02  0.00000E+00  9.000E+00
      25     1     1     2     0     0 -1.725164863E+02 -3.293264223E+01  2.413088385E+02  3.235760382E+02  1.250000000E+02  0.00000E+00  9.000E+00
      21     1     1     2   512   501  2.625756440E+02 -2.440669732E+02 -5.187167755E+02  6.305408388E+02  1.078959322E-05  0.00000E+00  9.000E+00
#rwgt            2          11   1.1871729568979719E-003           6      395305           0
</event>
<event>
      5   9999  3.79277E-02  1.15731E+02 -1.00000E+00  1.21040E-01
      21    -1     0     0   502   501  0.000000000E+00  0.000000000E+00  1.786496439E+02  1.786496439E+02  0.000000000E+00  0.00000E+00  9.000E+00
       2    -1     0     0   501     0  0.000000000E+00  0.000000000E+00 -9.748202003E+02  9.748202003E+02  0.000000000E+00  0.00000E+00  9.000E+00
      25     1     1     2     0     0  3.201879805E+00 -2.031238240E+02 -7.802158784E+01  2.509619654E+02  1.250000000E+02  0.00000E+00  9.000E+00
      25     1     1     2     0     0  6.744651836E+01  1.114587100E+02 -5.612320198E+00  1.806338147E+02  1.250000000E+02  0.00000E+00  9.000E+00
       2     1     1     2   502     0 -7.064839817E+01  9.166511399E+01 -7.125366484E+02  7.218740642E+02  1.078959322E-05  0.00000E+00  9.000E+00
#rwgt            1           1   5.2118250164170876E-002           6      395325           0
</event>
<event>
      5   9999  3.79277E-02  7.29837E+01 -1.00000E+00  1.30309E-01
      -1    -1     0     0     0   501  0.000000000E+00  0.000000000E+00  1.728702325E+02  1.728702325E+02  0.000000000E+00  0.00000E+00  9.000E+00
      21    -1     0     0   501   502  0.000000000E+00  0.000000000E+00 -3.797646607E+02  3.797646607E+02  0.000000000E+00  0.00000E+00  9.000E+00
      25     1     1     2     0     0 -8.396068445E+01 -5.174977652E+01 -2.783826319E+02  3.207013028E+02  1.250000000E+02  0.00000E+00  9.000E+00
      25     1     1     2     0     0  1.100403130E+01  5.373692431E+01  1.065358728E+01  1.369205779E+02  1.250000000E+02  0.00000E+00  9.000E+00
      -1     1     1     2     0   502  7.295665316E+01 -1.987147789E+00  6.083461638E+01  9.501301251E+01  1.348699152E-06  0.00000E+00  9.000E+00
#rwgt            1           1   3.3482777971751830E-002           6      395397           0
</event>
<event>
      5   9999  3.79277E-02  5.93824E+01 -1.00000E+00  1.34944E-01
       1    -1     0     0   502     0  0.000000000E+00  0.000000000E+00  2.191330692E+03  2.191330692E+03  0.000000000E+00  0.00000E+00  9.000E+00
      21    -1     0     0   501   502  0.000000000E+00  0.000000000E+00 -8.292466630E+01  8.292466630E+01  0.000000000E+00  0.00000E+00  9.000E+00
      25     1     1     2     0     0  9.932857833E+01 -9.691610050E+00  3.750511578E+02  4.077357781E+02  1.250000000E+02  0.00000E+00  9.000E+00
      25     1     1     2     0     0 -8.393841124E+01 -4.766178170E+01  2.831930787E+01  1.604502587E+02  1.250000000E+02  0.00000E+00  9.000E+00
       1     1     1     2   501     0 -1.539016709E+01  5.735339175E+01  1.705035560E+03  1.706069321E+03  0.000000000E+00  0.00000E+00  9.000E+00
#rwgt            1           1   3.3034001715678600E-002           6      395556           0
</event>
<event>
      5   9999  3.79277E-02  1.53231E+01 -1.00000E+00  1.76516E-01
      21    -1     0     0   502   501  0.000000000E+00  0.000000000E+00  6.562661652E+01  6.562661652E+01  0.000000000E+00  0.00000E+00  9.000E+00
      21    -1     0     0   501   511  0.000000000E+00  0.000000000E+00 -6.443299069E+02  6.443299069E+02  0.000000000E+00  0.00000E+00  9.000E+00
      25     1     1     2     0     0  3.522354918E+01  9.562231465E+01 -8.861571478E+01  1.840164949E+02  1.250000000E+02  0.00000E+00  9.000E+00
      25     1     1     2     0     0 -2.747480942E+01 -8.240287100E+01 -3.115594336E+02  3.467555032E+02  1.250000000E+02  0.00000E+00  9.000E+00
      21     1     1     2   502   511 -7.748739760E+00 -1.321944365E+01 -1.785281419E+02  1.791845254E+02  1.907348633E-06  0.00000E+00  9.000E+00
#rwgt            1           1   4.7104362824984036E-002           6      395658           0
</event>
<event>
      5   9999  3.79277E-02  6.51385E+01 -1.00000E+00  1.32824E-01
      21    -1     0     0   502   501  0.000000000E+00  0.000000000E+00  6.137416826E+01  6.137416826E+01  0.000000000E+00  0.00000E+00  9.000E+00
       1    -1     0     0   501     0  0.000000000E+00  0.000000000E+00 -1.262942804E+03  1.262942804E+03  0.000000000E+00  0.00000E+00  9.000E+00
      25     1     1     2     0     0  1.266322881E+02  4.309211601E+01 -7.835283795E+02  8.046330768E+02  1.250000000E+02  0.00000E+00  9.000E+00
      25     1     1     2     0     0 -9.598918499E+01  1.438856021E+01 -8.364625560E+01  1.790046099E+02  1.250000000E+02  0.00000E+00  9.000E+00
       1     1     1     2   502     0 -3.064310309E+01 -5.748067622E+01 -3.343940005E+02  3.406792853E+02  0.000000000E+00  0.00000E+00  9.000E+00
#rwgt            1           1   3.9190412625064383E-002           6      395762           0
</event>
<event>
      5   9999  3.79277E-02  1.44483E+02 -1.00000E+00  1.17042E-01
      21    -1     0     0   502   501  0.000000000E+00  0.000000000E+00  6.259088624E+02  6.259088624E+02  0.000000000E+00  0.00000E+00  9.000E+00
      21    -1     0     0   511   502  0.000000000E+00  0.000000000E+00 -2.342771512E+02  2.342771512E+02  0.000000000E+00  0.00000E+00  9.000E+00
      25     1     1     2     0     0  9.966662469E+01 -1.350019228E+02 -9.168912506E+01  2.284531700E+02  1.250000000E+02  0.00000E+00  9.000E+00
      25     1     1     2     0     0 -1.625247046E+02  4.908533717E+00  4.323385534E+02  4.785185451E+02  1.250000000E+02  0.00000E+00  9.000E+00
      21     1     1     2   511   501  6.285807992E+01  1.300933891E+02  5.098228283E+01  1.532142985E+02  1.651812370E-06  0.00000E+00  9.000E+00
#rwgt            1           1   3.9915673857640666E-002           6      395858           0
</event>
<event>
      5   9999  3.79277E-02  3.64835E+01 -1.00000E+00  1.47363E-01
      21    -1     0     0   502   501  0.000000000E+00  0.000000000E+00  2.402248983E+02  2.402248983E+02  0.000000000E+00  0.00000E+00  9.000E+00
      21    -1     0     0   512   502  0.000000000E+00  0.000000000E+00 -3.135919880E+02  3.135919880E+02  0.000000000E+00  0.00000E+00  9.000E+00
      25     1     1     2     0     0  1.253075929E+02  7.061279937E+01  1.450235550E+02  2.394681435E+02  1.250000000E+02  0.00000E+00  9.000E+00
      25     1     1     2     0     0 -9.434078398E+01 -5.132276261E+01 -1.054218270E+02  1.956347901E+02  1.250000000E+02  0.00000E+00  9.000E+00
      21     1     1     2   512   501 -3.096680887E+01 -1.929003675E+01 -1.129688178E+02  1.187139527E+02  1.348699152E-06  0.00000E+00  9.000E+00
#rwgt            1           1   4.7351014937103725E-002           6      395944           0
</event>
<event>
      5   9999  3.79277E-02  9.10058E+01 -1.00000E+00  1.25697E-01
      21    -1     0     0   502   511  0.000000000E+00  0.000000000E+00  3.953629787E+02  3.953629787E+02  0.000000000E+00  0.00000E+00  9.000E+00
      21    -1     0     0   501   502  0.000000000E+00  0.000000000E+00 -1.299381900E+03  1.299381900E+03  0.000000000E+00  0.00000E+00  9.000E+00
      25     1     1     2     0     0  1.420393830E+02 -1.242269252E+00 -7.865278795E+02  8.089671407E+02  1.250000000E+02  0.00000E+00  9.000E+00
      25     1     1     2     0     0 -1.046186016E+02 -8.171394743E+01 -4.792408701E+02  5.127563092E+02  1.250000000E+02  0.00000E+00  9.000E+00
      21     1     1     2   501   511 -3.742078137E+01  8.295621668E+01  3.617498279E+02  3.730214293E+02  6.607249480E-06  0.00000E+00  9.000E+00
#rwgt            1           1   3.3561679940298558E-002           6      396207           0
</event>
<event>
      5   9999  3.79277E-02  8.58315E+01 -1.00000E+00  1.26888E-01
      21    -1     0     0   502   501  0.000000000E+00  0.000000000E+00  2.603229070E+02  2.603229070E+02  0.000000000E+00  0.00000E+00  9.000E+00
      21    -1     0     0   512   502  0.000000000E+00  0.000000000E+00 -3.716394542E+02  3.716394542E+02  0.000000000E+00  0.00000E+00  9.000E+00
      25     1     1     2     0     0  1.364874406E+01  4.410351340E+01 -1.206837536E+02  1.797803563E+02  1.250000000E+02  0.00000E+00  9.000E+00
      25     1     1     2     0     0 -1.459858010E+01  4.172272912E+01  2.018095293E+02  2.414663347E+02  1.250000000E+02  0.00000E+00  9.000E+00
      21     1     1     2   512   501  9.498360338E-01 -8.582624251E+01 -1.924423229E+02  2.107156703E+02  3.814697266E-06  0.00000E+00  9.000E+00
#rwgt            1           1   4.6883394101495696E-002           6      396506           0
</event>
<event>
      5   9999  3.79277E-02  1.77091E+01 -1.00000E+00  1.70850E-01
      21    -1     0     0   502   501  0.000000000E+00  0.000000000E+00  3.393417264E+02  3.393417264E+02  0.000000000E+00  0.00000E+00  9.000E+00
      21    -1     0     0   501   511  0.000000000E+00  0.000000000E+00 -1.478416272E+02  1.478416272E+02  0.000000000E+00  0.00000E+00  9.000E+00
      25     1     1     2     0     0 -5.312984546E+00  1.395717785E+02  1.034179464E+02  2.140765770E+02  1.250000000E+02  0.00000E+00  9.000E+00
      25     1     1     2     0     0  1.724326939E+01 -1.526592059E+02  1.235702915E+02  2.334454549E+02  1.250000000E+02  0.00000E+00  9.000E+00
      21     1     1     2   502   511 -1.193028485E+01  1.308742739E+01 -3.548813867E+01  3.966132169E+01  6.743495762E-07  0.00000E+00  9.000E+00
#rwgt            1           1   2.9000167088313114E-002           6      396615           0
</event>
<event>
      5   9999  3.79277E-02  2.29390E+01 -1.00000E+00  1.61601E-01
      21    -1     0     0   502   512  0.000000000E+00  0.000000000E+00  5.828648853E+02  5.828648853E+02  0.000000000E+00  0.00000E+00  9.000E+00
      21    -1     0     0   501   502  0.000000000E+00  0.000000000E+00 -1.095901145E+02  1.095901145E+02  0.000000000E+00  0.00000E+00  9.000E+00
      25     1     1     2     0     0 -1.384019597E+02 -2.454368913E+01  2.714935440E+01  1.900515261E+02  1.250000000E+02  0.00000E+00  9.000E+00
      25     1     1     2     0     0  1.603227687E+02  3.130209293E+01  4.198220249E+02  4.675026671E+02  1.250000000E+02  0.00000E+00  9.000E+00
      21     1     1     2   501   512 -2.192080900E+01 -6.758403800E+00  2.630339161E+01  3.490080657E+01  3.371747881E-07  0.00000E+00  9.000E+00
#rwgt            1           1   4.0432419824398720E-002           6      396793           0
</event>
<event>
      5   9999  3.79277E-02  1.21533E+01 -1.00000E+00  1.86450E-01
      21    -1     0     0   502   501  0.000000000E+00  0.000000000E+00  1.283842950E+02  1.283842950E+02  0.000000000E+00  0.00000E+00  9.000E+00
      21    -1     0     0   501   511  0.000000000E+00  0.000000000E+00 -2.995541618E+02  2.995541618E+02  0.000000000E+00  0.00000E+00  9.000E+00
      25     1     1     2     0     0 -6.254335871E+00 -3.659766184E+01  7.049779139E+01  1.482344230E+02  1.250000000E+02  0.00000E+00  9.000E+00
      25     1     1     2     0     0  7.383012299E-01  2.576830666E+01 -2.094827717E+02  2.453010036E+02  1.250000000E+02  0.00000E+00  9.000E+00
      21     1     1     2   502   511  5.516034641E+00  1.082935519E+01 -3.218488651E+01  3.440303027E+01  0.000000000E+00  0.00000E+00  9.000E+00
#rwgt            1           1   3.0067891626762832E-002           6      397011           0
</event>
<event>
      5   9999  3.79277E-02  2.84048E+01 -1.00000E+00  1.54707E-01
      21    -1     0     0   502   501  0.000000000E+00  0.000000000E+00  4.960107766E+01  4.960107766E+01  0.000000000E+00  0.00000E+00  9.000E+00
      21    -1     0     0   501   512  0.000000000E+00  0.000000000E+00 -9.019275969E+02  9.019275969E+02  0.000000000E+00  0.00000E+00  9.000E+00
      25     1     1     2     0     0  5.403092424E+01  1.794385330E+01 -7.110846202E+01  1.546697644E+02  1.250000000E+02  0.00000E+00  9.000E+00
      25     1     1     2     0     0 -2.611190529E+01 -1.271329653E+01 -6.596136859E+02  6.719811561E+02  1.250000000E+02  0.00000E+00  9.000E+00
      21     1     1     2   502   512 -2.791901895E+01 -5.230556765E+00 -1.216043713E+02  1.248777541E+02  1.907348633E-06  0.00000E+00  9.000E+00
#rwgt            1           1   5.0237747337427897E-002           6      397297           0
</event>
<event>
      5   9999  3.79277E-02  4.10969E+01 -1.00000E+00  1.44115E-01
      21    -1     0     0   502   501  0.000000000E+00  0.000000000E+00  1.657321932E+02  1.657321932E+02  0.000000000E+00  0.00000E+00  9.000E+00
       1    -1     0     0   501     0  0.000000000E+00  0.000000000E+00 -6.771682558E+02  6.771682558E+02  0.000000000E+00  0.00000E+00  9.000E+00
      25     1     1     2     0     0 -5.174819670E+01  2.101197839E+02 -9.819589649E+01  2.685063008E+02  1.250000000E+02  0.00000E+00  9.000E+00
      25     1     1     2     0     0  4.010898626E+01 -2.495340703E+02 -1.732981283E+02  3.309580401E+02  1.250000000E+02  0.00000E+00  9.000E+00
       1     1     1     2   502     0  1.163921044E+01  3.941428637E+01 -2.399420379E+02  2.434361081E+02  3.814697266E-06  0.00000E+00  9.000E+00
#rwgt            1           1   3.1730305741898390E-002           6      397431           0
</event>
<event>
      5   9999  3.79277E-02  1.75810E+01 -1.00000E+00  1.71125E-01
      21    -1     0     0   502   501  0.000000000E+00  0.000000000E+00  5.222081444E+02  5.222081444E+02  0.000000000E+00  0.00000E+00  9.000E+00
      21    -1     0     0   501   511  0.000000000E+00  0.000000000E+00 -4.328597654E+02  4.328597654E+02  0.000000000E+00  0.00000E+00  9.000E+00
      25     1     1     2     0     0 -3.316110191E+02  4.248406279E+01  3.401548419E+01  3.585426289E+02  1.250000000E+02  0.00000E+00  9.000E+00
      25     1     1     2     0     0  3.192728919E+02 -5.500852118E+01  2.328774076E+02  4.181124297E+02  1.250000000E+02  0.00000E+00  9.000E+00
      21     1     1     2   502   511  1.233812720E+01  1.252445839E+01 -1.775445128E+02  1.784128512E+02  3.303624740E-06  0.00000E+00  9.000E+00
#rwgt            1           1   2.0386071777323749E-002           6      397708           0
</event>
<event>
      5   9999  3.79277E-02  6.29881E+01 -1.00000E+00  1.33585E-01
      21    -1     0     0   502   501  0.000000000E+00  0.000000000E+00  2.998581397E+02  2.998581397E+02  0.000000000E+00  0.00000E+00  9.000E+00
      21    -1     0     0   501   512  0.000000000E+00  0.000000000E+00 -4.950871614E+02  4.950871614E+02  0.000000000E+00  0.00000E+00  9.000E+00
      25     1     1     2     0     0  1.284771342E+02  1.486520212E+02 -1.707729304E+02  2.887770614E+02  1.250000000E+02  0.00000E+00  9.000E+00
      25     1     1     2     0     0 -1.145228399E+02 -8.722902624E+01  1.980575289E+02  2.749112014E+02  1.250000000E+02  0.00000E+00  9.000E+00
      21     1     1     2   502   512 -1.395429430E+01 -6.142299500E+01 -2.225136201E+02  2.312570383E+02  0.000000000E+00  0.00000E+00  9.000E+00
#rwgt            1           1   4.2533620903623511E-002           6      397918           0
</event>
<event>
      5   9999  3.79277E-02  1.98463E+01 -1.00000E+00  1.66646E-01
      21    -1     0     0   502   501  0.000000000E+00  0.000000000E+00  4.476091333E+02  4.476091333E+02  0.000000000E+00  0.00000E+00  9.000E+00
      21    -1     0     0   511   502  0.000000000E+00  0.000000000E+00 -1.163098688E+02  1.163098688E+02  0.000000000E+00  0.00000E+00  9.000E+00
      25     1     1     2     0     0  1.224291549E+02  1.161388725E+02  1.868638577E+02  2.811053842E+02  1.250000000E+02  0.00000E+00  9.000E+00
      25     1     1     2     0     0 -1.065593113E+02 -1.280562864E+02  1.556572241E+02  2.600143664E+02  1.250000000E+02  0.00000E+00  9.000E+00
      21     1     1     2   511   501 -1.586984360E+01  1.191741385E+01 -1.122181734E+01  2.279925160E+01  4.129530925E-07  0.00000E+00  9.000E+00
#rwgt            1           1   3.0944803810160605E-002           6      398034           0
</event>
<event>
      5   9999  3.79277E-02  3.58931E+01 -1.00000E+00  1.47820E-01
      21    -1     0     0   502   501  0.000000000E+00  0.000000000E+00  6.116462381E+01  6.116462381E+01  0.000000000E+00  0.00000E+00  9.000E+00
      21    -1     0     0   512   502  0.000000000E+00  0.000000000E+00 -9.091082783E+02  9.091082783E+02  0.000000000E+00  0.00000E+00  9.000E+00
      25     1     1     2     0     0  1.966257778E+01  1.047870398E+02 -1.836218714E+02  2.463918269E+02  1.250000000E+02  0.00000E+00  9.000E+00
      25     1     1     2     0     0  8.182682830E+00 -1.274355681E+02 -2.461603326E+02  3.041820008E+02  1.250000000E+02  0.00000E+00  9.000E+00
      21     1     1     2   512   501 -2.784526061E+01  2.264852823E+01 -4.181614505E+02  4.196990744E+02  5.394796609E-06  0.00000E+00  9.000E+00
#rwgt            1           1   5.0265158155615067E-002           6      398261           0
</event>
<event>
      5   9999  3.79277E-02  8.61042E+01 -1.00000E+00  1.26823E-01
      21    -1     0     0   502   511  0.000000000E+00  0.000000000E+00  5.449220632E+02  5.449220632E+02  0.000000000E+00  0.00000E+00  9.000E+00
      21    -1     0     0   501   502  0.000000000E+00  0.000000000E+00 -3.777822230E+02  3.777822230E+02  0.000000000E+00  0.00000E+00  9.000E+00
      25     1     1     2     0     0  7.873337624E+01 -3.327767694E+01  6.012365268E+01  1.629300523E+02  1.250000000E+02  0.00000E+00  9.000E+00
      25     1     1     2     0     0 -1.498970071E+02  8.175108914E+01 -2.869347462E+02  3.565233539E+02  1.250000000E+02  0.00000E+00  9.000E+00
      21     1     1     2   501   511  7.116363091E+01 -4.847341220E+01  3.939509337E+02  4.032508800E+02  5.394796609E-06  0.00000E+00  9.000E+00
#rwgt            1           1   3.6615096023657388E-002           6      398415           0
</event>
<event>
      5   9999  3.79277E-02  1.66049E+01 -1.00000E+00  1.73323E-01
      21    -1     0     0   502   512  0.000000000E+00  0.000000000E+00  1.527241392E+03  1.527241392E+03  0.000000000E+00  0.00000E+00  9.000E+00
      21    -1     0     0   501   502  0.000000000E+00  0.000000000E+00 -1.134684265E+02  1.134684265E+02  0.000000000E+00  0.00000E+00  9.000E+00
      25     1     1     2     0     0  7.901622018E+01  1.276193340E+02  1.051805402E+02  2.218517602E+02  1.250000000E+02  0.00000E+00  9.000E+00
      25     1     1     2     0     0 -9.548805390E+01 -1.255215377E+02  1.287615987E+02  2.389103894E+02  1.250000000E+02  0.00000E+00  9.000E+00
      21     1     1     2   501   512  1.647183372E+01 -2.097796335E+00  1.179830826E+03  1.179947668E+03  1.525878906E-05  0.00000E+00  9.000E+00
#rwgt            1           1   4.0189332227457283E-002           6      398631           0
</event>
<event>
      5   9999  3.79277E-02  2.34407E+01 -1.00000E+00  1.60875E-01
      21    -1     0     0   502   501  0.000000000E+00  0.000000000E+00  1.414198991E+03  1.414198991E+03  0.000000000E+00  0.00000E+00  9.000E+00
      21    -1     0     0   511   502  0.000000000E+00  0.000000000E+00 -7.326745017E+01  7.326745017E+01  0.000000000E+00  0.00000E+00  9.000E+00
      25     1     1     2     0     0  8.977091669E+01 -1.314833928E+02  2.513766316E+02  3.227412446E+02  1.250000000E+02  0.00000E+00  9.000E+00
      25     1     1     2     0     0 -1.041227276E+02  1.129499112E+02  1.113641526E+03  1.131115235E+03  1.250000000E+02  0.00000E+00  9.000E+00
      21     1     1     2   511   501  1.435181096E+01  1.853348158E+01 -2.408661709E+01  3.360996192E+01  1.651812370E-06  0.00000E+00  9.000E+00
#rwgt            1           1   4.1919428891533231E-002           6      398729           0
</event>
<event>
      5   9999  3.79277E-02  2.95532E+01 -1.00000E+00  1.53494E-01
      21    -1     0     0   502   501  0.000000000E+00  0.000000000E+00  2.267132619E+02  2.267132619E+02  0.000000000E+00  0.00000E+00  9.000E+00
      21    -1     0     0   501   512  0.000000000E+00  0.000000000E+00 -4.981375830E+02  4.981375830E+02  0.000000000E+00  0.00000E+00  9.000E+00
      25     1     1     2     0     0  4.239919358E+01 -2.539843496E+02 -5.727692135E+00  2.862927661E+02  1.250000000E+02  0.00000E+00  9.000E+00
      25     1     1     2     0     0 -5.307152376E+01  2.815432152E+02 -2.133742228E+02  3.784662833E+02  1.250000000E+02  0.00000E+00  9.000E+00
      21     1     1     2   502   512  1.067233018E+01 -2.755886561E+01 -5.232240618E+01  6.009179556E+01  0.000000000E+00  0.00000E+00  9.000E+00
#rwgt            1           1   3.4816014587125910E-002           6      398819           0
</event>
<event>
      5   9999 -3.79277E-02  4.67876E+01 -1.00000E+00  1.40741E-01
      21    -1     0     0   502   501  0.000000000E+00  0.000000000E+00  3.883780012E+02  3.883780012E+02  0.000000000E+00  0.00000E+00  9.000E+00
      21    -1     0     0   511   502  0.000000000E+00  0.000000000E+00 -1.059971054E+02  1.059971054E+02  0.000000000E+00  0.00000E+00  9.000E+00
      25     1     1     2     0     0  1.005509756E+02 -4.240024613E+00  2.157868091E+02  2.689189906E+02  1.250000000E+02  0.00000E+00  9.000E+00
      25     1     1     2     0     0 -1.045327746E+02 -4.237784092E+01  5.646565452E+01  1.775847755E+02  1.250000000E+02  0.00000E+00  9.000E+00
      21     1     1     2   511   501  3.981798979E+00  4.661786553E+01  1.012843221E+01  4.787134058E+01  9.233911863E-07  0.00000E+00  9.000E+00
#rwgt            1           1  -9.1761852968303664E-002           6      398941           0
</event>
<event>
      5   9999  3.79277E-02  3.38427E+01 -1.00000E+00  1.49491E-01
      21    -1     0     0   502   501  0.000000000E+00  0.000000000E+00  1.164356432E+03  1.164356432E+03  0.000000000E+00  0.00000E+00  9.000E+00
      21    -1     0     0   512   502  0.000000000E+00  0.000000000E+00 -2.985483631E+02  2.985483631E+02  0.000000000E+00  0.00000E+00  9.000E+00
      25     1     1     2     0     0 -3.070316557E+01  1.281208402E+01  1.072542811E+03  1.080314730E+03  1.250000000E+02  0.00000E+00  9.000E+00
      25     1     1     2     0     0  6.240332098E+00 -3.619800423E+01  3.785248970E+01  1.356725773E+02  1.250000000E+02  0.00000E+00  9.000E+00
      21     1     1     2   512   501  2.446283347E+01  2.338592021E+01 -2.445872322E+02  2.469174876E+02  6.031565972E-06  0.00000E+00  9.000E+00
#rwgt            1           1   5.0094433221946864E-002           6      399039           0
</event>
<event>
      5   9999  3.79277E-02  1.83122E+02 -1.00000E+00  1.13060E-01
      21    -1     0     0   502   501  0.000000000E+00  0.000000000E+00  6.975488240E+02  6.975488240E+02  0.000000000E+00  0.00000E+00  9.000E+00
      21    -1     0     0   501   511  0.000000000E+00  0.000000000E+00 -9.155818347E+02  9.155818347E+02  0.000000000E+00  0.00000E+00  9.000E+00
      25     1     1     2     0     0  1.989844019E+02 -1.981684628E+02  5.277193096E+02  6.107194131E+02  1.250000000E+02  0.00000E+00  9.000E+00
      25     1     1     2     0     0 -1.217880687E+02  3.211288714E+01  5.120147053E+01  1.846893657E+02  1.250000000E+02  0.00000E+00  9.000E+00
      21     1     1     2   502   511 -7.719633318E+01  1.660555757E+02 -7.969537909E+02  8.177218799E+02  1.078959322E-05  0.00000E+00  9.000E+00
#rwgt            2          11   3.7428219863439869E-003           6      399354           0
</event>
<event>
      5   9999  3.79277E-02  1.35078E+01 -1.00000E+00  1.81781E-01
      21    -1     0     0   502   501  0.000000000E+00  0.000000000E+00  3.664321998E+02  3.664321998E+02  0.000000000E+00  0.00000E+00  9.000E+00
      21    -1     0     0   501   512  0.000000000E+00  0.000000000E+00 -1.717687024E+02  1.717687024E+02  0.000000000E+00  0.00000E+00  9.000E+00
      25     1     1     2     0     0 -1.723704192E+02  7.062670192E+01  1.821924222E+02  2.889961438E+02  1.250000000E+02  0.00000E+00  9.000E+00
      25     1     1     2     0     0  1.833598371E+02 -7.848118044E+01  1.157943223E+01  2.356675812E+02  1.250000000E+02  0.00000E+00  9.000E+00
      21     1     1     2   502   512 -1.098941795E+01  7.854478521E+00  8.916429705E-01  1.353717721E+01  2.356080458E-07  0.00000E+00  9.000E+00
#rwgt            1           1   2.9947977263901648E-002           6      399494           0
</event>
<event>
      5   9999 -3.79277E-02  6.56751E+01 -1.00000E+00  1.32639E-01
      21    -1     0     0   502   501  0.000000000E+00  0.000000000E+00  5.682908927E+02  5.682908927E+02  0.000000000E+00  0.00000E+00  9.000E+00
      21    -1     0     0   511   502  0.000000000E+00  0.000000000E+00 -6.707860057E+02  6.707860057E+02  0.000000000E+00  0.00000E+00  9.000E+00
      25     1     1     2     0     0  1.162910590E+02 -3.318731190E+01  1.336575540E+02  2.193498343E+02  1.250000000E+02  0.00000E+00  9.000E+00
      25     1     1     2     0     0 -5.743672577E+01  6.233148849E+01  3.754088676E+02  4.046492429E+02  1.250000000E+02  0.00000E+00  9.000E+00
      21     1     1     2   511   501 -5.885433323E+01 -2.914417659E+01 -6.115615346E+02  6.150778212E+02  1.078959322E-05  0.00000E+00  9.000E+00
#rwgt            1           1 -0.27007662215477529                6      399727           0
</event>
<event>
      5   9999  3.79277E-02  2.73782E+01 -1.00000E+00  1.55851E-01
       2    -1     0     0   502     0  0.000000000E+00  0.000000000E+00  1.620256590E+03  1.620256590E+03  0.000000000E+00  0.00000E+00  9.000E+00
      21    -1     0     0   501   502  0.000000000E+00  0.000000000E+00 -3.139944419E+01  3.139944419E+01  0.000000000E+00  0.00000E+00  9.000E+00
      25     1     1     2     0     0  3.610332750E+00  1.127193873E+02  6.504088029E+02  6.718447035E+02  1.250000000E+02  0.00000E+00  9.000E+00
      25     1     1     2     0     0 -3.088033664E+01 -1.102883085E+02  3.323349589E+02  3.730799258E+02  1.250000000E+02  0.00000E+00  9.000E+00
       2     1     1     2   501     0  2.727000389E+01 -2.431078799E+00  6.061133837E+02  6.067314044E+02  7.629394531E-06  0.00000E+00  9.000E+00
#rwgt            1           1   3.9190499833874605E-002           6      399802           0
</event>
<event>
      5   9999  3.79277E-02  1.49061E+02 -1.00000E+00  1.16502E-01
       2    -1     0     0   502     0  0.000000000E+00  0.000000000E+00  5.374569720E+02  5.374569720E+02  0.000000000E+00  0.00000E+00  9.000E+00
      21    -1     0     0   501   502  0.000000000E+00  0.000000000E+00 -8.952301526E+02  8.952301526E+02  0.000000000E+00  0.00000E+00  9.000E+00
      25     1     1     2     0     0  1.824990362E+01 -7.772992289E+01 -5.190253593E+01  1.571428431E+02  1.250000000E+02  0.00000E+00  9.000E+00
      25     1     1     2     0     0  6.662929126E+01  2.002645364E+02 -7.594593215E+02  7.980907267E+02  1.250000000E+02  0.00000E+00  9.000E+00
       2     1     1     2   501     0 -8.487919488E+01 -1.225346135E+02  4.535886769E+02  4.774535549E+02  9.344061824E-06  0.00000E+00  9.000E+00
#rwgt            1           1   4.7699742799694911E-002           6      399960           0
</event>
<event>
      5   9999  3.79277E-02  5.12714E+01 -1.00000E+00  1.38456E-01
      21    -1     0     0   502   501  0.000000000E+00  0.000000000E+00  3.733736977E+02  3.733736977E+02  0.000000000E+00  0.00000E+00  9.000E+00
      21    -1     0     0   501   511  0.000000000E+00  0.000000000E+00 -8.707157742E+01  8.707157742E+01  0.000000000E+00  0.00000E+00  9.000E+00
      25     1     1     2     0     0  4.569695692E+01 -7.358430671E+01  6.379179999E+01  1.649159053E+02  1.250000000E+02  0.00000E+00  9.000E+00
      25     1     1     2     0     0 -7.537216711E+00  3.934123628E+01  2.006985189E+02  2.398112550E+02  1.250000000E+02  0.00000E+00  9.000E+00
      21     1     1     2   502   511 -3.815974021E+01  3.424307043E+01  2.181180132E+01  5.571811485E+01  1.192092896E-06  0.00000E+00  9.000E+00
#rwgt            1           1  0.11266683533010773                6      400013           0
</event>
<event>
      5   9999  3.79277E-02  8.34280E+01 -1.00000E+00  1.27474E-01
      21    -1     0     0   502   501  0.000000000E+00  0.000000000E+00  2.788968222E+02  2.788968222E+02  0.000000000E+00  0.00000E+00  9.000E+00
      21    -1     0     0   512   502  0.000000000E+00  0.000000000E+00 -6.675329619E+02  6.675329619E+02  0.000000000E+00  0.00000E+00  9.000E+00
      25     1     1     2     0     0 -1.444349434E+02 -2.586957862E+02  6.471514909E+01  3.280213609E+02  1.250000000E+02  0.00000E+00  9.000E+00
      25     1     1     2     0     0  1.838582102E+02  1.851699824E+02 -2.001566203E+02  3.518230187E+02  1.250000000E+02  0.00000E+00  9.000E+00
      21     1     1     2   512   501 -3.942326681E+01  7.352580378E+01 -2.531946685E+02  2.665854046E+02  2.697398305E-06  0.00000E+00  9.000E+00
#rwgt            1           1   4.2714101097927080E-002           6      400210           0
</event>
<event>
      5   9999  3.79277E-02  6.44139E+01 -1.00000E+00  1.33076E-01
      21    -1     0     0   502   501  0.000000000E+00  0.000000000E+00  5.009834677E+02  5.009834677E+02  0.000000000E+00  0.00000E+00  9.000E+00
      21    -1     0     0   511   502  0.000000000E+00  0.000000000E+00 -2.308430225E+02  2.308430225E+02  0.000000000E+00  0.00000E+00  9.000E+00
      25     1     1     2     0     0 -2.908978828E+01  2.472390361E+02  3.208600560E+02  4.249112052E+02  1.250000000E+02  0.00000E+00  9.000E+00
      25     1     1     2     0     0  4.685204809E+01 -1.853224916E+02 -5.953428858E+00  2.284731573E+02  1.250000000E+02  0.00000E+00  9.000E+00
      21     1     1     2   511   501 -1.776225981E+01 -6.191654452E+01 -4.476618196E+01  7.844212775E+01  1.066240300E-06  0.00000E+00  9.000E+00
#rwgt            1           1  0.17781333427205950                6      400301           0
</event>
<event>
      5   9999  3.79277E-02  6.09839E+01 -1.00000E+00  1.34327E-01
      21    -1     0     0   512   501  0.000000000E+00  0.000000000E+00  3.368904806E+02  3.368904806E+02  0.000000000E+00  0.00000E+00  9.000E+00
      21    -1     0     0   501   502  0.000000000E+00  0.000000000E+00 -2.351335829E+02  2.351335829E+02  0.000000000E+00  0.00000E+00  9.000E+00
      25     1     1     2     0     0 -1.625539954E+02  2.762223616E+01  1.560207904E+02  2.591414216E+02  1.250000000E+02  0.00000E+00  9.000E+00
      25     1     1     2     0     0  2.022588283E+02  1.866556187E+01 -7.242199504E+01  2.492528479E+02  1.250000000E+02  0.00000E+00  9.000E+00
      21     1     1     2   512   502 -3.970483294E+01 -4.628779803E+01  1.815810236E+01  6.362979401E+01  9.233911863E-07  0.00000E+00  9.000E+00
#rwgt            2          11   3.8144804291288638E-003           6      400460           0
</event>
<event>
      5   9999  3.79277E-02  1.84769E+01 -1.00000E+00  1.69258E-01
      21    -1     0     0   502   501  0.000000000E+00  0.000000000E+00  1.325562247E+03  1.325562247E+03  0.000000000E+00  0.00000E+00  9.000E+00
      21    -1     0     0   501   511  0.000000000E+00  0.000000000E+00 -3.028538338E+01  3.028538338E+01  0.000000000E+00  0.00000E+00  9.000E+00
      25     1     1     2     0     0 -7.867572219E+01 -8.263179026E+01  4.456345218E+02  4.766896360E+02  1.250000000E+02  0.00000E+00  9.000E+00
      25     1     1     2     0     0  8.230547534E+01  1.007486103E+02  8.382631675E+02  8.574582274E+02  1.250000000E+02  0.00000E+00  9.000E+00
      21     1     1     2   502   511 -3.629753144E+00 -1.811682005E+01  1.137917417E+01  2.169976686E+01  8.259061849E-07  0.00000E+00  9.000E+00
#rwgt            1           1   7.9863183655002168E-002           6      400510           0
</event>
<event>
      5   9999  3.79277E-02  3.18735E+01 -1.00000E+00  1.51235E-01
      21    -1     0     0   502   512  0.000000000E+00  0.000000000E+00  4.482856316E+01  4.482856316E+01  0.000000000E+00  0.00000E+00  9.000E+00
      21    -1     0     0   501   502  0.000000000E+00  0.000000000E+00 -1.978682424E+03  1.978682424E+03  0.000000000E+00  0.00000E+00  9.000E+00
      25     1     1     2     0     0 -1.703553284E+02  1.111835448E+02 -9.037818489E+02  9.347883979E+02  1.250000000E+02  0.00000E+00  9.000E+00
      25     1     1     2     0     0  2.006216994E+02 -1.211770033E+02 -1.021843568E+03  1.055804058E+03  1.250000000E+02  0.00000E+00  9.000E+00
      21     1     1     2   501   512 -3.026637094E+01  9.993458515E+00 -8.228444888E+00  3.291853168E+01  1.099055345E-06  0.00000E+00  9.000E+00
#rwgt            1           1  0.17744684923207865                6      400633           0
</event>
<event>
      5   9999  3.79277E-02  1.17717E+02 -1.00000E+00  1.20723E-01
      21    -1     0     0   502   501  0.000000000E+00  0.000000000E+00  1.638163587E+02  1.638163587E+02  0.000000000E+00  0.00000E+00  9.000E+00
       1    -1     0     0   501     0  0.000000000E+00  0.000000000E+00 -7.911106559E+02  7.911106559E+02  0.000000000E+00  0.00000E+00  9.000E+00
      25     1     1     2     0     0  1.549470336E+02  2.728299430E+01  1.433407844E+01  2.014532472E+02  1.250000000E+02  0.00000E+00  9.000E+00
      25     1     1     2     0     0 -1.182992893E+02  8.458427416E+01 -1.379691462E+02  2.362407810E+02  1.250000000E+02  0.00000E+00  9.000E+00
       1     1     1     2   502     0 -3.664774430E+01 -1.118672685E+02 -5.036592294E+02  5.172329865E+02  5.394796609E-06  0.00000E+00  9.000E+00
#rwgt            1           1   4.5775824509632822E-002           6      400750           0
</event>
<event>
      5   9999  3.79277E-02  2.87718E+01 -1.00000E+00  1.54312E-01
      21    -1     0     0   502   511  0.000000000E+00  0.000000000E+00  1.751002365E+03  1.751002365E+03  0.000000000E+00  0.00000E+00  9.000E+00
      21    -1     0     0   501   502  0.000000000E+00  0.000000000E+00 -1.414162268E+02  1.414162268E+02  0.000000000E+00  0.00000E+00  9.000E+00
      25     1     1     2     0     0 -1.208952890E+02  1.513384590E+01 -7.181168619E+01  1.887501588E+02  1.250000000E+02  0.00000E+00  9.000E+00
      25     1     1     2     0     0  9.385251805E+01 -5.310234961E+00  5.473840997E+02  5.692897736E+02  1.250000000E+02  0.00000E+00  9.000E+00
      21     1     1     2   501   511  2.704277093E+01 -9.823610940E+00  1.134013725E+03  1.134378660E+03  0.000000000E+00  0.00000E+00  9.000E+00
#rwgt            1           1   4.1810072322654927E-002           6      400841           0
</event>
<event>
      5   9999  3.79277E-02  5.13364E+01 -1.00000E+00  1.38425E-01
      21    -1     0     0   502   501  0.000000000E+00  0.000000000E+00  2.330692634E+02  2.330692634E+02  0.000000000E+00  0.00000E+00  9.000E+00
      21    -1     0     0   512   502  0.000000000E+00  0.000000000E+00 -1.577512775E+02  1.577512775E+02  0.000000000E+00  0.00000E+00  9.000E+00
      25     1     1     2     0     0 -8.386315071E+01 -1.297253348E+01  3.970384657E+01  1.562136681E+02  1.250000000E+02  0.00000E+00  9.000E+00
      25     1     1     2     0     0  1.259202358E+02 -1.646597864E+01  4.142462346E+01  1.829427060E+02  1.250000000E+02  0.00000E+00  9.000E+00
      21     1     1     2   512   501 -4.205708514E+01  2.943851212E+01 -5.810484041E+00  5.166416680E+01  4.986882368E-07  0.00000E+00  9.000E+00
#rwgt            1           1   2.8285205151946227E-002           6      401053           0
</event>
<event>
      5   9999  3.79277E-02  2.67362E+01 -1.00000E+00  1.56597E-01
      21    -1     0     0   511   501  0.000000000E+00  0.000000000E+00  2.497722163E+02  2.497722163E+02  0.000000000E+00  0.00000E+00  9.000E+00
      21    -1     0     0   501   502  0.000000000E+00  0.000000000E+00 -3.088835665E+02  3.088835665E+02  0.000000000E+00  0.00000E+00  9.000E+00
      25     1     1     2     0     0 -9.029699450E+01 -1.424698225E+02 -4.508144960E+01  2.147289795E+02  1.250000000E+02  0.00000E+00  9.000E+00
      25     1     1     2     0     0  7.773428880E+01  1.660707446E+02 -1.075892115E+02  2.466222826E+02  1.250000000E+02  0.00000E+00  9.000E+00
      21     1     1     2   511   502  1.256270570E+01 -2.360092209E+01  9.355931090E+01  9.730452072E+01  1.348699152E-06  0.00000E+00  9.000E+00
#rwgt            1           1   3.7100510764846370E-002           6      401130           0
</event>
<event>
      5   9999  3.79277E-02  5.51235E+01 -1.00000E+00  1.36701E-01
      21    -1     0     0   502   501  0.000000000E+00  0.000000000E+00  5.938365546E+02  5.938365546E+02  0.000000000E+00  0.00000E+00  9.000E+00
      21    -1     0     0   512   502  0.000000000E+00  0.000000000E+00 -2.820878489E+02  2.820878489E+02  0.000000000E+00  0.00000E+00  9.000E+00
      25     1     1     2     0     0 -9.167053841E+01  7.257903368E+01  5.403802934E+02  5.668395409E+02  1.250000000E+02  0.00000E+00  9.000E+00
      25     1     1     2     0     0  7.785029613E+01 -1.921616248E+01 -1.364384331E+02  2.016689752E+02  1.250000000E+02  0.00000E+00  9.000E+00
      21     1     1     2   512   501  1.382024228E+01 -5.336287120E+01 -9.219315456E+01  1.074158874E+02  1.348699152E-06  0.00000E+00  9.000E+00
#rwgt            1           1   4.5151563423580211E-002           6      401346           0
</event>
<event>
      5   9999  3.79277E-02  2.26686E+01 -1.00000E+00  1.62003E-01
      21    -1     0     0   502   501  0.000000000E+00  0.000000000E+00  2.232310905E+02  2.232310905E+02  0.000000000E+00  0.00000E+00  9.000E+00
      21    -1     0     0   511   502  0.000000000E+00  0.000000000E+00 -5.301810314E+02  5.301810314E+02  0.000000000E+00  0.00000E+00  9.000E+00
      25     1     1     2     0     0  6.993625448E+01  2.521986563E+02 -3.539123904E+01  2.921862107E+02  1.250000000E+02  0.00000E+00  9.000E+00
      25     1     1     2     0     0 -6.626014742E+01 -2.745671569E+02 -1.608996794E+02  3.482689157E+02  1.250000000E+02  0.00000E+00  9.000E+00
      21     1     1     2   511   501 -3.676107065E+00  2.236850058E+01 -1.106590225E+02  1.129569955E+02  1.348699152E-06  0.00000E+00  9.000E+00
#rwgt            1           1   3.4198059823821410E-002           6      401565           0
</event>
<event>
      5   9999  3.79277E-02  2.02164E+02 -1.00000E+00  1.11478E-01
      21    -1     0     0   512   501  0.000000000E+00  0.000000000E+00  5.299982682E+02  5.299982682E+02  0.000000000E+00  0.00000E+00  9.000E+00
      21    -1     0     0   501   502  0.000000000E+00  0.000000000E+00 -3.455904441E+02  3.455904441E+02  0.000000000E+00  0.00000E+00  9.000E+00
      25     1     1     2     0     0 -6.059041009E+01 -7.107786370E+01 -3.370477610E+01  1.596379417E+02  1.250000000E+02  0.00000E+00  9.000E+00
      25     1     1     2     0     0 -1.592215270E+01  2.582036272E+02 -1.284621221E+02  3.147223298E+02  1.250000000E+02  0.00000E+00  9.000E+00
      21     1     1     2   512   502  7.651256279E+01 -1.871257635E+02  3.465747222E+02  4.012284408E+02  5.394796609E-06  0.00000E+00  9.000E+00
#rwgt            1           1   3.3842770355627952E-002           6      401806           0
</event>
<event>
      5   9999  3.79277E-02  5.55505E+01 -1.00000E+00  1.36516E-01
      21    -1     0     0   502   501  0.000000000E+00  0.000000000E+00  1.717385107E+02  1.717385107E+02  0.000000000E+00  0.00000E+00  9.000E+00
      -1    -1     0     0     0   502  0.000000000E+00  0.000000000E+00 -8.886474408E+02  8.886474408E+02  0.000000000E+00  0.00000E+00  9.000E+00
      25     1     1     2     0     0 -2.046548100E+02  2.625049073E+02 -3.073108795E+02  4.699546725E+02  1.250000000E+02  0.00000E+00  9.000E+00
      25     1     1     2     0     0  1.544781203E+02 -2.386687943E+02 -1.903575991E+02  3.642626780E+02  1.250000000E+02  0.00000E+00  9.000E+00
      -1     1     1     2     0   501  5.017668968E+01 -2.383611297E+01 -2.192404516E+02  2.261686010E+02  2.697398305E-06  0.00000E+00  9.000E+00
#rwgt            2          10   1.5264544198012647E-005           6      401981           0
</event>
<event>
      5   9999  3.79277E-02  7.76665E+01 -1.00000E+00  1.28975E-01
       2    -1     0     0   502     0  0.000000000E+00  0.000000000E+00  8.635264723E+02  8.635264723E+02  0.000000000E+00  0.00000E+00  9.000E+00
      21    -1     0     0   501   502  0.000000000E+00  0.000000000E+00 -2.657976287E+02  2.657976287E+02  0.000000000E+00  0.00000E+00  9.000E+00
      25     1     1     2     0     0 -1.604417556E+02 -1.862021945E+02 -1.277686224E+02  3.039122161E+02  1.250000000E+02  0.00000E+00  9.000E+00
      25     1     1     2     0     0  1.105028539E+02  2.456848329E+02  4.498989611E+02  5.390788375E+02  1.250000000E+02  0.00000E+00  9.000E+00
       2     1     1     2   501     0  4.993890178E+01 -5.948263833E+01  2.755985050E+02  2.863330476E+02  5.394796609E-06  0.00000E+00  9.000E+00
#rwgt            1           1   5.3120027495679137E-002           6      402120           0
</event>
<event>
      5   9999  3.79277E-02  1.19660E+02 -1.00000E+00  1.20421E-01
      21    -1     0     0   502   511  0.000000000E+00  0.000000000E+00  1.716740737E+02  1.716740737E+02  0.000000000E+00  0.00000E+00  9.000E+00
      21    -1     0     0   501   502  0.000000000E+00  0.000000000E+00 -7.338831662E+02  7.338831662E+02  0.000000000E+00  0.00000E+00  9.000E+00
      25     1     1     2     0     0  5.556896942E+01  7.713064641E+01 -4.843929254E+02  5.092136616E+02  1.250000000E+02  0.00000E+00  9.000E+00
      25     1     1     2     0     0 -1.718732629E+02 -4.899312872E+01 -1.423017810E+02  2.604141740E+02  1.250000000E+02  0.00000E+00  9.000E+00
      21     1     1     2   501   511  1.163042934E+02 -2.813751769E+01  6.448561390E+01  1.359294044E+02  4.156969970E-06  0.00000E+00  9.000E+00
#rwgt            1           1   4.4349986696367534E-002           6      402483           0
</event>
<event>
      5   9999  3.79277E-02  2.21359E+01 -1.00000E+00  1.62813E-01
      21    -1     0     0   502   512  0.000000000E+00  0.000000000E+00  1.897665163E+02  1.897665163E+02  0.000000000E+00  0.00000E+00  9.000E+00
      21    -1     0     0   501   502  0.000000000E+00  0.000000000E+00 -2.045884343E+02  2.045884343E+02  0.000000000E+00  0.00000E+00  9.000E+00
      25     1     1     2     0     0  1.169839538E+02  8.671271561E+01 -1.510809883E+01  1.925034938E+02  1.250000000E+02  0.00000E+00  9.000E+00
      25     1     1     2     0     0 -1.058810792E+02 -6.756270070E+01 -9.912885178E+00  1.774789755E+02  1.250000000E+02  0.00000E+00  9.000E+00
      21     1     1     2   501   512 -1.110287455E+01 -1.915001490E+01  1.019906598E+01  2.437248122E+01  1.192092896E-07  0.00000E+00  9.000E+00
#rwgt            1           1   2.8567530377637242E-002           6      402544           0
</event>
<event>
      5   9999  3.79277E-02  5.88946E+01 -1.00000E+00  1.35136E-01
      21    -1     0     0   502   501  0.000000000E+00  0.000000000E+00  6.529529884E+02  6.529529884E+02  0.000000000E+00  0.00000E+00  9.000E+00
      21    -1     0     0   501   511  0.000000000E+00  0.000000000E+00 -2.209435248E+02  2.209435248E+02  0.000000000E+00  0.00000E+00  9.000E+00
      25     1     1     2     0     0 -3.163392533E+02  2.735978860E+01  3.473330671E+02  4.869130731E+02  1.250000000E+02  0.00000E+00  9.000E+00
      25     1     1     2     0     0  2.875159817E+02  2.399966974E+01  9.205437079E+01  3.276284955E+02  1.250000000E+02  0.00000E+00  9.000E+00
      21     1     1     2   502   511  2.882327159E+01 -5.135945835E+01 -7.377974328E+00  5.935494463E+01  7.725644944E-07  0.00000E+00  9.000E+00
#rwgt            1           1   1.5238951765726330E-002           6      402795           0
</event>
<event>
      5   9999  3.79277E-02  1.76748E+01 -1.00000E+00  1.70923E-01
      21    -1     0     0   502   501  0.000000000E+00  0.000000000E+00  2.807050294E+02  2.807050294E+02  0.000000000E+00  0.00000E+00  9.000E+00
       2    -1     0     0   501     0  0.000000000E+00  0.000000000E+00 -3.762820593E+02  3.762820593E+02  0.000000000E+00  0.00000E+00  9.000E+00
      25     1     1     2     0     0 -2.080489783E+01 -1.263384995E+02 -9.848606589E+01  2.042517207E+02  1.250000000E+02  0.00000E+00  9.000E+00
      25     1     1     2     0     0  3.792309766E+01  1.307392150E+02  1.898557870E+02  2.649549462E+02  1.250000000E+02  0.00000E+00  9.000E+00
       2     1     1     2   502     0 -1.711819983E+01 -4.400715524E+00 -1.869467511E+02  1.877804218E+02  0.000000000E+00  0.00000E+00  9.000E+00
#rwgt            1           1   3.9518211743398951E-002           6      402966           0
</event>
<event>
      5   9999  3.79277E-02  5.27153E+01 -1.00000E+00  1.37778E-01
      21    -1     0     0   502   501  0.000000000E+00  0.000000000E+00  2.811801501E+02  2.811801501E+02  0.000000000E+00  0.00000E+00  9.000E+00
      -3    -1     0     0     0   502  0.000000000E+00  0.000000000E+00 -7.508355732E+02  7.508355732E+02  0.000000000E+00  0.00000E+00  9.000E+00
      25     1     1     2     0     0 -9.442684777E+01  7.236359293E-01  1.686700461E+02  2.301989089E+02  1.250000000E+02  0.00000E+00  9.000E+00
      25     1     1     2     0     0  1.398578300E+02 -2.746181143E+01 -3.086453487E+01  1.920728591E+02  1.250000000E+02  0.00000E+00  9.000E+00
      -3     1     1     2     0   501 -4.543098226E+01  2.673817550E+01 -6.074609343E+02  6.097439552E+02  7.629394531E-06  0.00000E+00  9.000E+00
#rwgt            1           1   4.5722064135799767E-002           6      403191           0
</event>
<event>
      5   9999  3.79277E-02  4.59550E+01 -1.00000E+00  1.41199E-01
       1    -1     0     0   502     0  0.000000000E+00  0.000000000E+00  3.534268941E+02  3.534268941E+02  0.000000000E+00  0.00000E+00  9.000E+00
      21    -1     0     0   501   502  0.000000000E+00  0.000000000E+00 -1.392327917E+02  1.392327917E+02  0.000000000E+00  0.00000E+00  9.000E+00
      25     1     1     2     0     0 -2.361832452E+01 -9.978934731E+01 -4.247616521E+01  1.671674720E+02  1.250000000E+02  0.00000E+00  9.000E+00
      25     1     1     2     0     0 -1.689397435E+01  7.809561001E+01  1.584994732E+02  2.170977054E+02  1.250000000E+02  0.00000E+00  9.000E+00
       1     1     1     2   501     0  4.051229887E+01  2.169373730E+01  9.817079434E+01  1.083945084E+02  2.336015456E-06  0.00000E+00  9.000E+00
#rwgt            1           1   4.7187879101361824E-002           6      403347           0
</event>
<event>
      5   9999  3.79277E-02  9.60490E+01 -1.00000E+00  1.24620E-01
       2    -1     0     0   502     0  0.000000000E+00  0.000000000E+00  8.746355400E+02  8.746355400E+02  0.000000000E+00  0.00000E+00  9.000E+00
      21    -1     0     0   501   502  0.000000000E+00  0.000000000E+00 -1.518276159E+02  1.518276159E+02  0.000000000E+00  0.00000E+00  9.000E+00
      25     1     1     2     0     0  4.560191084E+01 -5.923727784E+01 -7.554903676E+01  1.640769524E+02  1.250000000E+02  0.00000E+00  9.000E+00
      25     1     1     2     0     0 -1.214946067E+02  3.670118587E-01  2.445846586E+02  3.003460161E+02  1.250000000E+02  0.00000E+00  9.000E+00
       2     1     1     2   501     0  7.589269591E+01  5.887026598E+01  5.537723022E+02  5.620401873E+02  0.000000000E+00  0.00000E+00  9.000E+00
#rwgt            1           1   4.4550792188008372E-002           6      403450           0
</event>
<event>
      5   9999  3.79277E-02  1.75587E+02 -1.00000E+00  1.13746E-01
      21    -1     0     0   511   501  0.000000000E+00  0.000000000E+00  1.975830950E+02  1.975830950E+02  0.000000000E+00  0.00000E+00  9.000E+00
      21    -1     0     0   501   502  0.000000000E+00  0.000000000E+00 -8.716895573E+02  8.716895573E+02  0.000000000E+00  0.00000E+00  9.000E+00
      25     1     1     2     0     0 -1.296859628E+02  1.564046324E+02 -4.656637746E+02  5.232099091E+02  1.250000000E+02  0.00000E+00  9.000E+00
      25     1     1     2     0     0 -4.555424853E+01 -1.453754425E+02 -2.914689716E+02  3.518357149E+02  1.250000000E+02  0.00000E+00  9.000E+00
      21     1     1     2   511   502  1.752402113E+02 -1.102918987E+01  8.302628398E+01  1.942270283E+02  4.264961200E-06  0.00000E+00  9.000E+00
#rwgt            1           1   3.6965056039822856E-002           6      403519           0
</event>
<event>
      5   9999  3.79277E-02  5.57026E+01 -1.00000E+00  1.36451E-01
      21    -1     0     0   502   512  0.000000000E+00  0.000000000E+00  8.553077297E+02  8.553077297E+02  0.000000000E+00  0.00000E+00  9.000E+00
      21    -1     0     0   501   502  0.000000000E+00  0.000000000E+00 -3.406267472E+02  3.406267472E+02  0.000000000E+00  0.00000E+00  9.000E+00
      25     1     1     2     0     0 -3.942846199E+01 -8.611691417E+01  2.332172280E+01  1.585548147E+02  1.250000000E+02  0.00000E+00  9.000E+00
      25     1     1     2     0     0 -2.226890551E+00  4.913570073E+01 -2.553864087E+02  2.885593420E+02  1.250000000E+02  0.00000E+00  9.000E+00
      21     1     1     2   501   512  4.165535254E+01  3.698121344E+01  7.467456684E+02  7.488203201E+02  1.868812365E-05  0.00000E+00  9.000E+00
#rwgt            1           1   3.8249844457379244E-002           6      403685           0
</event>
<event>
      5   9999  3.79277E-02  5.79445E+01 -1.00000E+00  1.35517E-01
       1    -1     0     0   502     0  0.000000000E+00  0.000000000E+00  2.041975517E+03  2.041975517E+03  0.000000000E+00  0.00000E+00  9.000E+00
      21    -1     0     0   501   502  0.000000000E+00  0.000000000E+00 -6.073456896E+01  6.073456896E+01  0.000000000E+00  0.00000E+00  9.000E+00
      25     1     1     2     0     0 -9.661183692E+01  3.131935480E+01  5.906687715E+02  6.122330820E+02  1.250000000E+02  0.00000E+00  9.000E+00
      25     1     1     2     0     0  3.931126708E+01 -2.270477004E+01  4.029748895E+01  1.389595981E+02  1.250000000E+02  0.00000E+00  9.000E+00
       1     1     1     2   501     0  5.730056984E+01 -8.614584759E+00  1.350274688E+03  1.351517406E+03  2.157918644E-05  0.00000E+00  9.000E+00
#rwgt            1           1   2.9677392629654395E-002           6      403831           0
</event>
<event>
      5   9999 -3.79277E-02  2.87578E+01 -1.00000E+00  1.54326E-01
      21    -1     0     0   502   501  0.000000000E+00  0.000000000E+00  4.592015598E+01  4.592015598E+01  0.000000000E+00  0.00000E+00  9.000E+00
      21    -1     0     0   511   502  0.000000000E+00  0.000000000E+00 -7.711801406E+02  7.711801406E+02  0.000000000E+00  0.00000E+00  9.000E+00
      25     1     1     2     0     0  2.583592239E+01 -8.021223509E+01 -2.580253206E+02  2.988370185E+02  1.250000000E+02  0.00000E+00  9.000E+00
      25     1     1     2     0     0 -2.374505265E+01  1.088939259E+02 -2.615114339E+02  3.105397635E+02  1.250000000E+02  0.00000E+00  9.000E+00
      21     1     1     2   511   501 -2.090869741E+00 -2.868169084E+01 -2.057232301E+02  2.077235146E+02  2.697398305E-06  0.00000E+00  9.000E+00
#rwgt            1           1 -0.11718415129779364                6      403941           0
</event>
<event>
      5   9999  3.79277E-02  1.15739E+02 -1.00000E+00  1.21039E-01
      21    -1     0     0   502   501  0.000000000E+00  0.000000000E+00  9.080388272E+01  9.080388272E+01  0.000000000E+00  0.00000E+00  9.000E+00
       1    -1     0     0   501     0  0.000000000E+00  0.000000000E+00 -2.004172460E+03  2.004172460E+03  0.000000000E+00  0.00000E+00  9.000E+00
      25     1     1     2     0     0 -7.711842729E+01 -1.749566379E+02 -1.093633662E+03  1.117236172E+03  1.250000000E+02  0.00000E+00  9.000E+00
      25     1     1     2     0     0  1.876895649E+02  1.407593856E+02 -1.650446338E+02  3.128982399E+02  1.250000000E+02  0.00000E+00  9.000E+00
       1     1     1     2   502     0 -1.105711376E+02  3.419725227E+01 -6.546902813E+02  6.648419308E+02  1.078959322E-05  0.00000E+00  9.000E+00
#rwgt            1           1   4.2628547916602949E-002           6      404149           0
</event>
<event>
      5   9999  3.79277E-02  7.86866E+01 -1.00000E+00  1.28698E-01
       2    -1     0     0   502     0  0.000000000E+00  0.000000000E+00  1.774316382E+03  1.774316382E+03  0.000000000E+00  0.00000E+00  9.000E+00
      21    -1     0     0   501   502  0.000000000E+00  0.000000000E+00 -6.903833023E+01  6.903833023E+01  0.000000000E+00  0.00000E+00  9.000E+00
      25     1     1     2     0     0  7.731114317E+01 -4.094852281E+01  2.968486269E+02  3.337632419E+02  1.250000000E+02  0.00000E+00  9.000E+00
      25     1     1     2     0     0 -1.117749802E+01 -1.688654468E+00  3.016685869E+01  1.290845745E+02  1.250000000E+02  0.00000E+00  9.000E+00
       2     1     1     2   501     0 -6.613364516E+01  4.263717728E+01  1.378262566E+03  1.380506896E+03  2.157918644E-05  0.00000E+00  9.000E+00
#rwgt            1           1   5.2555248669230357E-002           6      404296           0
</event>
<event>
      5   9999 -3.79277E-02  5.08296E+01 -1.00000E+00  1.38669E-01
      21    -1     0     0   502   501  0.000000000E+00  0.000000000E+00  1.276808370E+02  1.276808370E+02  0.000000000E+00  0.00000E+00  9.000E+00
       1    -1     0     0   501     0  0.000000000E+00  0.000000000E+00 -5.595247709E+02  5.595247709E+02  0.000000000E+00  0.00000E+00  9.000E+00
      25     1     1     2     0     0  2.688048522E+01  1.553554609E+02 -1.857914540E+02  2.738637327E+02  1.250000000E+02  0.00000E+00  9.000E+00
      25     1     1     2     0     0 -5.864881824E+01 -1.950343798E+02 -2.670414628E+02  3.583493212E+02  1.250000000E+02  0.00000E+00  9.000E+00
       1     1     1     2   502     0  3.176833302E+01  3.967891885E+01  2.098898293E+01  5.499255393E+01  1.668930054E-06  0.00000E+00  9.000E+00
#rwgt            1           1 -0.17104926753422789                6      404390           0
</event>
<event>
      5   9999  3.79277E-02  4.81784E+00 -1.00000E+00  2.45780E-01
      21    -1     0     0   502   511  0.000000000E+00  0.000000000E+00  3.810566148E+02  3.810566148E+02  0.000000000E+00  0.00000E+00  9.000E+00
      21    -1     0     0   501   502  0.000000000E+00  0.000000000E+00 -2.042346071E+02  2.042346071E+02  0.000000000E+00  0.00000E+00  9.000E+00
      25     1     1     2     0     0  6.500823474E+00 -2.125451021E+02  2.072854543E+02  3.221955007E+02  1.250000000E+02  0.00000E+00  9.000E+00
      25     1     1     2     0     0 -9.620041899E+00  2.088733032E+02 -4.504479728E+01  2.477390477E+02  1.250000000E+02  0.00000E+00  9.000E+00
      21     1     1     2   501   511  3.119218426E+00  3.671798824E+00  1.458135071E+01  1.535667343E+01  2.384185791E-07  0.00000E+00  9.000E+00
#rwgt            1           1   3.9246933471005413E-002           6      404545           0
</event>
<event>
      5   9999  3.79277E-02  7.16654E+01 -1.00000E+00  1.30706E-01
      21    -1     0     0   512   501  0.000000000E+00  0.000000000E+00  6.778611361E+02  6.778611361E+02  0.000000000E+00  0.00000E+00  9.000E+00
      21    -1     0     0   501   502  0.000000000E+00  0.000000000E+00 -3.003171875E+02  3.003171875E+02  0.000000000E+00  0.00000E+00  9.000E+00
      25     1     1     2     0     0  6.837940041E+01  7.659833366E+01 -2.357186702E+02  2.858869333E+02  1.250000000E+02  0.00000E+00  9.000E+00
      25     1     1     2     0     0  3.184746320E+00 -7.278973449E+01  1.044260601E+02  1.784328727E+02  1.250000000E+02  0.00000E+00  9.000E+00
      21     1     1     2   512   502 -7.156414673E+01 -3.808599176E+00  5.088365588E+02  5.138585176E+02  0.000000000E+00  0.00000E+00  9.000E+00
#rwgt            1           1   5.1635822574164165E-002           6      404963           0
</event>
<event>
      5   9999  3.79277E-02  1.44923E+01 -1.00000E+00  1.78804E-01
      21    -1     0     0   511   501  0.000000000E+00  0.000000000E+00  3.670648636E+02  3.670648636E+02  0.000000000E+00  0.00000E+00  9.000E+00
      21    -1     0     0   501   502  0.000000000E+00  0.000000000E+00 -1.269378311E+02  1.269378311E+02  0.000000000E+00  0.00000E+00  9.000E+00
      25     1     1     2     0     0 -2.133183323E+01  5.387376906E+01 -4.846950626E+01  1.460538364E+02  1.250000000E+02  0.00000E+00  9.000E+00
      25     1     1     2     0     0  2.191202654E+01 -6.835442488E+01  1.479552646E+02  2.065628830E+02  1.250000000E+02  0.00000E+00  9.000E+00
      21     1     1     2   511   502 -5.801933134E-01  1.448065582E+01  1.406412742E+02  1.413859753E+02  2.697398305E-06  0.00000E+00  9.000E+00
#rwgt            1           1   3.9575014047009645E-002           6      405056           0
</event>
<event>
      5   9999  3.79277E-02  3.82802E+01 -1.00000E+00  1.46034E-01
      21    -1     0     0   512   501  0.000000000E+00  0.000000000E+00  1.323477338E+02  1.323477338E+02  0.000000000E+00  0.00000E+00  9.000E+00
      21    -1     0     0   501   502  0.000000000E+00  0.000000000E+00 -7.108382226E+02  7.108382226E+02  0.000000000E+00  0.00000E+00  9.000E+00
      25     1     1     2     0     0 -9.500875773E+01 -1.063356601E+02 -1.419383944E+02  2.368658786E+02  1.250000000E+02  0.00000E+00  9.000E+00
      25     1     1     2     0     0  1.288643466E+02  8.847022930E+01 -4.964265469E+02  5.352544421E+02  1.250000000E+02  0.00000E+00  9.000E+00
      21     1     1     2   512   502 -3.385558882E+01  1.786543085E+01  5.987445246E+01  7.106563566E+01  1.168007728E-06  0.00000E+00  9.000E+00
#rwgt            1           1   4.4504765786514099E-002           6      405328           0
</event>
<event>
      5   9999  3.79277E-02  8.40822E+00 -1.00000E+00  2.04884E-01
      21    -1     0     0   502   501  0.000000000E+00  0.000000000E+00  3.133386430E+01  3.133386430E+01  0.000000000E+00  0.00000E+00  9.000E+00
      21    -1     0     0   501   511  0.000000000E+00  0.000000000E+00 -2.769727011E+03  2.769727011E+03  0.000000000E+00  0.00000E+00  9.000E+00
      25     1     1     2     0     0  2.459860530E+02  1.965637360E+01 -9.575926381E+02  9.967467943E+02  1.250000000E+02  0.00000E+00  9.000E+00
      25     1     1     2     0     0 -2.522187567E+02 -1.401265960E+01 -1.721087278E+03  1.744011776E+03  1.250000000E+02  0.00000E+00  9.000E+00
      21     1     1     2   502   511  6.232703636E+00 -5.643714003E+00 -5.971323045E+01  6.030230504E+01  6.743495762E-07  0.00000E+00  9.000E+00
#rwgt            1           1   1.3359393562558410E-002           6      405536           0
</event>
<event>
      5   9999  3.79277E-02  1.63465E+01 -1.00000E+00  1.73937E-01
      21    -1     0     0   502   501  0.000000000E+00  0.000000000E+00  4.734122958E+02  4.734122958E+02  0.000000000E+00  0.00000E+00  9.000E+00
      21    -1     0     0   501   512  0.000000000E+00  0.000000000E+00 -1.221512850E+02  1.221512850E+02  0.000000000E+00  0.00000E+00  9.000E+00
      25     1     1     2     0     0 -2.189041661E+01 -7.314347032E+01  3.967941080E+02  4.229653907E+02  1.250000000E+02  0.00000E+00  9.000E+00
      25     1     1     2     0     0  9.456925294E+00  6.253134075E+01 -1.891160958E+01  1.413585901E+02  1.250000000E+02  0.00000E+00  9.000E+00
      21     1     1     2   502   512  1.243349131E+01  1.061212957E+01 -2.662148770E+01  3.123959999E+01  5.840038640E-07  0.00000E+00  9.000E+00
#rwgt            1           1   2.4479252526163779E-002           6      405968           0
</event>
<event>
      5   9999  3.79277E-02  9.01769E+01 -1.00000E+00  1.25882E-01
      21    -1     0     0   502   501  0.000000000E+00  0.000000000E+00  1.975356068E+02  1.975356068E+02  0.000000000E+00  0.00000E+00  9.000E+00
       2    -1     0     0   501     0  0.000000000E+00  0.000000000E+00 -1.189383925E+03  1.189383925E+03  0.000000000E+00  0.00000E+00  9.000E+00
      25     1     1     2     0     0  1.692152450E+02  1.169723757E+02  1.638258852E+01  2.412669165E+02  1.250000000E+02  0.00000E+00  9.000E+00
      25     1     1     2     0     0 -1.826595334E+02 -2.780333306E+01 -1.208605938E+02  2.537120683E+02  1.250000000E+02  0.00000E+00  9.000E+00
       2     1     1     2   502     0  1.344428842E+01 -8.916904260E+01 -8.873703127E+02  8.919405467E+02  0.000000000E+00  0.00000E+00  9.000E+00
#rwgt            1           1   2.2981287259337305E-002           6      406278           0
</event>
<event>
      5   9999  3.79277E-02  1.19586E+02 -1.00000E+00  1.20432E-01
      21    -1     0     0   502   501  0.000000000E+00  0.000000000E+00  1.798330804E+02  1.798330804E+02  0.000000000E+00  0.00000E+00  9.000E+00
      21    -1     0     0   501   511  0.000000000E+00  0.000000000E+00 -2.839568986E+02  2.839568986E+02  0.000000000E+00  0.00000E+00  9.000E+00
      25     1     1     2     0     0 -4.857873233E+01 -1.477244558E+01  5.967977707E+01  1.475289605E+02  1.250000000E+02  0.00000E+00  9.000E+00
      25     1     1     2     0     0 -5.532319474E+01 -4.443191155E+01 -5.288831501E+01  1.531568624E+02  1.250000000E+02  0.00000E+00  9.000E+00
      21     1     1     2   502   511  1.039019271E+02  5.920435713E+01 -1.109152802E+02  1.631041561E+02  1.348699152E-06  0.00000E+00  9.000E+00
#rwgt            1           1   3.4390081679575878E-002           6      406422           0
</event>
<event>
      5   9999  3.79277E-02  1.38305E+02 -1.00000E+00  1.17808E-01
      21    -1     0     0   502   501  0.000000000E+00  0.000000000E+00  1.606938971E+02  1.606938971E+02  0.000000000E+00  0.00000E+00  9.000E+00
      21    -1     0     0   501   512  0.000000000E+00  0.000000000E+00 -4.721458887E+02  4.721458887E+02  0.000000000E+00  0.00000E+00  9.000E+00
      25     1     1     2     0     0 -2.871637005E+01  6.646839116E+01 -1.629665671E+02  2.177746058E+02  1.250000000E+02  0.00000E+00  9.000E+00
      25     1     1     2     0     0 -3.003158253E+01 -1.916755254E+02 -2.959770822E+01  2.326852538E+02  1.250000000E+02  0.00000E+00  9.000E+00
      21     1     1     2   502   512  5.874795258E+01  1.252071343E+02 -1.188877163E+02  1.823799263E+02  1.348699152E-06  0.00000E+00  9.000E+00
#rwgt            1           1   4.0725194006350364E-002           6      406540           0
</event>
<event>
      5   9999  3.79277E-02  6.76933E+01 -1.00000E+00  1.31962E-01
      21    -1     0     0   502   501  0.000000000E+00  0.000000000E+00  3.451278493E+02  3.451278493E+02  0.000000000E+00  0.00000E+00  9.000E+00
      21    -1     0     0   511   502  0.000000000E+00  0.000000000E+00 -1.695401908E+02  1.695401908E+02  0.000000000E+00  0.00000E+00  9.000E+00
      25     1     1     2     0     0  1.859978026E+02  6.853750620E+01  1.012770819E+02  2.552932033E+02  1.250000000E+02  0.00000E+00  9.000E+00
      25     1     1     2     0     0 -1.229095638E+02 -4.399656464E+01  5.136604612E+01  1.878987208E+02  1.250000000E+02  0.00000E+00  9.000E+00
      21     1     1     2   511   501 -6.308823879E+01 -2.454094155E+01  2.294453049E+01  7.147611605E+01  8.259061849E-07  0.00000E+00  9.000E+00
#rwgt            1           1   3.2544392638663246E-002           6      406687           0
</event>
<event>
      5   9999  3.79277E-02  5.75331E+01 -1.00000E+00  1.35685E-01
       2    -1     0     0   502     0  0.000000000E+00  0.000000000E+00  1.789251871E+02  1.789251871E+02  0.000000000E+00  0.00000E+00  9.000E+00
      21    -1     0     0   501   502  0.000000000E+00  0.000000000E+00 -1.100226453E+03  1.100226453E+03  0.000000000E+00  0.00000E+00  9.000E+00
      25     1     1     2     0     0  6.448991954E+01  1.730550671E+02 -8.469153974E+02  8.757840466E+02  1.250000000E+02  0.00000E+00  9.000E+00
      25     1     1     2     0     0 -6.963829516E+00 -1.721564550E+02 -1.828324183E+02  2.806047631E+02  1.250000000E+02  0.00000E+00  9.000E+00
       2     1     1     2   501     0 -5.752609002E+01 -8.986120482E-01  1.084465494E+02  1.227628307E+02  2.336015456E-06  0.00000E+00  9.000E+00
#rwgt            2          18   1.3727007269976056E-004           6      406799           0
</event>
<event>
      5   9999  3.79277E-02  3.96500E+01 -1.00000E+00  1.45077E-01
      21    -1     0     0   502   501  0.000000000E+00  0.000000000E+00  1.401214911E+02  1.401214911E+02  0.000000000E+00  0.00000E+00  9.000E+00
       2    -1     0     0   501     0  0.000000000E+00  0.000000000E+00 -1.444841686E+03  1.444841686E+03  0.000000000E+00  0.00000E+00  9.000E+00
      25     1     1     2     0     0  2.217362994E+02  1.997836974E+02 -1.972066184E+02  3.789405792E+02  1.250000000E+02  0.00000E+00  9.000E+00
      25     1     1     2     0     0 -2.113018026E+02 -2.380361040E+02 -5.536412563E+02  6.507328786E+02  1.250000000E+02  0.00000E+00  9.000E+00
       2     1     1     2   502     0 -1.043449684E+01  3.825240656E+01 -5.538723206E+02  5.552897197E+02  0.000000000E+00  0.00000E+00  9.000E+00
#rwgt            1           1   3.1576775953113492E-002           6      406833           0
</event>
<event>
      5   9999  3.79277E-02  8.47950E+01 -1.00000E+00  1.27138E-01
       1    -1     0     0   502     0  0.000000000E+00  0.000000000E+00  1.877637146E+03  1.877637146E+03  0.000000000E+00  0.00000E+00  9.000E+00
      21    -1     0     0   501   502  0.000000000E+00  0.000000000E+00 -4.342950745E+01  4.342950745E+01  0.000000000E+00  0.00000E+00  9.000E+00
      25     1     1     2     0     0 -1.394453337E+02 -7.630528170E+01  1.044577991E+03  1.063971652E+03  1.250000000E+02  0.00000E+00  9.000E+00
      25     1     1     2     0     0  9.848324103E+01  2.060396348E+00  1.746041160E+02  2.362515425E+02  1.250000000E+02  0.00000E+00  9.000E+00
       1     1     1     2   501     0  4.096209264E+01  7.424488536E+01  6.150255311E+02  6.208434585E+02  1.321449896E-05  0.00000E+00  9.000E+00
#rwgt            1           1   3.7069596825614115E-002           6      407066           0
</event>
<event>
      5   9999  3.79277E-02  3.05300E+01 -1.00000E+00  1.52513E-01
      21    -1     0     0   502   501  0.000000000E+00  0.000000000E+00  3.786738655E+03  3.786738655E+03  0.000000000E+00  0.00000E+00  9.000E+00
      21    -1     0     0   501   511  0.000000000E+00  0.000000000E+00 -4.658573803E+01  4.658573803E+01  0.000000000E+00  0.00000E+00  9.000E+00
      25     1     1     2     0     0 -1.154506026E+02 -1.028786444E+01  1.617547543E+03  1.626505375E+03  1.250000000E+02  0.00000E+00  9.000E+00
      25     1     1     2     0     0  1.372874374E+02  3.162404213E+01  2.154471479E+03  2.162688206E+03  1.250000000E+02  0.00000E+00  9.000E+00
      21     1     1     2   502   511 -2.183683486E+01 -2.133617769E+01 -3.186610573E+01  4.413081157E+01  2.676241913E-06  0.00000E+00  9.000E+00
#rwgt            1           1   8.0651900241371453E-003           6      407164           0
</event>
<event>
      5   9999  3.79277E-02  7.93357E+01 -1.00000E+00  1.28525E-01
      21    -1     0     0   502   512  0.000000000E+00  0.000000000E+00  3.180086890E+02  3.180086890E+02  0.000000000E+00  0.00000E+00  9.000E+00
      21    -1     0     0   501   502  0.000000000E+00  0.000000000E+00 -1.466493243E+03  1.466493243E+03  0.000000000E+00  0.00000E+00  9.000E+00
      25     1     1     2     0     0  1.012803225E+02 -5.826239616E+01 -1.209864136E+03  1.221903612E+03  1.250000000E+02  0.00000E+00  9.000E+00
      25     1     1     2     0     0 -1.675894364E+02  1.018198902E+02 -1.891795442E+02  2.997789338E+02  1.250000000E+02  0.00000E+00  9.000E+00
      21     1     1     2   501   512  6.630911382E+01 -4.355749402E+01  2.505591262E+02  2.628193858E+02  6.031565972E-06  0.00000E+00  9.000E+00
#rwgt            1           1   5.5331980011216850E-002           6      407230           0
</event>
<event>
      5   9999  3.79277E-02  2.52431E+01 -1.00000E+00  1.58437E-01
      21    -1     0     0   511   501  0.000000000E+00  0.000000000E+00  1.179224121E+02  1.179224121E+02  0.000000000E+00  0.00000E+00  9.000E+00
      21    -1     0     0   501   502  0.000000000E+00  0.000000000E+00 -2.188019778E+02  2.188019778E+02  0.000000000E+00  0.00000E+00  9.000E+00
      25     1     1     2     0     0 -8.950548304E+00 -7.402870194E+01 -3.363983448E+01  1.493887529E+02  1.250000000E+02  0.00000E+00  9.000E+00
      25     1     1     2     0     0  3.412740245E+01  7.220065868E+01 -6.513895278E+01  1.620052403E+02  1.250000000E+02  0.00000E+00  9.000E+00
      21     1     1     2   511   502 -2.517685415E+01  1.828043267E+00 -2.100778506E+00  2.533039671E+01  2.421152116E-07  0.00000E+00  9.000E+00
#rwgt            1           1   7.2141592323638065E-002           6      407314           0
</event>
<event>
      5   9999  3.79277E-02  4.33161E+01 -1.00000E+00  1.42727E-01
      21    -1     0     0   502   512  0.000000000E+00  0.000000000E+00  2.526564340E+02  2.526564340E+02  0.000000000E+00  0.00000E+00  9.000E+00
      21    -1     0     0   501   502  0.000000000E+00  0.000000000E+00 -8.063876669E+02  8.063876669E+02  0.000000000E+00  0.00000E+00  9.000E+00
      25     1     1     2     0     0  9.462824170E+01 -3.622686006E+02 -3.887185824E+02  5.540037720E+02  1.250000000E+02  0.00000E+00  9.000E+00
      25     1     1     2     0     0 -1.327816026E+02  3.417599348E+02 -2.116255745E+02  4.414081907E+02  1.250000000E+02  0.00000E+00  9.000E+00
      21     1     1     2   501   512  3.815336095E+01  2.050866581E+01  4.661292404E+01  6.363213821E+01  0.000000000E+00  0.00000E+00  9.000E+00
#rwgt            1           1   4.0271047195729055E-002           6      407408           0
</event>
<event>
      5   9999  3.79277E-02  1.26669E+01 -1.00000E+00  1.84592E-01
      21    -1     0     0   511   501  0.000000000E+00  0.000000000E+00  1.615738706E+02  1.615738706E+02  0.000000000E+00  0.00000E+00  9.000E+00
      21    -1     0     0   501   502  0.000000000E+00  0.000000000E+00 -4.395053242E+02  4.395053242E+02  0.000000000E+00  0.00000E+00  9.000E+00
      25     1     1     2     0     0 -1.146839582E+01  8.327791290E+01 -3.078350874E+02  3.427158822E+02  1.250000000E+02  0.00000E+00  9.000E+00
      25     1     1     2     0     0  2.227161549E+01 -8.989167705E+01 -6.061681864E+01  1.669608851E+02  1.250000000E+02  0.00000E+00  9.000E+00
      21     1     1     2   511   502 -1.080321966E+01  6.613764147E+00  9.052045243E+01  9.140242742E+01  1.907348633E-06  0.00000E+00  9.000E+00
#rwgt            1           1   4.8780819561029969E-002           6      407582           0
</event>
<event>
      5   9999  3.79277E-02  3.49680E+01 -1.00000E+00  1.48557E-01
      21    -1     0     0   502   512  0.000000000E+00  0.000000000E+00  4.980520551E+02  4.980520551E+02  0.000000000E+00  0.00000E+00  9.000E+00
      21    -1     0     0   501   502  0.000000000E+00  0.000000000E+00 -1.265530975E+02  1.265530975E+02  0.000000000E+00  0.00000E+00  9.000E+00
      25     1     1     2     0     0 -1.942387907E+01 -6.103181847E+01  1.599854766E+00  1.404625554E+02  1.250000000E+02  0.00000E+00  9.000E+00
      25     1     1     2     0     0  3.211128547E+01  9.361695669E+01  5.703711294E+01  1.693325175E+02  1.250000000E+02  0.00000E+00  9.000E+00
      21     1     1     2   501   512 -1.268740641E+01 -3.258513822E+01  3.128619899E+02  3.148100796E+02  0.000000000E+00  0.00000E+00  9.000E+00
#rwgt            1           1  0.10939816464610337                6      407762           0
</event>
<event>
      5   9999  3.79277E-02  1.47619E+02 -1.00000E+00  1.16670E-01
      21    -1     0     0   502   501  0.000000000E+00  0.000000000E+00  4.024316981E+02  4.024316981E+02  0.000000000E+00  0.00000E+00  9.000E+00
      21    -1     0     0   511   502  0.000000000E+00  0.000000000E+00 -1.448259019E+03  1.448259019E+03  0.000000000E+00  0.00000E+00  9.000E+00
      25     1     1     2     0     0  5.377262262E+01  2.777875548E+02 -4.427093872E+02  5.400685346E+02  1.250000000E+02  0.00000E+00  9.000E+00
      25     1     1     2     0     0 -2.008779950E+02 -2.900884326E+02  2.465438389E+02  4.482322301E+02  1.250000000E+02  0.00000E+00  9.000E+00
      21     1     1     2   511   501  1.471053724E+02  1.230087773E+01 -8.496617728E+02  8.623899526E+02  1.078959322E-05  0.00000E+00  9.000E+00
#rwgt            1           1  0.12391802019496934                6      408022           0
</event>
<event>
      5   9999  3.79277E-02  1.01539E+01 -1.00000E+00  1.94993E-01
      21    -1     0     0   502   501  0.000000000E+00  0.000000000E+00  6.383476664E+01  6.383476664E+01  0.000000000E+00  0.00000E+00  9.000E+00
      21    -1     0     0   512   502  0.000000000E+00  0.000000000E+00 -2.760990843E+03  2.760990843E+03  0.000000000E+00  0.00000E+00  9.000E+00
      25     1     1     2     0     0  1.936977713E+01 -1.408684054E+02 -2.590860193E+02  3.208888613E+02  1.250000000E+02  0.00000E+00  9.000E+00
      25     1     1     2     0     0 -2.952046091E+01  1.411247566E+02 -2.435887641E+02  3.094319643E+02  1.250000000E+02  0.00000E+00  9.000E+00
      21     1     1     2   512   501  1.015068378E+01 -2.563512414E-01 -2.194481292E+03  2.194504784E+03  3.051757812E-05  0.00000E+00  9.000E+00
#rwgt            1           1   4.0550638217433911E-002           6      408091           0
</event>
<event>
      5   9999  3.79277E-02  5.61774E+00 -1.00000E+00  2.30006E-01
      21    -1     0     0   502   501  0.000000000E+00  0.000000000E+00  2.996032401E+02  2.996032401E+02  0.000000000E+00  0.00000E+00  9.000E+00
      21    -1     0     0   501   511  0.000000000E+00  0.000000000E+00 -1.781457191E+03  1.781457191E+03  0.000000000E+00  0.00000E+00  9.000E+00
      25     1     1     2     0     0  1.082090868E+02  5.746075450E+01  1.665477925E+02  2.416073508E+02  1.250000000E+02  0.00000E+00  9.000E+00
      25     1     1     2     0     0 -1.103516584E+02 -5.226764774E+01  1.560546640E+01  1.754363876E+02  1.250000000E+02  0.00000E+00  9.000E+00
      21     1     1     2   502   511  2.142571595E+00 -5.193106768E+00 -1.664007210E+03  1.664016693E+03  2.157918644E-05  0.00000E+00  9.000E+00
#rwgt            1           1   4.3971458301417868E-002           6      408349           0
</event>
<event>
      5   9999  3.79277E-02  1.03344E+02 -1.00000E+00  1.23189E-01
      -1    -1     0     0     0   501  0.000000000E+00  0.000000000E+00  4.359690466E+02  4.359690466E+02  0.000000000E+00  0.00000E+00  9.000E+00
      21    -1     0     0   501   502  0.000000000E+00  0.000000000E+00 -6.202988533E+02  6.202988533E+02  0.000000000E+00  0.00000E+00  9.000E+00
      25     1     1     2     0     0 -3.483822025E+02 -4.731327359E+01 -1.150418731E+02  3.904719420E+02  1.250000000E+02  0.00000E+00  9.000E+00
      25     1     1     2     0     0  3.006857604E+02 -4.436597456E+01 -2.795851890E+02  4.314778605E+02  1.250000000E+02  0.00000E+00  9.000E+00
      -1     1     1     2     0   502  4.769644209E+01  9.167924815E+01  2.102972554E+02  2.343180974E+02  3.814697266E-06  0.00000E+00  9.000E+00
#rwgt            1           1   3.5081866618335220E-002           6      408682           0
</event>
<event>
      5   9999  3.79277E-02  7.01724E+01 -1.00000E+00  1.31167E-01
      21    -1     0     0   502   511  0.000000000E+00  0.000000000E+00  6.158202601E+02  6.158202601E+02  0.000000000E+00  0.00000E+00  9.000E+00
      21    -1     0     0   501   502  0.000000000E+00  0.000000000E+00 -2.407840389E+02  2.407840389E+02  0.000000000E+00  0.00000E+00  9.000E+00
      25     1     1     2     0     0 -1.398661603E+02 -7.234446706E+01  3.553418972E+02  4.082757997E+02  1.250000000E+02  0.00000E+00  9.000E+00
      25     1     1     2     0     0  8.925288443E+01  1.209495686E+02 -1.617815651E+02  2.537580547E+02  1.250000000E+02  0.00000E+00  9.000E+00
      21     1     1     2   501   511  5.061327584E+01 -4.860510151E+01  1.814758891E+02  1.945704446E+02  2.697398305E-06  0.00000E+00  9.000E+00
#rwgt            1           1   4.3100609131179052E-002           6      408825           0
</event>
<event>
      5   9999  3.79277E-02  7.72997E+00 -1.00000E+00  2.09640E-01
      21    -1     0     0   502   501  0.000000000E+00  0.000000000E+00  1.247859920E+02  1.247859920E+02  0.000000000E+00  0.00000E+00  9.000E+00
      21    -1     0     0   512   502  0.000000000E+00  0.000000000E+00 -2.907183822E+02  2.907183822E+02  0.000000000E+00  0.00000E+00  9.000E+00
      25     1     1     2     0     0  3.069945723E+01  2.730743649E+01 -2.219312581E+02  2.580051087E+02  1.250000000E+02  0.00000E+00  9.000E+00
      25     1     1     2     0     0 -2.371599696E+01 -2.399326349E+01  6.562446463E+01  1.451540408E+02  1.250000000E+02  0.00000E+00  9.000E+00
      21     1     1     2   512   501 -6.983460272E+00 -3.314173000E+00 -9.625596714E+00  1.234522467E+01  0.000000000E+00  0.00000E+00  9.000E+00
#rwgt            1           1   4.3501763032404606E-002           6      408951           0
</event>
<event>
      5   9999  3.79277E-02  1.91435E+01 -1.00000E+00  1.67953E-01
      21    -1     0     0   502   511  0.000000000E+00  0.000000000E+00  4.388036885E+02  4.388036885E+02  0.000000000E+00  0.00000E+00  9.000E+00
      21    -1     0     0   501   502  0.000000000E+00  0.000000000E+00 -1.482318133E+02  1.482318133E+02  0.000000000E+00  0.00000E+00  9.000E+00
      25     1     1     2     0     0  1.844758523E+02 -6.878689458E+01  5.704270171E+01  2.400871649E+02  1.250000000E+02  0.00000E+00  9.000E+00
      25     1     1     2     0     0 -1.945961504E+02  5.253715854E+01  2.200556370E+02  3.235387120E+02  1.250000000E+02  0.00000E+00  9.000E+00
      21     1     1     2   501   511  1.012029814E+01  1.624973603E+01  1.347353648E+01  2.340962496E+01  1.685873940E-07  0.00000E+00  9.000E+00
#rwgt            1           1   3.1028308891567248E-002           6      409197           0
</event>
<event>
      5   9999  3.79277E-02  8.42531E+01 -1.00000E+00  1.27270E-01
      21    -1     0     0   502   501  0.000000000E+00  0.000000000E+00  8.279261834E+01  8.279261834E+01  0.000000000E+00  0.00000E+00  9.000E+00
      21    -1     0     0   512   502  0.000000000E+00  0.000000000E+00 -1.538853524E+03  1.538853524E+03  0.000000000E+00  0.00000E+00  9.000E+00
      25     1     1     2     0     0  1.345397197E+01 -1.331248421E+02 -1.074830376E+03  1.090315812E+03  1.250000000E+02  0.00000E+00  9.000E+00
      25     1     1     2     0     0  4.701293393E+01  1.917962426E+02 -1.323693993E+02  2.685938803E+02  1.250000000E+02  0.00000E+00  9.000E+00
      21     1     1     2   512   501 -6.046690590E+01 -5.867140055E+01 -2.488611308E+02  2.627364505E+02  0.000000000E+00  0.00000E+00  9.000E+00
#rwgt            1           1   4.4344159099078968E-002           6      409353           0
</event>
<event>
      5   9999  3.79277E-02  1.49841E+01 -1.00000E+00  1.77427E-01
      21    -1     0     0   502   501  0.000000000E+00  0.000000000E+00  4.296204299E+02  4.296204299E+02  0.000000000E+00  0.00000E+00  9.000E+00
      21    -1     0     0   511   502  0.000000000E+00  0.000000000E+00 -1.996204508E+02  1.996204508E+02  0.000000000E+00  0.00000E+00  9.000E+00
      25     1     1     2     0     0  1.862569258E+02  7.862071056E+01  2.691662088E+02  3.590937294E+02  1.250000000E+02  0.00000E+00  9.000E+00
      25     1     1     2     0     0 -1.737799367E+02 -7.032333018E+01  3.058701827E+00  2.253423902E+02  1.250000000E+02  0.00000E+00  9.000E+00
      21     1     1     2   511   501 -1.247698903E+01 -8.297380383E+00 -4.222493150E+01  4.480476109E+01  4.768371582E-07  0.00000E+00  9.000E+00
#rwgt            1           1   2.8575753568499278E-002           6      409479           0
</event>
<event>
      5   9999  3.79277E-02  1.65727E+01 -1.00000E+00  1.73399E-01
      21    -1     0     0   512   501  0.000000000E+00  0.000000000E+00  6.716027057E+02  6.716027057E+02  0.000000000E+00  0.00000E+00  9.000E+00
      21    -1     0     0   501   502  0.000000000E+00  0.000000000E+00 -2.244694593E+02  2.244694593E+02  0.000000000E+00  0.00000E+00  9.000E+00
      25     1     1     2     0     0  9.985068902E+01 -1.396996048E+02 -1.238646862E+02  2.458731384E+02  1.250000000E+02  0.00000E+00  9.000E+00
      25     1     1     2     0     0 -1.148659528E+02  1.326854872E+02  2.553150641E+02  3.340814386E+02  1.250000000E+02  0.00000E+00  9.000E+00
      21     1     1     2   512   502  1.501526375E+01  7.014117573E+00  3.156828685E+02  3.161175881E+02  3.814697266E-06  0.00000E+00  9.000E+00
#rwgt            1           1   2.3377958317280310E-002           6      409685           0
</event>
<event>
      5   9999  3.79277E-02  1.92890E+01 -1.00000E+00  1.67677E-01
      21    -1     0     0   502   501  0.000000000E+00  0.000000000E+00  2.058797252E+02  2.058797252E+02  0.000000000E+00  0.00000E+00  9.000E+00
      21    -1     0     0   511   502  0.000000000E+00  0.000000000E+00 -2.814794998E+02  2.814794998E+02  0.000000000E+00  0.00000E+00  9.000E+00
      25     1     1     2     0     0 -9.675428378E+00  7.921104383E+01  1.340836145E+02  1.999285349E+02  1.250000000E+02  0.00000E+00  9.000E+00
      25     1     1     2     0     0  1.298369462E+01 -6.020788211E+01 -8.929266263E+01  1.655045165E+02  1.250000000E+02  0.00000E+00  9.000E+00
      21     1     1     2   511   501 -3.308266244E+00 -1.900316172E+01 -1.203907265E+02  1.219261735E+02  1.348699152E-06  0.00000E+00  9.000E+00
#rwgt            1           1   5.0186598769850245E-002           6      410117           0
</event>
<event>
      5   9999 -3.79277E-02  1.88853E+01 -1.00000E+00  1.68451E-01
      21    -1     0     0   502   501  0.000000000E+00  0.000000000E+00  2.376973178E+02  2.376973178E+02  0.000000000E+00  0.00000E+00  9.000E+00
      21    -1     0     0   512   502  0.000000000E+00  0.000000000E+00 -6.450124451E+02  6.450124451E+02  0.000000000E+00  0.00000E+00  9.000E+00
      25     1     1     2     0     0 -3.007583060E+02 -2.029385014E+02 -1.594039358E+02  4.155408629E+02  1.250000000E+02  0.00000E+00  9.000E+00
      25     1     1     2     0     0  2.826281126E+02  2.082251620E+02 -2.177921402E+02  4.316187953E+02  1.250000000E+02  0.00000E+00  9.000E+00
      21     1     1     2   512   501  1.813019336E+01 -5.286660588E+00 -3.011905134E+01  3.555010471E+01  3.371747881E-07  0.00000E+00  9.000E+00
#rwgt            1           1  -9.6209755215611523E-002           6      410441           0
</event>
<event>
      5   9999  3.79277E-02  1.22512E+02 -1.00000E+00  1.19988E-01
      21    -1     0     0   511   501  0.000000000E+00  0.000000000E+00  9.179982857E+01  9.179982857E+01  0.000000000E+00  0.00000E+00  9.000E+00
      21    -1     0     0   501   502  0.000000000E+00  0.000000000E+00 -2.054371872E+03  2.054371872E+03  0.000000000E+00  0.00000E+00  9.000E+00
      25     1     1     2     0     0 -2.399928305E+02 -1.853634810E+02 -9.527280374E+02  1.007607013E+03  1.250000000E+02  0.00000E+00  9.000E+00
      25     1     1     2     0     0  1.644173230E+02  8.893997368E+01 -9.890607497E+02  1.014302490E+03  1.250000000E+02  0.00000E+00  9.000E+00
      21     1     1     2   511   502  7.557550749E+01  9.642350732E+01 -2.078325663E+01  1.242621980E+02  4.324521338E-06  0.00000E+00  9.000E+00
#rwgt            1           1   3.2359364692770190E-002           6      410825           0
</event>
<event>
      5   9999  3.79277E-02  6.48188E+01 -1.00000E+00  1.32935E-01
      21    -1     0     0   512   501  0.000000000E+00  0.000000000E+00  7.904252599E+01  7.904252599E+01  0.000000000E+00  0.00000E+00  9.000E+00
      21    -1     0     0   501   502  0.000000000E+00  0.000000000E+00 -1.551429777E+03  1.551429777E+03  0.000000000E+00  0.00000E+00  9.000E+00
      25     1     1     2     0     0  7.714664444E+01  9.356711648E-01 -8.578734456E+01  1.701086380E+02  1.250000000E+02  0.00000E+00  9.000E+00
      25     1     1     2     0     0 -6.049080380E+01 -6.357798402E+01 -1.387159844E+03  1.395542450E+03  1.250000000E+02  0.00000E+00  9.000E+00
      21     1     1     2   512   502 -1.665584065E+01  6.264231285E+01  5.599373790E-01  6.482121502E+01  1.417119232E-06  0.00000E+00  9.000E+00
#rwgt            1           1   3.3297370597086054E-002           6      410904           0
</event>
<event>
      5   9999  3.79277E-02  1.74075E+02 -1.00000E+00  1.13888E-01
       2    -1     0     0   502     0  0.000000000E+00  0.000000000E+00  2.574406102E+03  2.574406102E+03  0.000000000E+00  0.00000E+00  9.000E+00
      21    -1     0     0   501   502  0.000000000E+00  0.000000000E+00 -9.570849765E+01  9.570849765E+01  0.000000000E+00  0.00000E+00  9.000E+00
      25     1     1     2     0     0  1.207915658E+01 -2.394829497E+02  9.277779792E+02  9.663824129E+02  1.250000000E+02  0.00000E+00  9.000E+00
      25     1     1     2     0     0 -7.841501616E+01  7.854336964E+01  2.631267808E+01  1.692197763E+02  1.250000000E+02  0.00000E+00  9.000E+00
       2     1     1     2   501     0  6.633585958E+01  1.609395801E+02  1.524606947E+03  1.534512410E+03  2.157918644E-05  0.00000E+00  9.000E+00
#rwgt            1           1  0.11102566544916982                6      411016           0
</event>
<event>
      5   9999  3.79277E-02  2.48235E+01 -1.00000E+00  1.58982E-01
       1    -1     0     0   502     0  0.000000000E+00  0.000000000E+00  2.142896566E+03  2.142896566E+03  0.000000000E+00  0.00000E+00  9.000E+00
      21    -1     0     0   501   502  0.000000000E+00  0.000000000E+00 -4.153766685E+02  4.153766685E+02  0.000000000E+00  0.00000E+00  9.000E+00
      25     1     1     2     0     0 -1.658038162E+01  1.657510109E+02 -9.197183003E+01  2.276666954E+02  1.250000000E+02  0.00000E+00  9.000E+00
      25     1     1     2     0     0  1.092588721E+01 -1.415800512E+02 -2.204605381E+02  2.905032440E+02  1.250000000E+02  0.00000E+00  9.000E+00
       1     1     1     2   501     0  5.654494409E+00 -2.417095972E+01  2.039952266E+03  2.040103296E+03  2.157918644E-05  0.00000E+00  9.000E+00
#rwgt            1           1   4.2515714754021522E-002           6      411172           0
</event>
<event>
      5   9999  3.79277E-02  7.20385E+01 -1.00000E+00  1.30592E-01
      21    -1     0     0   502   501  0.000000000E+00  0.000000000E+00  2.218231138E+02  2.218231138E+02  0.000000000E+00  0.00000E+00  9.000E+00
      21    -1     0     0   511   502  0.000000000E+00  0.000000000E+00 -3.179930820E+02  3.179930820E+02  0.000000000E+00  0.00000E+00  9.000E+00
      25     1     1     2     0     0 -9.499428162E+01 -2.678070170E+00  1.091193214E+02  1.912148318E+02  1.250000000E+02  0.00000E+00  9.000E+00
      25     1     1     2     0     0  9.994952518E+01 -6.918977355E+01 -5.649584925E+01  1.832864243E+02  1.250000000E+02  0.00000E+00  9.000E+00
      21     1     1     2   511   501 -4.955243560E+00  7.186784372E+01 -1.487934403E+02  1.653149397E+02  0.000000000E+00  0.00000E+00  9.000E+00
#rwgt            1           1   3.5916429422498217E-002           6      411413           0
</event>
<event>
      5   9999  3.79277E-02  4.90386E+01 -1.00000E+00  1.39558E-01
      21    -1     0     0   502   512  0.000000000E+00  0.000000000E+00  9.456522598E+01  9.456522598E+01  0.000000000E+00  0.00000E+00  9.000E+00
      21    -1     0     0   501   502  0.000000000E+00  0.000000000E+00 -1.231441911E+03  1.231441911E+03  0.000000000E+00  0.00000E+00  9.000E+00
      25     1     1     2     0     0 -1.977151348E+02 -6.053615609E+01 -1.443585650E+02  2.814610027E+02  1.250000000E+02  0.00000E+00  9.000E+00
      25     1     1     2     0     0  1.848908749E+02  1.078681751E+02 -9.422904879E+02  9.743492918E+02  1.250000000E+02  0.00000E+00  9.000E+00
      21     1     1     2   501   512  1.282425987E+01 -4.733201903E+01 -5.022763192E+01  7.019684234E+01  1.168007728E-06  0.00000E+00  9.000E+00
#rwgt            1           1   3.7164684611296697E-002           6      411504           0
</event>
<event>
      5   9999  3.79277E-02  2.80471E+01 -1.00000E+00  1.55098E-01
      21    -1     0     0   502   501  0.000000000E+00  0.000000000E+00  7.094765679E+01  7.094765679E+01  0.000000000E+00  0.00000E+00  9.000E+00
      21    -1     0     0   511   502  0.000000000E+00  0.000000000E+00 -5.375214573E+02  5.375214573E+02  0.000000000E+00  0.00000E+00  9.000E+00
      25     1     1     2     0     0 -1.250143503E+02 -2.768305125E+01 -2.021054824E+02  2.699380765E+02  1.250000000E+02  0.00000E+00  9.000E+00
      25     1     1     2     0     0  1.218275018E+02  5.554855149E+01 -2.255804197E+02  2.905840800E+02  1.250000000E+02  0.00000E+00  9.000E+00
      21     1     1     2   511   501  3.186848524E+00 -2.786550024E+01 -3.888789834E+01  4.794695761E+01  9.536743164E-07  0.00000E+00  9.000E+00
#rwgt            1           1   1.5121721239748527E-003           6      411644           0
</event>
<event>
      5   9999 -3.79277E-02  6.35534E+01 -1.00000E+00  1.33382E-01
      21    -1     0     0   502   501  0.000000000E+00  0.000000000E+00  5.088585931E+02  5.088585931E+02  0.000000000E+00  0.00000E+00  9.000E+00
      21    -1     0     0   512   502  0.000000000E+00  0.000000000E+00 -3.860080594E+02  3.860080594E+02  0.000000000E+00  0.00000E+00  9.000E+00
      25     1     1     2     0     0  1.760478284E+02  7.596392410E+01  2.100254478E+02  3.106429531E+02  1.250000000E+02  0.00000E+00  9.000E+00
      25     1     1     2     0     0 -1.154262188E+02 -9.504411558E+01  2.063869912E+02  2.838612091E+02  1.250000000E+02  0.00000E+00  9.000E+00
      21     1     1     2   512   501 -6.062160954E+01  1.908019148E+01 -2.935619054E+02  3.003624902E+02  5.394796609E-06  0.00000E+00  9.000E+00
#rwgt            1           1  -5.4334977002050283E-003           6      411824           0
</event>
<event>
      5   9999  3.79277E-02  5.15914E+01 -1.00000E+00  1.38304E-01
      21    -1     0     0   502   511  0.000000000E+00  0.000000000E+00  1.542370858E+02  1.542370858E+02  0.000000000E+00  0.00000E+00  9.000E+00
      21    -1     0     0   501   502  0.000000000E+00  0.000000000E+00 -1.254310070E+03  1.254310070E+03  0.000000000E+00  0.00000E+00  9.000E+00
      25     1     1     2     0     0  3.608096791E+02  9.033575590E+01 -4.442466126E+02  5.927260971E+02  1.250000000E+02  0.00000E+00  9.000E+00
      25     1     1     2     0     0 -3.929114471E+02 -1.307232741E+02 -6.017992295E+02  7.411175968E+02  1.250000000E+02  0.00000E+00  9.000E+00
      21     1     1     2   501   511  3.210176797E+01  4.038751816E+01 -5.402714194E+01  7.470346174E+01  1.348699152E-06  0.00000E+00  9.000E+00
#rwgt            1           1   3.9490888596845221E-002           6      411933           0
</event>
<event>
      5   9999  3.79277E-02  9.69225E+01 -1.00000E+00  1.24442E-01
      21    -1     0     0   502   501  0.000000000E+00  0.000000000E+00  3.525662689E+02  3.525662689E+02  0.000000000E+00  0.00000E+00  9.000E+00
      -2    -1     0     0     0   502  0.000000000E+00  0.000000000E+00 -5.059520266E+02  5.059520266E+02  0.000000000E+00  0.00000E+00  9.000E+00
      25     1     1     2     0     0  2.874511219E+02  8.081463457E+01  1.274872000E+02  3.479039218E+02  1.250000000E+02  0.00000E+00  9.000E+00
      25     1     1     2     0     0 -1.992349433E+02 -1.209627714E+02 -3.118112173E+02  4.088738068E+02  1.250000000E+02  0.00000E+00  9.000E+00
      -2     1     1     2     0   501 -8.821617860E+01  4.014813680E+01  3.093825951E+01  1.017405669E+02  8.920806376E-07  0.00000E+00  9.000E+00
#rwgt            2           9   4.5890275403093601E-006           6      411983           0
</event>
<event>
      5   9999  3.79277E-02  1.48166E+02 -1.00000E+00  1.16606E-01
      21    -1     0     0   502   501  0.000000000E+00  0.000000000E+00  3.063748548E+02  3.063748548E+02  0.000000000E+00  0.00000E+00  9.000E+00
      21    -1     0     0   501   511  0.000000000E+00  0.000000000E+00 -2.585492303E+02  2.585492303E+02  0.000000000E+00  0.00000E+00  9.000E+00
      25     1     1     2     0     0  1.217292722E+02  1.396084934E+02  2.320850765E+01  2.246601477E+02  1.250000000E+02  0.00000E+00  9.000E+00
      25     1     1     2     0     0  2.380866705E+01 -1.118240620E+02  7.291230864E+01  1.844252646E+02  1.250000000E+02  0.00000E+00  9.000E+00
      21     1     1     2   502   511 -1.455379392E+02 -2.778443145E+01 -4.829519183E+01  1.558386728E+02  1.348699152E-06  0.00000E+00  9.000E+00
#rwgt            1           1   3.7931490640137545E-002           6      412062           0
</event>
<event>
      5   9999  3.79277E-02  1.00025E+02 -1.00000E+00  1.23823E-01
      21    -1     0     0   502   501  0.000000000E+00  0.000000000E+00  6.439922760E+02  6.439922760E+02  0.000000000E+00  0.00000E+00  9.000E+00
      21    -1     0     0   512   502  0.000000000E+00  0.000000000E+00 -9.481607600E+02  9.481607600E+02  0.000000000E+00  0.00000E+00  9.000E+00
      25     1     1     2     0     0 -4.845846571E+02  2.233053471E+02  3.173739788E+02  6.332762512E+02  1.250000000E+02  0.00000E+00  9.000E+00
      25     1     1     2     0     0  3.935421026E+02 -1.818787558E+02 -1.479492212E+02  4.748360142E+02  1.250000000E+02  0.00000E+00  9.000E+00
      21     1     1     2   512   501  9.104255447E+01 -4.142659129E+01 -4.735932415E+02  4.840407706E+02  5.394796609E-06  0.00000E+00  9.000E+00
#rwgt            1           1  0.26750310069585564                6      412155           0
</event>
<event>
      5   9999  3.79277E-02  3.94866E+01 -1.00000E+00  1.45189E-01
      21    -1     0     0   502   501  0.000000000E+00  0.000000000E+00  1.557008878E+03  1.557008878E+03  0.000000000E+00  0.00000E+00  9.000E+00
      21    -1     0     0   511   502  0.000000000E+00  0.000000000E+00 -4.439705397E+01  4.439705397E+01  0.000000000E+00  0.00000E+00  9.000E+00
      25     1     1     2     0     0  1.111154703E+02 -1.594097904E+02  5.702811488E+02  6.153078235E+02  1.250000000E+02  0.00000E+00  9.000E+00
      25     1     1     2     0     0 -1.504211188E+02  1.556334911E+02  8.405935256E+02  8.769668020E+02  1.250000000E+02  0.00000E+00  9.000E+00
      21     1     1     2   511   501  3.930564850E+01  3.776299221E+00  1.017371501E+02  1.091313069E+02  1.348699152E-06  0.00000E+00  9.000E+00
#rwgt            1           1   4.5503950767062672E-002           6      412404           0
</event>
<event>
      5   9999  3.79277E-02  1.85168E+02 -1.00000E+00  1.12880E-01
      21    -1     0     0   502   501  0.000000000E+00  0.000000000E+00  7.550174582E+02  7.550174582E+02  0.000000000E+00  0.00000E+00  9.000E+00
      21    -1     0     0   512   502  0.000000000E+00  0.000000000E+00 -2.619634834E+02  2.619634834E+02  0.000000000E+00  0.00000E+00  9.000E+00
      25     1     1     2     0     0  1.104617029E+02  2.524828254E+02  3.544693049E+02  4.660717252E+02  1.250000000E+02  0.00000E+00  9.000E+00
      25     1     1     2     0     0 -1.694336686E+01 -9.266590384E+01  2.780616387E+02  3.190882673E+02  1.250000000E+02  0.00000E+00  9.000E+00
      21     1     1     2   512   501 -9.351833604E+01 -1.598169215E+02 -1.394769689E+02  2.318209491E+02  5.046370146E-06  0.00000E+00  9.000E+00
#rwgt            1           1   3.5913528406503997E-002           6      412563           0
</event>
<event>
      5   9999  3.79277E-02  1.33161E+01 -1.00000E+00  1.82398E-01
      21    -1     0     0   511   501  0.000000000E+00  0.000000000E+00  4.965054445E+02  4.965054445E+02  0.000000000E+00  0.00000E+00  9.000E+00
      21    -1     0     0   501   502  0.000000000E+00  0.000000000E+00 -9.042320992E+01  9.042320992E+01  0.000000000E+00  0.00000E+00  9.000E+00
      25     1     1     2     0     0 -8.034414087E+01 -3.270489292E+01  2.916953542E+02  3.289923565E+02  1.250000000E+02  0.00000E+00  9.000E+00
      25     1     1     2     0     0  8.435151865E+01  4.540364845E+01  1.560026154E+01  1.582562421E+02  1.250000000E+02  0.00000E+00  9.000E+00
      21     1     1     2   511   502 -4.007377781E+00 -1.269875553E+01  9.878661885E+01  9.968005584E+01  1.348699152E-06  0.00000E+00  9.000E+00
#rwgt            1           1   4.1744736889580920E-002           6      412777           0
</event>
<event>
      5   9999  3.79277E-02  5.19847E+01 -1.00000E+00  1.38118E-01
      21    -1     0     0   502   512  0.000000000E+00  0.000000000E+00  1.565283409E+03  1.565283409E+03  0.000000000E+00  0.00000E+00  9.000E+00
      21    -1     0     0   501   502  0.000000000E+00  0.000000000E+00 -1.196609507E+02  1.196609507E+02  0.000000000E+00  0.00000E+00  9.000E+00
      25     1     1     2     0     0  2.022914496E+02  2.726178947E+02  8.948230537E+02  9.651816641E+02  1.250000000E+02  0.00000E+00  9.000E+00
      25     1     1     2     0     0 -2.502475699E+02 -2.926832896E+02  4.433143885E+02  6.003665558E+02  1.250000000E+02  0.00000E+00  9.000E+00
      21     1     1     2   501   512  4.795612025E+01  2.006539487E+01  1.074850163E+02  1.193961401E+02  1.348699152E-06  0.00000E+00  9.000E+00
#rwgt            1           1   4.3040312707703726E-002           6      413030           0
</event>
<event>
      5   9999  3.79277E-02  3.89312E+01 -1.00000E+00  1.45573E-01
      21    -1     0     0   511   501  0.000000000E+00  0.000000000E+00  1.168088181E+02  1.168088181E+02  0.000000000E+00  0.00000E+00  9.000E+00
      21    -1     0     0   501   502  0.000000000E+00  0.000000000E+00 -5.389719482E+02  5.389719482E+02  0.000000000E+00  0.00000E+00  9.000E+00
      25     1     1     2     0     0 -5.689851476E+01 -1.466806811E+02 -6.645724645E+01  2.116464713E+02  1.250000000E+02  0.00000E+00  9.000E+00
      25     1     1     2     0     0  9.491191496E+01  1.382772837E+02 -3.455022046E+02  4.038881679E+02  1.250000000E+02  0.00000E+00  9.000E+00
      21     1     1     2   511   502 -3.801340020E+01  8.403397458E+00 -1.020367910E+01  4.024612715E+01  4.616955931E-07  0.00000E+00  9.000E+00
#rwgt            1           1   2.8054148196619572E-002           6      413223           0
</event>
<event>
      5   9999  3.79277E-02  3.13760E+01 -1.00000E+00  1.51699E-01
      21    -1     0     0   512   501  0.000000000E+00  0.000000000E+00  4.126601822E+02  4.126601822E+02  0.000000000E+00  0.00000E+00  9.000E+00
      21    -1     0     0   501   502  0.000000000E+00  0.000000000E+00 -1.573137035E+02  1.573137035E+02  0.000000000E+00  0.00000E+00  9.000E+00
      25     1     1     2     0     0  9.047022933E+01 -1.842783257E+02  1.070525037E+02  2.631132879E+02  1.250000000E+02  0.00000E+00  9.000E+00
      25     1     1     2     0     0 -6.080072040E+01  1.740717870E+02  8.920668696E+01  2.399594708E+02  1.250000000E+02  0.00000E+00  9.000E+00
      21     1     1     2   512   502 -2.966950893E+01  1.020653864E+01  5.908728796E+01  6.690112697E+01  6.743495762E-07  0.00000E+00  9.000E+00
#rwgt            1           1   4.2177441126147290E-002           6      413323           0
</event>
<event>
      5   9999  3.79277E-02  2.59134E+01 -1.00000E+00  1.57592E-01
      21    -1     0     0   502   511  0.000000000E+00  0.000000000E+00  1.015719022E+02  1.015719022E+02  0.000000000E+00  0.00000E+00  9.000E+00
      21    -1     0     0   501   502  0.000000000E+00  0.000000000E+00 -9.937195049E+02  9.937195049E+02  0.000000000E+00  0.00000E+00  9.000E+00
      25     1     1     2     0     0  2.999981171E+01  2.349467934E+02 -2.080703119E+02  3.391433903E+02  1.250000000E+02  0.00000E+00  9.000E+00
      25     1     1     2     0     0 -1.935522396E+01 -2.585729936E+02 -6.628343732E+02  7.226403144E+02  1.250000000E+02  0.00000E+00  9.000E+00
      21     1     1     2   501   511 -1.064458775E+01  2.362620012E+01 -2.124291753E+01  3.350770248E+01  7.152557373E-07  0.00000E+00  9.000E+00
#rwgt            1           1   3.3584494087181171E-002           6      413657           0
</event>
<event>
      5   9999  3.79277E-02  2.68451E+01 -1.00000E+00  1.56469E-01
      21    -1     0     0   502   501  0.000000000E+00  0.000000000E+00  9.085443042E+02  9.085443042E+02  0.000000000E+00  0.00000E+00  9.000E+00
      21    -1     0     0   512   502  0.000000000E+00  0.000000000E+00 -5.826841236E+01  5.826841236E+01  0.000000000E+00  0.00000E+00  9.000E+00
      25     1     1     2     0     0 -1.087659318E+02 -1.469357559E+02  4.573972768E+02  5.081903316E+02  1.250000000E+02  0.00000E+00  9.000E+00
      25     1     1     2     0     0  8.192098141E+01  1.470296193E+02  3.437852325E+02  4.026686507E+02  1.250000000E+02  0.00000E+00  9.000E+00
      21     1     1     2   512   501  2.684495042E+01 -9.386336414E-02  4.909338261E+01  5.595373436E+01  9.536743164E-07  0.00000E+00  9.000E+00
#rwgt            1           1   4.1063089570766501E-002           6      414104           0
</event>
<event>
      5   9999  3.79277E-02  1.03005E+02 -1.00000E+00  1.23252E-01
      21    -1     0     0   502   501  0.000000000E+00  0.000000000E+00  6.629042815E+02  6.629042815E+02  0.000000000E+00  0.00000E+00  9.000E+00
       2    -1     0     0   501     0  0.000000000E+00  0.000000000E+00 -4.921631432E+02  4.921631432E+02  0.000000000E+00  0.00000E+00  9.000E+00
      25     1     1     2     0     0 -1.645844444E+02  7.542092135E+01  4.348869703E+02  4.873684763E+02  1.250000000E+02  0.00000E+00  9.000E+00
      25     1     1     2     0     0  6.793902203E+01 -1.110537019E+02  1.538756649E+02  2.371736825E+02  1.250000000E+02  0.00000E+00  9.000E+00
       2     1     1     2   502     0  9.664542237E+01  3.563278059E+01 -4.180214969E+02  4.305252659E+02  0.000000000E+00  0.00000E+00  9.000E+00
#rwgt            1           1   3.9680757083480400E-002           6      414347           0
</event>
<event>
      5   9999  3.79277E-02  5.32409E+01 -1.00000E+00  1.37537E-01
      21    -1     0     0   502   511  0.000000000E+00  0.000000000E+00  5.151972250E+01  5.151972250E+01  0.000000000E+00  0.00000E+00  9.000E+00
      21    -1     0     0   501   502  0.000000000E+00  0.000000000E+00 -2.439840830E+03  2.439840830E+03  0.000000000E+00  0.00000E+00  9.000E+00
      25     1     1     2     0     0 -1.824361558E+02 -1.100334180E+02 -1.991661791E+03  2.006921023E+03  1.250000000E+02  0.00000E+00  9.000E+00
      25     1     1     2     0     0  1.686745675E+02  5.860177071E+01 -3.560832090E+02  4.174991365E+02  1.250000000E+02  0.00000E+00  9.000E+00
      21     1     1     2   501   511  1.376158833E+01  5.143164731E+01 -4.057610717E+01  6.694039238E+01  8.259061849E-07  0.00000E+00  9.000E+00
#rwgt            1           1   9.8514656984882362E-002           6      414411           0
</event>
<event>
      5   9999  3.79277E-02  3.76104E+01 -1.00000E+00  1.46519E-01
      21    -1     0     0   502   501  0.000000000E+00  0.000000000E+00  5.445660166E+01  5.445660166E+01  0.000000000E+00  0.00000E+00  9.000E+00
      21    -1     0     0   512   502  0.000000000E+00  0.000000000E+00 -1.261213649E+03  1.261213649E+03  0.000000000E+00  0.00000E+00  9.000E+00
      25     1     1     2     0     0  1.223444373E+02  7.755322643E+01 -3.177658249E+02  3.709215331E+02  1.250000000E+02  0.00000E+00  9.000E+00
      25     1     1     2     0     0 -1.487616823E+02 -5.078246515E+01 -3.430518858E+02  3.975154000E+02  1.250000000E+02  0.00000E+00  9.000E+00
      21     1     1     2   512   501  2.641724500E+01 -2.677076128E+01 -5.459393365E+02  5.472333174E+02  7.629394531E-06  0.00000E+00  9.000E+00
#rwgt            1           1   2.4037222421041518E-002           6      414536           0
</event>
<event>
      5   9999  3.79277E-02  1.39211E+01 -1.00000E+00  1.80493E-01
      21    -1     0     0   511   501  0.000000000E+00  0.000000000E+00  5.674677461E+02  5.674677461E+02  0.000000000E+00  0.00000E+00  9.000E+00
      21    -1     0     0   501   502  0.000000000E+00  0.000000000E+00 -1.449080026E+02  1.449080026E+02  0.000000000E+00  0.00000E+00  9.000E+00
      25     1     1     2     0     0 -6.493290414E+01 -1.128154322E+02 -5.850647977E+01  1.897145539E+02  1.250000000E+02  0.00000E+00  9.000E+00
      25     1     1     2     0     0  6.937663133E+01  9.962265377E+01  3.512035058E+02  3.920544511E+02  1.250000000E+02  0.00000E+00  9.000E+00
      21     1     1     2   511   502 -4.443727190E+00  1.319277845E+01  1.298627174E+02  1.306067437E+02  0.000000000E+00  0.00000E+00  9.000E+00
#rwgt            1           1   3.5266664887758814E-002           6      414634           0
</event>
<event>
      5   9999  3.79277E-02  1.11090E+01 -1.00000E+00  1.90621E-01
      21    -1     0     0   502   501  0.000000000E+00  0.000000000E+00  5.938644695E+01  5.938644695E+01  0.000000000E+00  0.00000E+00  9.000E+00
      21    -1     0     0   512   502  0.000000000E+00  0.000000000E+00 -1.938388356E+03  1.938388356E+03  0.000000000E+00  0.00000E+00  9.000E+00
      25     1     1     2     0     0 -2.714677107E+02  1.411788431E+01 -5.870088626E+02  6.588614706E+02  1.250000000E+02  0.00000E+00  9.000E+00
      25     1     1     2     0     0  2.603615395E+02 -1.386513246E+01 -8.703298359E+02  9.171038089E+02  1.250000000E+02  0.00000E+00  9.000E+00
      21     1     1     2   512   501  1.110617124E+01 -2.527518510E-01 -4.216632109E+02  4.218095238E+02  7.629394531E-06  0.00000E+00  9.000E+00
#rwgt            1           1   1.6257239853680969E-002           6      414873           0
</event>
<event>
      5   9999  3.79277E-02  6.33108E+01 -1.00000E+00  1.33469E-01
      21    -1     0     0   502   501  0.000000000E+00  0.000000000E+00  1.049120226E+02  1.049120226E+02  0.000000000E+00  0.00000E+00  9.000E+00
       2    -1     0     0   501     0  0.000000000E+00  0.000000000E+00 -7.336389421E+02  7.336389421E+02  0.000000000E+00  0.00000E+00  9.000E+00
      25     1     1     2     0     0 -1.990703348E+01  8.332484938E+01 -4.114444882E+02  4.384642373E+02  1.250000000E+02  0.00000E+00  9.000E+00
      25     1     1     2     0     0 -4.184854074E+01 -6.937806676E+01  2.378108288E+01  1.508481237E+02  1.250000000E+02  0.00000E+00  9.000E+00
       2     1     1     2   502     0  6.175557422E+01 -1.394678262E+01 -2.410635142E+02  2.492386037E+02  3.814697266E-06  0.00000E+00  9.000E+00
#rwgt            1           1   4.9714775768135412E-002           6      415353           0
</event>
<event>
      5   9999  3.79277E-02  1.11735E+02 -1.00000E+00  1.21699E-01
      21    -1     0     0   502   501  0.000000000E+00  0.000000000E+00  1.842573772E+03  1.842573772E+03  0.000000000E+00  0.00000E+00  9.000E+00
      21    -1     0     0   511   502  0.000000000E+00  0.000000000E+00 -5.030193003E+01  5.030193003E+01  0.000000000E+00  0.00000E+00  9.000E+00
      25     1     1     2     0     0 -1.467493913E+02 -8.469379236E+01  2.982130007E+02  3.650539906E+02  1.250000000E+02  0.00000E+00  9.000E+00
      25     1     1     2     0     0  4.211799981E+01  1.238994536E+02  1.193952364E+03  1.207589437E+03  1.250000000E+02  0.00000E+00  9.000E+00
      21     1     1     2   511   501  1.046313914E+02 -3.920566122E+01  3.001064772E+02  3.202322745E+02  6.607249480E-06  0.00000E+00  9.000E+00
#rwgt            2          11   3.2290316947369787E-003           6      415430           0
</event>
<event>
      5   9999  3.79277E-02  5.33760E+01 -1.00000E+00  1.37476E-01
      21    -1     0     0   502   501  0.000000000E+00  0.000000000E+00  3.313846033E+02  3.313846033E+02  0.000000000E+00  0.00000E+00  9.000E+00
       2    -1     0     0   501     0  0.000000000E+00  0.000000000E+00 -2.361470690E+02  2.361470690E+02  0.000000000E+00  0.00000E+00  9.000E+00
      25     1     1     2     0     0 -1.332046676E+01 -1.471697106E+01 -5.423444465E+01  1.376967649E+02  1.250000000E+02  0.00000E+00  9.000E+00
      25     1     1     2     0     0  6.626292506E+01  7.927472795E+00  2.661541259E+02  3.015238611E+02  1.250000000E+02  0.00000E+00  9.000E+00
       2     1     1     2   502     0 -5.294245831E+01  6.789498264E+00 -1.166821470E+02  1.283110463E+02  2.336015456E-06  0.00000E+00  9.000E+00
#rwgt            1           1   4.6675248839799399E-002           6      415690           0
</event>
<event>
      5   9999  3.79277E-02  4.57463E+01 -1.00000E+00  1.41315E-01
      21    -1     0     0   502   511  0.000000000E+00  0.000000000E+00  2.353283879E+02  2.353283879E+02  0.000000000E+00  0.00000E+00  9.000E+00
      21    -1     0     0   501   502  0.000000000E+00  0.000000000E+00 -2.806278812E+02  2.806278812E+02  0.000000000E+00  0.00000E+00  9.000E+00
      25     1     1     2     0     0 -5.113793798E+01  1.398386164E+02 -1.116331334E+02  2.241804715E+02  1.250000000E+02  0.00000E+00  9.000E+00
      25     1     1     2     0     0  4.177458215E+01 -1.846164623E+02  2.171038526E+01  2.278699074E+02  1.250000000E+02  0.00000E+00  9.000E+00
      21     1     1     2   501   511  9.363355829E+00  4.477784593E+01  4.462325489E+01  6.390589015E+01  1.066240300E-06  0.00000E+00  9.000E+00
#rwgt            1           1   3.9371787985137088E-002           6      415778           0
</event>
<event>
      5   9999  3.79277E-02  6.76020E+00 -1.00000E+00  2.17716E-01
      21    -1     0     0   502   512  0.000000000E+00  0.000000000E+00  1.753115208E+02  1.753115208E+02  0.000000000E+00  0.00000E+00  9.000E+00
      21    -1     0     0   501   502  0.000000000E+00  0.000000000E+00 -2.960847668E+03  2.960847668E+03  0.000000000E+00  0.00000E+00  9.000E+00
      25     1     1     2     0     0  3.199389299E+01 -2.118222984E+02 -1.234057338E+03  1.258735401E+03  1.250000000E+02  0.00000E+00  9.000E+00
      25     1     1     2     0     0 -2.548836687E+01  2.136603442E+02 -1.705346775E+03  1.723407388E+03  1.250000000E+02  0.00000E+00  9.000E+00
      21     1     1     2   501   512 -6.505526120E+00 -1.838045798E+00  1.538679668E+02  1.540164000E+02  5.722045898E-06  0.00000E+00  9.000E+00
#rwgt            1           1   3.5757963070749493E-002           6      416261           0
</event>
<event>
      5   9999  3.79277E-02  1.20009E+02 -1.00000E+00  1.20367E-01
      21    -1     0     0   502   501  0.000000000E+00  0.000000000E+00  3.702769616E+02  3.702769616E+02  0.000000000E+00  0.00000E+00  9.000E+00
      21    -1     0     0   511   502  0.000000000E+00  0.000000000E+00 -4.312449851E+02  4.312449851E+02  0.000000000E+00  0.00000E+00  9.000E+00
      25     1     1     2     0     0 -2.159884703E+01 -2.662846156E+02  1.545983047E+01  2.953608184E+02  1.250000000E+02  0.00000E+00  9.000E+00
      25     1     1     2     0     0  1.165924412E+02  3.396213490E+02 -5.302701921E+01  3.838923323E+02  1.250000000E+02  0.00000E+00  9.000E+00
      21     1     1     2   511   501 -9.499359415E+01 -7.333673346E+01 -2.340083469E+01  1.222687960E+02  1.651812370E-06  0.00000E+00  9.000E+00
#rwgt            1           1   3.0692584637690590E-002           6      416590           0
</event>
<event>
      5   9999  3.79277E-02  1.75570E+01 -1.00000E+00  1.71177E-01
      21    -1     0     0   502   512  0.000000000E+00  0.000000000E+00  7.859446876E+01  7.859446876E+01  0.000000000E+00  0.00000E+00  9.000E+00
      21    -1     0     0   501   502  0.000000000E+00  0.000000000E+00 -8.302569498E+02  8.302569498E+02  0.000000000E+00  0.00000E+00  9.000E+00
      25     1     1     2     0     0  4.868622909E+01  1.443074230E+02 -5.277410282E+02  5.633210222E+02  1.250000000E+02  0.00000E+00  9.000E+00
      25     1     1     2     0     0 -3.293052096E+01 -1.365611672E+02 -2.507773368E+02  3.134448026E+02  1.250000000E+02  0.00000E+00  9.000E+00
      21     1     1     2   501   512 -1.575570813E+01 -7.746255750E+00  2.685588402E+01  3.208559370E+01  7.539457465E-07  0.00000E+00  9.000E+00
#rwgt            1           1   3.4190968848601670E-002           6      416697           0
</event>
<event>
      5   9999 -3.79277E-02  1.32323E+02 -1.00000E+00  1.18593E-01
      21    -1     0     0   502   501  0.000000000E+00  0.000000000E+00  1.511243048E+02  1.511243048E+02  0.000000000E+00  0.00000E+00  9.000E+00
      21    -1     0     0   501   511  0.000000000E+00  0.000000000E+00 -6.022851976E+02  6.022851976E+02  0.000000000E+00  0.00000E+00  9.000E+00
      25     1     1     2     0     0 -1.689412103E+02 -1.107067741E+02 -1.626546769E+02  2.878865511E+02  1.250000000E+02  0.00000E+00  9.000E+00
      25     1     1     2     0     0  1.237322704E+02 -1.365383291E+01 -3.542023870E+01  1.799324740E+02  1.250000000E+02  0.00000E+00  9.000E+00
      21     1     1     2   502   511  4.520893991E+01  1.243606071E+02 -2.530859772E+02  2.855904773E+02  2.697398305E-06  0.00000E+00  9.000E+00
#rwgt            1           1 -0.21234196721872273                6      416832           0
</event>
<event>
      5   9999  3.79277E-02  2.78689E+01 -1.00000E+00  1.55296E-01
      21    -1     0     0   502   501  0.000000000E+00  0.000000000E+00  7.325093878E+02  7.325093878E+02  0.000000000E+00  0.00000E+00  9.000E+00
      21    -1     0     0   512   502  0.000000000E+00  0.000000000E+00 -7.960727481E+01  7.960727481E+01  0.000000000E+00  0.00000E+00  9.000E+00
      25     1     1     2     0     0  1.006154081E+02  9.839530324E+01  4.807911356E+02  5.163237474E+02  1.250000000E+02  0.00000E+00  9.000E+00
      25     1     1     2     0     0 -1.105624816E+02 -1.244286038E+02  1.682541846E+02  2.676583838E+02  1.250000000E+02  0.00000E+00  9.000E+00
      21     1     1     2   512   501  9.947073552E+00  2.603330053E+01  3.856792803E+00  2.813453145E+01  5.264139692E-07  0.00000E+00  9.000E+00
#rwgt            1           1   4.8680672470731996E-002           6      416877           0
</event>
<event>
      5   9999  3.79277E-02  2.13058E+01 -1.00000E+00  1.64134E-01
      -3    -1     0     0     0   501  0.000000000E+00  0.000000000E+00  4.264880660E+02  4.264880660E+02  0.000000000E+00  0.00000E+00  9.000E+00
      21    -1     0     0   501   502  0.000000000E+00  0.000000000E+00 -2.054152457E+02  2.054152457E+02  0.000000000E+00  0.00000E+00  9.000E+00
      25     1     1     2     0     0  1.357283561E+02 -8.590956738E+01  3.648548510E+01  2.067820859E+02  1.250000000E+02  0.00000E+00  9.000E+00
      25     1     1     2     0     0 -1.152367123E+02  8.007589753E+01 -4.606199531E+01  1.934899394E+02  1.250000000E+02  0.00000E+00  9.000E+00
      -3     1     1     2     0   502 -2.049164378E+01  5.833669848E+00  2.306493306E+02  2.316312864E+02  2.697398305E-06  0.00000E+00  9.000E+00
#rwgt            1           1   4.0043424787126150E-002           6      416986           0
</event>
<event>
      5   9999 -3.79277E-02  6.74717E+01 -1.00000E+00  1.32035E-01
      21    -1     0     0   502   501  0.000000000E+00  0.000000000E+00  2.324459681E+02  2.324459681E+02  0.000000000E+00  0.00000E+00  9.000E+00
      21    -1     0     0   511   502  0.000000000E+00  0.000000000E+00 -9.662400980E+02  9.662400980E+02  0.000000000E+00  0.00000E+00  9.000E+00
      25     1     1     2     0     0 -1.507537593E+02  7.433317414E+01 -9.826084893E+01  2.313705063E+02  1.250000000E+02  0.00000E+00  9.000E+00
      25     1     1     2     0     0  1.247715552E+02 -1.366016256E+02  8.847643034E+01  2.401687403E+02  1.250000000E+02  0.00000E+00  9.000E+00
      21     1     1     2   511   501  2.598220413E+01  6.226845145E+01 -7.240097114E+02  7.271468195E+02  1.705984480E-05  0.00000E+00  9.000E+00
#rwgt            1           1  -2.7866549633797949E-002           6      417176           0
</event>
<event>
      5   9999  3.79277E-02  9.00531E+01 -1.00000E+00  1.25910E-01
      21    -1     0     0   512   501  0.000000000E+00  0.000000000E+00  6.256092472E+01  6.256092472E+01  0.000000000E+00  0.00000E+00  9.000E+00
      21    -1     0     0   501   502  0.000000000E+00  0.000000000E+00 -3.053160239E+03  3.053160239E+03  0.000000000E+00  0.00000E+00  9.000E+00
      25     1     1     2     0     0 -2.709110578E+01  9.273706428E+01 -2.660281681E+03  2.664968613E+03  1.250000000E+02  0.00000E+00  9.000E+00
      25     1     1     2     0     0  5.319603311E+01 -6.550698934E+00 -3.339944015E+02  3.606244443E+02  1.250000000E+02  0.00000E+00  9.000E+00
      21     1     1     2   512   502 -2.610492733E+01 -8.618636534E+01  3.676768050E+00  9.012810564E+01  4.171899365E-06  0.00000E+00  9.000E+00
#rwgt            1           1   3.6309844520369311E-002           6      417398           0
</event>
<event>
      5   9999  3.79277E-02  1.98201E+01 -1.00000E+00  1.66694E-01
      21    -1     0     0   502   511  0.000000000E+00  0.000000000E+00  1.719431682E+03  1.719431682E+03  0.000000000E+00  0.00000E+00  9.000E+00
      21    -1     0     0   501   502  0.000000000E+00  0.000000000E+00 -1.956599759E+02  1.956599759E+02  0.000000000E+00  0.00000E+00  9.000E+00
      25     1     1     2     0     0 -3.448381687E+01  1.318744422E+02 -1.085176556E+02  2.144320025E+02  1.250000000E+02  0.00000E+00  9.000E+00
      25     1     1     2     0     0  5.335910769E+01 -1.379208741E+02  2.406532943E+02  3.088824533E+02  1.250000000E+02  0.00000E+00  9.000E+00
      21     1     1     2   501   511 -1.887529082E+01  6.046431919E+00  1.391636068E+03  1.391777202E+03  1.525878906E-05  0.00000E+00  9.000E+00
#rwgt            1           1   3.7532870549017966E-002           6      417466           0
</event>
<event>
      5   9999  3.79277E-02  2.24378E+01 -1.00000E+00  1.62351E-01
      21    -1     0     0   502   512  0.000000000E+00  0.000000000E+00  1.049545995E+03  1.049545995E+03  0.000000000E+00  0.00000E+00  9.000E+00
      21    -1     0     0   501   502  0.000000000E+00  0.000000000E+00 -9.456524773E+01  9.456524773E+01  0.000000000E+00  0.00000E+00  9.000E+00
      25     1     1     2     0     0 -1.364282132E+02 -5.745239615E+01  8.815307099E+02  9.025712314E+02  1.250000000E+02  0.00000E+00  9.000E+00
      25     1     1     2     0     0  1.142819457E+02  5.384731482E+01  1.432171862E+01  1.782975267E+02  1.250000000E+02  0.00000E+00  9.000E+00
      21     1     1     2   501   512  2.214626757E+01  3.605081327E+00  5.912831828E+01  6.324248415E+01  9.536743164E-07  0.00000E+00  9.000E+00
#rwgt            1           1   3.7696547527432483E-002           6      417687           0
</event>
<event>
      5   9999  3.79277E-02  4.88366E+01 -1.00000E+00  1.39661E-01
      21    -1     0     0   511   501  0.000000000E+00  0.000000000E+00  8.429761947E+01  8.429761947E+01  0.000000000E+00  0.00000E+00  9.000E+00
      21    -1     0     0   501   502  0.000000000E+00  0.000000000E+00 -1.242350867E+03  1.242350867E+03  0.000000000E+00  0.00000E+00  9.000E+00
      25     1     1     2     0     0  1.565448724E+01 -2.203369517E+01 -1.100140604E+03  1.107549049E+03  1.250000000E+02  0.00000E+00  9.000E+00
      25     1     1     2     0     0 -5.479121688E+01 -7.178098072E+00  8.188120187E+00  1.369147467E+02  1.250000000E+02  0.00000E+00  9.000E+00
      21     1     1     2   511   502  3.913672963E+01  2.921179324E+01 -6.610076304E+01  8.218469045E+01  0.000000000E+00  0.00000E+00  9.000E+00
#rwgt            1           1   4.0769130692366332E-002           6      417893           0
</event>
<event>
      5   9999  3.79277E-02  5.17840E+01 -1.00000E+00  1.38212E-01
      21    -1     0     0   502   501  0.000000000E+00  0.000000000E+00  7.979067398E+01  7.979067398E+01  0.000000000E+00  0.00000E+00  9.000E+00
      21    -1     0     0   501   512  0.000000000E+00  0.000000000E+00 -3.886355934E+02  3.886355934E+02  0.000000000E+00  0.00000E+00  9.000E+00
      25     1     1     2     0     0 -5.808325775E-01 -2.930301847E+01 -2.948258384E+01  1.317316477E+02  1.250000000E+02  0.00000E+00  9.000E+00
      25     1     1     2     0     0  5.081405080E+01  1.672484594E+01 -1.954942512E+02  2.381276768E+02  1.250000000E+02  0.00000E+00  9.000E+00
      21     1     1     2   502   512 -5.023321822E+01  1.257817253E+01 -8.386808438E+01  9.856694281E+01  0.000000000E+00  0.00000E+00  9.000E+00
#rwgt            1           1   7.2297620217699851E-002           6      418056           0
</event>
<event>
      5   9999  3.79277E-02  6.04438E+01 -1.00000E+00  1.34533E-01
      21    -1     0     0   502   501  0.000000000E+00  0.000000000E+00  1.215484633E+03  1.215484633E+03  0.000000000E+00  0.00000E+00  9.000E+00
      21    -1     0     0   511   502  0.000000000E+00  0.000000000E+00 -1.768313296E+02  1.768313296E+02  0.000000000E+00  0.00000E+00  9.000E+00
      25     1     1     2     0     0 -1.792329478E+01  6.470700814E+01  1.020962026E+03  1.030774806E+03  1.250000000E+02  0.00000E+00  9.000E+00
      25     1     1     2     0     0 -4.121051880E+01 -7.722276017E+01  1.513029186E+02  2.148935428E+02  1.250000000E+02  0.00000E+00  9.000E+00
      21     1     1     2   511   501  5.913381358E+01  1.251575203E+01 -1.336116414E+02  1.466476139E+02  6.031565972E-06  0.00000E+00  9.000E+00
#rwgt            1           1   5.0458608966191788E-002           6      418191           0
</event>
<event>
      5   9999  3.79277E-02  6.27822E+01 -1.00000E+00  1.33660E-01
      21    -1     0     0   512   501  0.000000000E+00  0.000000000E+00  2.537146764E+03  2.537146764E+03  0.000000000E+00  0.00000E+00  9.000E+00
      21    -1     0     0   501   502  0.000000000E+00  0.000000000E+00 -1.507903854E+01  1.507903854E+01  0.000000000E+00  0.00000E+00  9.000E+00
      25     1     1     2     0     0  4.936943330E+01  8.684659944E+01  6.653751530E+02  6.843455027E+02  1.250000000E+02  0.00000E+00  9.000E+00
      25     1     1     2     0     0  8.798265026E+00 -6.322202294E+01  1.364570870E+03  1.371770058E+03  1.250000000E+02  0.00000E+00  9.000E+00
      21     1     1     2   512   502 -5.816769833E+01 -2.362457650E+01  4.921217029E+02  4.961102420E+02  9.344061824E-06  0.00000E+00  9.000E+00
#rwgt            1           1  0.13684165086071587                6      418279           0
</event>
<event>
      5   9999  3.79277E-02  1.42676E+01 -1.00000E+00  1.79456E-01
      21    -1     0     0   511   501  0.000000000E+00  0.000000000E+00  1.311946461E+02  1.311946461E+02  0.000000000E+00  0.00000E+00  9.000E+00
      21    -1     0     0   501   502  0.000000000E+00  0.000000000E+00 -6.073558738E+02  6.073558738E+02  0.000000000E+00  0.00000E+00  9.000E+00
      25     1     1     2     0     0 -9.341090197E+01  5.549358718E+01  4.182118143E+01  1.708190447E+02  1.250000000E+02  0.00000E+00  9.000E+00
      25     1     1     2     0     0  9.665780016E+01 -4.160031689E+01 -5.263928553E+02  5.511694429E+02  1.250000000E+02  0.00000E+00  9.000E+00
      21     1     1     2   511   502 -3.246898189E+00 -1.389327029E+01  8.410446135E+00  1.656203223E+01  2.384185791E-07  0.00000E+00  9.000E+00
#rwgt            1           1   4.6679828386866552E-002           6      418341           0
</event>
<event>
      5   9999  3.79277E-02  6.41721E+01 -1.00000E+00  1.33162E-01
      21    -1     0     0   502   512  0.000000000E+00  0.000000000E+00  1.795366932E+02  1.795366932E+02  0.000000000E+00  0.00000E+00  9.000E+00
      21    -1     0     0   501   502  0.000000000E+00  0.000000000E+00 -3.530255290E+02  3.530255290E+02  0.000000000E+00  0.00000E+00  9.000E+00
      25     1     1     2     0     0  2.162548141E+01 -2.346995060E+01  8.674485166E+01  1.554611505E+02  1.250000000E+02  0.00000E+00  9.000E+00
      25     1     1     2     0     0 -8.440519460E+01  1.017459591E+01 -2.726354013E+02  3.117415938E+02  1.250000000E+02  0.00000E+00  9.000E+00
      21     1     1     2   501   512  6.277971320E+01  1.329535470E+01  1.240171388E+01  6.535947791E+01  1.227334755E-06  0.00000E+00  9.000E+00
#rwgt            1           1   3.9667594696711037E-002           6      418628           0
</event>
<event>
      5   9999  3.79277E-02  1.55043E+01 -1.00000E+00  1.76041E-01
      21    -1     0     0   502   511  0.000000000E+00  0.000000000E+00  3.667251048E+02  3.667251048E+02  0.000000000E+00  0.00000E+00  9.000E+00
      21    -1     0     0   501   502  0.000000000E+00  0.000000000E+00 -2.384056957E+02  2.384056957E+02  0.000000000E+00  0.00000E+00  9.000E+00
      25     1     1     2     0     0  2.942289168E+01 -1.145787116E+02  6.581063645E+01  1.842553326E+02  1.250000000E+02  0.00000E+00  9.000E+00
      25     1     1     2     0     0 -4.353492164E+01  1.081573500E+02 -1.380500405E+02  2.197182638E+02  1.250000000E+02  0.00000E+00  9.000E+00
      21     1     1     2   501   511  1.411202996E+01  6.421361623E+00  2.005588131E+02  2.011572041E+02  2.697398305E-06  0.00000E+00  9.000E+00
#rwgt            1           1   7.8458380804823147E-002           6      418761           0
</event>
<event>
      5   9999  3.79277E-02  2.89948E+01 -1.00000E+00  1.54075E-01
      21    -1     0     0   502   512  0.000000000E+00  0.000000000E+00  1.992388502E+03  1.992388502E+03  0.000000000E+00  0.00000E+00  9.000E+00
      21    -1     0     0   501   502  0.000000000E+00  0.000000000E+00 -5.846811432E+01  5.846811432E+01  0.000000000E+00  0.00000E+00  9.000E+00
      25     1     1     2     0     0  1.707893763E+02  2.124714961E+02  1.021497405E+03  1.064610302E+03  1.250000000E+02  0.00000E+00  9.000E+00
      25     1     1     2     0     0 -1.467257560E+02 -2.286468222E+02  5.799762047E+02  6.525375199E+02  1.250000000E+02  0.00000E+00  9.000E+00
      21     1     1     2   501   512 -2.406362034E+01  1.617532606E+01  3.324467785E+02  3.337087945E+02  5.394796609E-06  0.00000E+00  9.000E+00
#rwgt            1           1   5.8292761113353783E-002           6      418914           0
</event>
<event>
      5   9999  3.79277E-02  2.01683E+01 -1.00000E+00  1.66069E-01
       1    -1     0     0   502     0  0.000000000E+00  0.000000000E+00  1.278915608E+03  1.278915608E+03  0.000000000E+00  0.00000E+00  9.000E+00
      21    -1     0     0   501   502  0.000000000E+00  0.000000000E+00 -8.430373299E+01  8.430373299E+01  0.000000000E+00  0.00000E+00  9.000E+00
      25     1     1     2     0     0 -9.062933609E+01 -4.840016428E+01  2.612980539E+01  1.639024685E+02  1.250000000E+02  0.00000E+00  9.000E+00
      25     1     1     2     0     0  7.159440878E+01  4.173430776E+01  3.524046486E+02  3.829902716E+02  1.250000000E+02  0.00000E+00  9.000E+00
       1     1     1     2   501     0  1.903492730E+01  6.665856520E+00  8.160774216E+02  8.163266014E+02  1.525878906E-05  0.00000E+00  9.000E+00
#rwgt            1           1   4.5491520723918898E-002           6      419014           0
</event>
<event>
      5   9999  3.79277E-02  2.31843E+02 -1.00000E+00  1.09361E-01
      21    -1     0     0   502   501  0.000000000E+00  0.000000000E+00  8.122691047E+02  8.122691047E+02  0.000000000E+00  0.00000E+00  9.000E+00
      21    -1     0     0   511   502  0.000000000E+00  0.000000000E+00 -1.752400258E+02  1.752400258E+02  0.000000000E+00  0.00000E+00  9.000E+00
      25     1     1     2     0     0  3.289363716E+01  8.519019257E+01  8.046149757E+01  1.744660794E+02  1.250000000E+02  0.00000E+00  9.000E+00
      25     1     1     2     0     0  1.961306433E+02 -4.914872426E+01  5.285095420E+02  5.795085524E+02  1.250000000E+02  0.00000E+00  9.000E+00
      21     1     1     2   511   501 -2.290242805E+02 -3.604146832E+01  2.805803932E+01  2.335344987E+02  2.676241913E-06  0.00000E+00  9.000E+00
#rwgt            2          11   1.6474827025001243E-003           6      419117           0
</event>
<event>
      5   9999  3.79277E-02  1.51662E+01 -1.00000E+00  1.76934E-01
      21    -1     0     0   512   501  0.000000000E+00  0.000000000E+00  5.065039859E+02  5.065039859E+02  0.000000000E+00  0.00000E+00  9.000E+00
      21    -1     0     0   501   502  0.000000000E+00  0.000000000E+00 -6.321890922E+02  6.321890922E+02  0.000000000E+00  0.00000E+00  9.000E+00
      25     1     1     2     0     0 -1.467225097E+02 -4.549451134E+01 -2.521270609E+02  3.206092641E+02  1.250000000E+02  0.00000E+00  9.000E+00
      25     1     1     2     0     0  1.379691418E+02  5.787971490E+01 -3.182028772E+02  3.731804075E+02  1.250000000E+02  0.00000E+00  9.000E+00
      21     1     1     2   512   502  8.753367925E+00 -1.238520356E+01  4.446448318E+02  4.449034065E+02  7.629394531E-06  0.00000E+00  9.000E+00
#rwgt            1           1   3.3953218678314911E-002           6      419137           0
</event>
<event>
      5   9999  3.79277E-02  1.47016E+02 -1.00000E+00  1.16741E-01
      21    -1     0     0   502   501  0.000000000E+00  0.000000000E+00  1.535461815E+03  1.535461815E+03  0.000000000E+00  0.00000E+00  9.000E+00
      21    -1     0     0   511   502  0.000000000E+00  0.000000000E+00 -8.134495437E+01  8.134495437E+01  0.000000000E+00  0.00000E+00  9.000E+00
      25     1     1     2     0     0 -1.333157649E+02  1.520610428E+02  4.356193055E+02  4.962709273E+02  1.250000000E+02  0.00000E+00  9.000E+00
      25     1     1     2     0     0  2.542580961E+02 -6.847493091E+01  8.408873586E+02  8.899733398E+02  1.250000000E+02  0.00000E+00  9.000E+00
      21     1     1     2   511   501 -1.209423312E+02 -8.358611190E+01  1.776101965E+02  2.305625023E+02  2.697398305E-06  0.00000E+00  9.000E+00
#rwgt            1           1   1.0395345844331289E-002           6      419286           0
</event>
<event>
      5   9999  3.79277E-02  1.37085E+02 -1.00000E+00  1.17965E-01
      21    -1     0     0   502   501  0.000000000E+00  0.000000000E+00  4.866002275E+01  4.866002275E+01  0.000000000E+00  0.00000E+00  9.000E+00
       2    -1     0     0   501     0  0.000000000E+00  0.000000000E+00 -1.843547730E+03  1.843547730E+03  0.000000000E+00  0.00000E+00  9.000E+00
      25     1     1     2     0     0  8.965153138E+01  1.415720537E+02 -8.436173027E+02  8.691347404E+02  1.250000000E+02  0.00000E+00  9.000E+00
      25     1     1     2     0     0 -1.868815263E+02 -4.493517294E+01 -4.745772399E+02  5.270601780E+02  1.250000000E+02  0.00000E+00  9.000E+00
       2     1     1     2   502     0  9.722999489E+01 -9.663688075E+01 -4.766931644E+02  4.960128341E+02  0.000000000E+00  0.00000E+00  9.000E+00
#rwgt            1           1   3.9535088449740463E-002           6      419412           0
</event>
<event>
      5   9999  3.79277E-02  6.90016E+01 -1.00000E+00  1.31537E-01
      21    -1     0     0   502   501  0.000000000E+00  0.000000000E+00  2.209591404E+02  2.209591404E+02  0.000000000E+00  0.00000E+00  9.000E+00
      21    -1     0     0   511   502  0.000000000E+00  0.000000000E+00 -3.677083963E+02  3.677083963E+02  0.000000000E+00  0.00000E+00  9.000E+00
      25     1     1     2     0     0  8.233222464E+01  8.032596429E+01  1.167932524E+02  2.061468398E+02  1.250000000E+02  0.00000E+00  9.000E+00
      25     1     1     2     0     0 -1.505178323E+02 -6.974547373E+01 -1.872955251E+02  2.796867224E+02  1.250000000E+02  0.00000E+00  9.000E+00
      21     1     1     2   511   501  6.818560765E+01 -1.058049056E+01 -7.624698323E+01  1.028339746E+02  9.536743164E-07  0.00000E+00  9.000E+00
#rwgt            1           1   3.7161643054295777E-002           6      419521           0
</event>
<event>
      5   9999  3.79277E-02  2.84764E+01 -1.00000E+00  1.54629E-01
      21    -1     0     0   502   501  0.000000000E+00  0.000000000E+00  1.043179004E+03  1.043179004E+03  0.000000000E+00  0.00000E+00  9.000E+00
      21    -1     0     0   501   512  0.000000000E+00  0.000000000E+00 -8.847270452E+01  8.847270452E+01  0.000000000E+00  0.00000E+00  9.000E+00
      25     1     1     2     0     0  7.672435602E+01 -7.131880261E+01  3.434766832E+02  3.802291813E+02  1.250000000E+02  0.00000E+00  9.000E+00
      25     1     1     2     0     0 -8.183499742E+01  9.933283757E+01  6.659724580E+02  6.897160969E+02  1.250000000E+02  0.00000E+00  9.000E+00
      21     1     1     2   502   512  5.110641403E+00 -2.801403496E+01 -5.474284181E+01  6.170643030E+01  2.023048729E-06  0.00000E+00  9.000E+00
#rwgt            1           1   3.5145975752650202E-002           6      419635           0
</event>
<event>
      5   9999  3.79277E-02  3.43273E+01 -1.00000E+00  1.49084E-01
      21    -1     0     0   511   501  0.000000000E+00  0.000000000E+00  5.327328489E+02  5.327328489E+02  0.000000000E+00  0.00000E+00  9.000E+00
      21    -1     0     0   501   502  0.000000000E+00  0.000000000E+00 -1.729587325E+02  1.729587325E+02  0.000000000E+00  0.00000E+00  9.000E+00
      25     1     1     2     0     0 -1.293668856E+02  1.000089172E+02  3.578624997E+02  4.128294361E+02  1.250000000E+02  0.00000E+00  9.000E+00
      25     1     1     2     0     0  1.030838761E+02 -1.220897779E+02 -6.883091594E+01  2.142309370E+02  1.250000000E+02  0.00000E+00  9.000E+00
      21     1     1     2   511   502  2.628300944E+01  2.208086071E+01  7.074253269E+01  7.863120835E+01  9.536743164E-07  0.00000E+00  9.000E+00
#rwgt            1           1   3.9795012701133330E-002           6      419793           0
</event>
<event>
      5   9999  3.79277E-02  4.03031E+01 -1.00000E+00  1.44637E-01
      21    -1     0     0   502   512  0.000000000E+00  0.000000000E+00  3.408229229E+03  3.408229229E+03  0.000000000E+00  0.00000E+00  9.000E+00
      21    -1     0     0   501   502  0.000000000E+00  0.000000000E+00 -1.493995942E+01  1.493995942E+01  0.000000000E+00  0.00000E+00  9.000E+00
      25     1     1     2     0     0 -6.489279839E+01  2.716927964E+01  5.034791609E+02  5.235126650E+02  1.250000000E+02  0.00000E+00  9.000E+00
      25     1     1     2     0     0  7.800606170E+01 -6.527944507E+01  1.390959088E+03  1.400263738E+03  1.250000000E+02  0.00000E+00  9.000E+00
      21     1     1     2   501   512 -1.311326332E+01  3.811016543E+01  1.498851020E+03  1.499392785E+03  0.000000000E+00  0.00000E+00  9.000E+00
#rwgt            1           1  0.12300385326314008                6      420025           0
</event>
<event>
      5   9999  3.79277E-02  1.47528E+02 -1.00000E+00  1.16680E-01
      21    -1     0     0   502   511  0.000000000E+00  0.000000000E+00  5.266171114E+02  5.266171114E+02  0.000000000E+00  0.00000E+00  9.000E+00
      21    -1     0     0   501   502  0.000000000E+00  0.000000000E+00 -1.893562821E+02  1.893562821E+02  0.000000000E+00  0.00000E+00  9.000E+00
      25     1     1     2     0     0  1.909104495E+02 -8.627367565E+01  2.442835476E+02  3.452381764E+02  1.250000000E+02  0.00000E+00  9.000E+00
      25     1     1     2     0     0 -5.654713556E+01  1.471925968E+02  9.983349442E+00  2.014644047E+02  1.250000000E+02  0.00000E+00  9.000E+00
      21     1     1     2   501   511 -1.343633140E+02 -6.091892118E+01  8.299393231E+01  1.692708123E+02  2.861022949E-06  0.00000E+00  9.000E+00
#rwgt            2          11   2.5625663551271361E-003           6      420129           0
</event>
<event>
      5   9999  3.79277E-02  1.05303E+02 -1.00000E+00  1.22827E-01
      21    -1     0     0   502   512  0.000000000E+00  0.000000000E+00  4.110125371E+01  4.110125371E+01  0.000000000E+00  0.00000E+00  9.000E+00
      21    -1     0     0   501   502  0.000000000E+00  0.000000000E+00 -2.320803508E+03  2.320803508E+03  0.000000000E+00  0.00000E+00  9.000E+00
      25     1     1     2     0     0 -1.980341547E+02 -3.392735517E+01 -1.685844445E+03  1.702370431E+03  1.250000000E+02  0.00000E+00  9.000E+00
      25     1     1     2     0     0  9.346209284E+01  4.631405075E+01 -4.675759612E+02  4.951085068E+02  1.250000000E+02  0.00000E+00  9.000E+00
      21     1     1     2   501   512  1.045720618E+02 -1.238669558E+01 -1.262818478E+02  1.644258234E+02  3.814697266E-06  0.00000E+00  9.000E+00
#rwgt            1           1  0.10235556198088901                6      420164           0
</event>
<event>
      5   9999  3.79277E-02  6.47639E+00 -1.00000E+00  2.20439E-01
      21    -1     0     0   502   511  0.000000000E+00  0.000000000E+00  4.830003113E+02  4.830003113E+02  0.000000000E+00  0.00000E+00  9.000E+00
      21    -1     0     0   501   502  0.000000000E+00  0.000000000E+00 -9.347425167E+01  9.347425167E+01  0.000000000E+00  0.00000E+00  9.000E+00
      25     1     1     2     0     0  1.177387836E+02 -9.712693335E+01  1.119841345E+02  2.268512921E+02  1.250000000E+02  0.00000E+00  9.000E+00
      25     1     1     2     0     0 -1.121797790E+02  1.004497388E+02  2.315368991E+02  3.031646227E+02  1.250000000E+02  0.00000E+00  9.000E+00
      21     1     1     2   501   511 -5.559004581E+00 -3.322805451E+00  4.600502597E+01  4.645864809E+01  6.743495762E-07  0.00000E+00  9.000E+00
#rwgt            1           1   2.7343103632844704E-002           6      420208           0
</event>
<event>
      5   9999  3.79277E-02  6.02120E+01 -1.00000E+00  1.34622E-01
      21    -1     0     0   502   501  0.000000000E+00  0.000000000E+00  4.269986745E+02  4.269986745E+02  0.000000000E+00  0.00000E+00  9.000E+00
      -2    -1     0     0     0   502  0.000000000E+00  0.000000000E+00 -1.889394285E+02  1.889394285E+02  0.000000000E+00  0.00000E+00  9.000E+00
      25     1     1     2     0     0 -8.280121304E+01 -1.821349699E+02  1.085149365E+02  2.596722542E+02  1.250000000E+02  0.00000E+00  9.000E+00
      25     1     1     2     0     0  8.741636066E+01  1.221001156E+02  1.888626245E+02  2.717427999E+02  1.250000000E+02  0.00000E+00  9.000E+00
      -2     1     1     2     0   501 -4.615147625E+00  6.003485427E+01 -5.931831504E+01  8.452304901E+01  1.651812370E-06  0.00000E+00  9.000E+00
#rwgt            1           1   3.0998676791755317E-002           6      420492           0
</event>
<event>
      5   9999 -3.79277E-02  4.69010E+01 -1.00000E+00  1.40680E-01
      21    -1     0     0   502   501  0.000000000E+00  0.000000000E+00  8.046881327E+02  8.046881327E+02  0.000000000E+00  0.00000E+00  9.000E+00
      21    -1     0     0   511   502  0.000000000E+00  0.000000000E+00 -9.576618911E+01  9.576618911E+01  0.000000000E+00  0.00000E+00  9.000E+00
      25     1     1     2     0     0 -1.734277601E+02  7.582411018E+01  2.400008329E+02  3.302300463E+02  1.250000000E+02  0.00000E+00  9.000E+00
      25     1     1     2     0     0  2.054728523E+02 -4.157768751E+01  4.624110849E+02  5.228736067E+02  1.250000000E+02  0.00000E+00  9.000E+00
      21     1     1     2   511   501 -3.204509223E+01 -3.424642267E+01  6.510025732E+00  4.735066881E+01  1.062903076E-06  0.00000E+00  9.000E+00
#rwgt            1           1 -0.40281673484902231                6      420605           0
</event>
<event>
      5   9999  3.79277E-02  6.03648E+01 -1.00000E+00  1.34563E-01
      21    -1     0     0   502   512  0.000000000E+00  0.000000000E+00  2.060534095E+03  2.060534095E+03  0.000000000E+00  0.00000E+00  9.000E+00
      21    -1     0     0   501   502  0.000000000E+00  0.000000000E+00 -1.180953760E+02  1.180953760E+02  0.000000000E+00  0.00000E+00  9.000E+00
      25     1     1     2     0     0 -2.414867918E+02  2.803908096E+02  9.958716633E+02  1.069729053E+03  1.250000000E+02  0.00000E+00  9.000E+00
      25     1     1     2     0     0  2.576751840E+02 -2.222371516E+02  3.325878793E+02  4.919609227E+02  1.250000000E+02  0.00000E+00  9.000E+00
      21     1     1     2   501   512 -1.618839218E+01 -5.815365803E+01  6.139791768E+02  6.169394958E+02  7.629394531E-06  0.00000E+00  9.000E+00
#rwgt            1           1   6.4399938234764934E-002           6      420712           0
</event>
<event>
      5   9999  3.79277E-02  1.30848E+02 -1.00000E+00  1.18794E-01
      21    -1     0     0   502   501  0.000000000E+00  0.000000000E+00  7.769475214E+01  7.769475214E+01  0.000000000E+00  0.00000E+00  9.000E+00
       1    -1     0     0   501     0  0.000000000E+00  0.000000000E+00 -2.105390411E+03  2.105390411E+03  0.000000000E+00  0.00000E+00  9.000E+00
      25     1     1     2     0     0  1.490634923E+01 -1.444108334E+02 -1.080194574E+02  2.199315603E+02  1.250000000E+02  0.00000E+00  9.000E+00
      25     1     1     2     0     0 -1.012508123E+02  4.609525898E+01 -3.490712464E+02  3.871075237E+02  1.250000000E+02  0.00000E+00  9.000E+00
       1     1     1     2   502     0  8.634446308E+01  9.831557437E+01 -1.570604955E+03  1.576046079E+03  2.157918644E-05  0.00000E+00  9.000E+00
#rwgt            1           1   3.6765252278069781E-002           6      420934           0
</event>
<event>
      5   9999  3.79277E-02  4.75989E+01 -1.00000E+00  1.40306E-01
      21    -1     0     0   511   501  0.000000000E+00  0.000000000E+00  1.684513654E+03  1.684513654E+03  0.000000000E+00  0.00000E+00  9.000E+00
      21    -1     0     0   501   502  0.000000000E+00  0.000000000E+00 -3.337102705E+02  3.337102705E+02  0.000000000E+00  0.00000E+00  9.000E+00
      25     1     1     2     0     0  1.159731216E+02  3.204761308E+01 -1.404842189E+02  2.232434326E+02  1.250000000E+02  0.00000E+00  9.000E+00
      25     1     1     2     0     0 -1.463324092E+02  4.612606105E+00 -9.032951210E+01  2.126472922E+02  1.250000000E+02  0.00000E+00  9.000E+00
      21     1     1     2   511   502  3.035928765E+01 -3.666021918E+01  1.581617114E+03  1.582333199E+03  2.157918644E-05  0.00000E+00  9.000E+00
#rwgt            1           1   3.6180800381512015E-002           6      420988           0
</event>
<event>
      5   9999  3.79277E-02  9.40969E+00 -1.00000E+00  1.98862E-01
      21    -1     0     0   512   501  0.000000000E+00  0.000000000E+00  5.028361052E+01  5.028361052E+01  0.000000000E+00  0.00000E+00  9.000E+00
      21    -1     0     0   501   502  0.000000000E+00  0.000000000E+00 -7.515349852E+02  7.515349852E+02  0.000000000E+00  0.00000E+00  9.000E+00
      25     1     1     2     0     0 -4.435420465E+01 -1.048187127E+02 -3.539016215E+02  3.922060883E+02  1.250000000E+02  0.00000E+00  9.000E+00
      25     1     1     2     0     0  4.601066866E+01  1.140814538E+02 -3.559857618E+02  3.968405503E+02  1.250000000E+02  0.00000E+00  9.000E+00
      21     1     1     2   512   502 -1.656464008E+00 -9.262741110E+00  8.636008586E+00  1.277195718E+01  4.129530925E-07  0.00000E+00  9.000E+00
#rwgt            1           1   7.1179839557533472E-002           6      421117           0
</event>
<event>
      5   9999  3.79277E-02  5.92211E+01 -1.00000E+00  1.35007E-01
      21    -1     0     0   502   501  0.000000000E+00  0.000000000E+00  2.235463353E+02  2.235463353E+02  0.000000000E+00  0.00000E+00  9.000E+00
       1    -1     0     0   501     0  0.000000000E+00  0.000000000E+00 -5.402057966E+02  5.402057966E+02  0.000000000E+00  0.00000E+00  9.000E+00
      25     1     1     2     0     0  8.891964880E+01  3.302453172E+01  1.528368944E+02  2.190466615E+02  1.250000000E+02  0.00000E+00  9.000E+00
      25     1     1     2     0     0 -2.984841740E+01 -2.881340378E+01 -8.744394015E+01  1.580904264E+02  1.250000000E+02  0.00000E+00  9.000E+00
       1     1     1     2   502     0 -5.907123140E+01 -4.211127939E+00 -3.820524156E+02  3.866150440E+02  0.000000000E+00  0.00000E+00  9.000E+00
#rwgt            1           1   4.8236389697942715E-002           6      421316           0
</event>
<event>
      5   9999 -3.79277E-02  2.74204E+01 -1.00000E+00  1.55802E-01
      21    -1     0     0   502   501  0.000000000E+00  0.000000000E+00  4.858978472E+01  4.858978472E+01  0.000000000E+00  0.00000E+00  9.000E+00
      21    -1     0     0   511   502  0.000000000E+00  0.000000000E+00 -1.046574705E+03  1.046574705E+03  0.000000000E+00  0.00000E+00  9.000E+00
      25     1     1     2     0     0  4.230575867E+01 -1.093722858E+02 -1.897137183E+02  2.556723862E+02  1.250000000E+02  0.00000E+00  9.000E+00
      25     1     1     2     0     0 -1.974910002E+01  1.249631243E+02 -5.130838418E+02  5.430339198E+02  1.250000000E+02  0.00000E+00  9.000E+00
      21     1     1     2   511   501 -2.255665866E+01 -1.559083850E+01 -2.951873601E+02  2.964581837E+02  0.000000000E+00  0.00000E+00  9.000E+00
#rwgt            1           1  -3.1444133384185752E-002           6      421371           0
</event>
<event>
      5   9999  3.79277E-02  4.66549E+00 -1.00000E+00  2.48655E-01
      21    -1     0     0   502   501  0.000000000E+00  0.000000000E+00  1.639894254E+02  1.639894254E+02  0.000000000E+00  0.00000E+00  9.000E+00
       2    -1     0     0   501     0  0.000000000E+00  0.000000000E+00 -1.006015016E+03  1.006015016E+03  0.000000000E+00  0.00000E+00  9.000E+00
      25     1     1     2     0     0  2.677667159E+01 -5.009718077E+01  8.625797387E+01  1.621485606E+02  1.250000000E+02  0.00000E+00  9.000E+00
      25     1     1     2     0     0 -2.596108529E+01  5.469082984E+01 -8.145075191E+01  1.610102165E+02  1.250000000E+02  0.00000E+00  9.000E+00
       2     1     1     2   502     0 -8.155862945E-01 -4.593649075E+00 -8.468328122E+02  8.468456640E+02  1.078959322E-05  0.00000E+00  9.000E+00
#rwgt            1           1   3.7623164144379884E-002           6      421581           0
</event>
<event>
      5   9999  3.79277E-02  3.30525E+01 -1.00000E+00  1.50173E-01
      21    -1     0     0   502   511  0.000000000E+00  0.000000000E+00  5.608910138E+02  5.608910138E+02  0.000000000E+00  0.00000E+00  9.000E+00
      21    -1     0     0   501   502  0.000000000E+00  0.000000000E+00 -1.109432044E+02  1.109432044E+02  0.000000000E+00  0.00000E+00  9.000E+00
      25     1     1     2     0     0 -8.122084026E+01  4.461516792E+01 -2.209672142E+01  1.571642555E+02  1.250000000E+02  0.00000E+00  9.000E+00
      25     1     1     2     0     0  1.127791211E+02 -3.478966926E+01  3.893546014E+02  4.256189103E+02  1.250000000E+02  0.00000E+00  9.000E+00
      21     1     1     2   501   511 -3.155828080E+01 -9.825498661E+00  8.268992940E+01  8.905105241E+01  0.000000000E+00  0.00000E+00  9.000E+00
#rwgt            1           1   4.6225599207791651E-002           6      422016           0
</event>
<event>
      5   9999  3.79277E-02  2.36053E+02 -1.00000E+00  1.09089E-01
      21    -1     0     0   502   501  0.000000000E+00  0.000000000E+00  6.082057264E+02  6.082057264E+02  0.000000000E+00  0.00000E+00  9.000E+00
      21    -1     0     0   501   512  0.000000000E+00  0.000000000E+00 -3.143565653E+02  3.143565653E+02  0.000000000E+00  0.00000E+00  9.000E+00
      25     1     1     2     0     0 -3.612615996E+02  1.700235348E+02  2.089405023E+02  4.676527336E+02  1.250000000E+02  0.00000E+00  9.000E+00
      25     1     1     2     0     0  1.633977610E+02 -4.129619373E+01  5.538565454E+01  2.170179132E+02  1.250000000E+02  0.00000E+00  9.000E+00
      21     1     1     2   502   512  1.978638386E+02 -1.287273411E+02  2.952300429E+01  2.378916449E+02  4.886126883E-06  0.00000E+00  9.000E+00
#rwgt            2          11   1.9054269820622221E-003           6      422156           0
</event>
<event>
      5   9999  3.79277E-02  7.03811E+00 -1.00000E+00  2.15221E-01
      21    -1     0     0   502   501  0.000000000E+00  0.000000000E+00  7.322768952E+02  7.322768952E+02  0.000000000E+00  0.00000E+00  9.000E+00
      21    -1     0     0   511   502  0.000000000E+00  0.000000000E+00 -1.321952254E+02  1.321952254E+02  0.000000000E+00  0.00000E+00  9.000E+00
      25     1     1     2     0     0 -1.119244381E+02  9.183570083E+01  1.897495996E+02  2.694267736E+02  1.250000000E+02  0.00000E+00  9.000E+00
      25     1     1     2     0     0  1.188409160E+02 -9.053289619E+01  4.836431381E+02  5.213972129E+02  1.250000000E+02  0.00000E+00  9.000E+00
      21     1     1     2   511   501 -6.916477908E+00 -1.302804641E+00 -7.331106792E+01  7.364813403E+01  2.336015456E-06  0.00000E+00  9.000E+00
#rwgt            1           1   4.5609816220391002E-002           6      422236           0
</event>
<event>
      5   9999  3.79277E-02  9.88853E+01 -1.00000E+00  1.24047E-01
      21    -1     0     0   502   501  0.000000000E+00  0.000000000E+00  9.273653250E+01  9.273653250E+01  0.000000000E+00  0.00000E+00  9.000E+00
      21    -1     0     0   501   512  0.000000000E+00  0.000000000E+00 -1.386736237E+03  1.386736237E+03  0.000000000E+00  0.00000E+00  9.000E+00
      25     1     1     2     0     0  1.768053315E+02  7.449811054E+01 -4.319208852E+02  4.888667966E+02  1.250000000E+02  0.00000E+00  9.000E+00
      25     1     1     2     0     0 -9.310906343E+01 -2.183649642E+01 -3.971993739E+01  1.623231459E+02  1.250000000E+02  0.00000E+00  9.000E+00
      21     1     1     2   502   512 -8.369626809E+01 -5.266161413E+01 -8.223588819E+02  8.282828270E+02  1.525878906E-05  0.00000E+00  9.000E+00
#rwgt            1           1   3.8603383756302290E-002           6      422503           0
</event>
<event>
      5   9999  3.79277E-02  5.40261E+01 -1.00000E+00  1.37183E-01
      21    -1     0     0   511   501  0.000000000E+00  0.000000000E+00  2.526984668E+03  2.526984668E+03  0.000000000E+00  0.00000E+00  9.000E+00
      21    -1     0     0   501   502  0.000000000E+00  0.000000000E+00 -3.844106624E+01  3.844106624E+01  0.000000000E+00  0.00000E+00  9.000E+00
      25     1     1     2     0     0 -8.722719715E+01  1.816666850E+02  4.715593702E+02  5.278300938E+02  1.250000000E+02  0.00000E+00  9.000E+00
      25     1     1     2     0     0  1.304894399E+02 -1.493062519E+02  1.689944680E+03  1.706123639E+03  1.250000000E+02  0.00000E+00  9.000E+00
      21     1     1     2   511   502 -4.326224270E+01 -3.236043314E+01  3.270395519E+02  3.314720015E+02  5.394796609E-06  0.00000E+00  9.000E+00
#rwgt            1           1   5.9533093686310518E-002           6      422679           0
</event>
<event>
      5   9999 -3.79277E-02  7.26894E+01 -1.00000E+00  1.30397E-01
      21    -1     0     0   502   501  0.000000000E+00  0.000000000E+00  1.166254049E+03  1.166254049E+03  0.000000000E+00  0.00000E+00  9.000E+00
      21    -1     0     0   501   512  0.000000000E+00  0.000000000E+00 -1.134806094E+02  1.134806094E+02  0.000000000E+00  0.00000E+00  9.000E+00
      25     1     1     2     0     0  2.108773389E+02 -1.404959853E+02  2.067483807E+02  3.501117919E+02  1.250000000E+02  0.00000E+00  9.000E+00
      25     1     1     2     0     0 -2.578228915E+02  8.499947424E+01  7.620266294E+02  8.185396373E+02  1.250000000E+02  0.00000E+00  9.000E+00
      21     1     1     2   502   512  4.694555262E+01  5.549651102E+01  8.399842959E+01  1.110832292E+02  9.536743164E-07  0.00000E+00  9.000E+00
#rwgt            1           1  -1.6039795150393988E-002           6      422795           0
</event>
<event>
      5   9999  3.79277E-02  9.48541E+01 -1.00000E+00  1.24869E-01
      21    -1     0     0   502   501  0.000000000E+00  0.000000000E+00  1.560634732E+02  1.560634732E+02  0.000000000E+00  0.00000E+00  9.000E+00
       1    -1     0     0   501     0  0.000000000E+00  0.000000000E+00 -1.138729851E+03  1.138729851E+03  0.000000000E+00  0.00000E+00  9.000E+00
      25     1     1     2     0     0  8.797097855E+01  1.328454462E+02  2.193719837E+01  2.036984200E+02  1.250000000E+02  0.00000E+00  9.000E+00
      25     1     1     2     0     0 -1.581644234E+02 -6.904744608E+01 -2.413101038E+02  3.219302733E+02  1.250000000E+02  0.00000E+00  9.000E+00
       1     1     1     2   502     0  7.019344490E+01 -6.379800009E+01 -7.632934723E+02  7.691646309E+02  0.000000000E+00  0.00000E+00  9.000E+00
#rwgt            1           1   2.6510786224845907E-002           6      422856           0
</event>
<event>
      5   9999  3.79277E-02  9.17282E+01 -1.00000E+00  1.25538E-01
      21    -1     0     0   502   511  0.000000000E+00  0.000000000E+00  1.017500726E+02  1.017500726E+02  0.000000000E+00  0.00000E+00  9.000E+00
      21    -1     0     0   501   502  0.000000000E+00  0.000000000E+00 -2.417298392E+03  2.417298392E+03  0.000000000E+00  0.00000E+00  9.000E+00
      25     1     1     2     0     0 -3.896691960E+01 -1.400783533E+02 -7.791856456E+02  8.024310788E+02  1.250000000E+02  0.00000E+00  9.000E+00
      25     1     1     2     0     0 -4.275936603E+01  1.817302193E+02 -1.593030771E+03  1.608796530E+03  1.250000000E+02  0.00000E+00  9.000E+00
      21     1     1     2   501   511  8.172628563E+01 -4.165186602E+01  5.666809759E+01  1.078208560E+02  6.743495762E-07  0.00000E+00  9.000E+00
#rwgt            1           1   7.1400030451383337E-002           6      422987           0
</event>
<event>
      5   9999  3.79277E-02  2.10790E+02 -1.00000E+00  1.10824E-01
      21    -1     0     0   502   501  0.000000000E+00  0.000000000E+00  3.031186697E+02  3.031186697E+02  0.000000000E+00  0.00000E+00  9.000E+00
      21    -1     0     0   512   502  0.000000000E+00  0.000000000E+00 -4.510357183E+02  4.510357183E+02  0.000000000E+00  0.00000E+00  9.000E+00
      25     1     1     2     0     0 -1.108286718E+02 -2.493661077E+02  4.468340009E+01  3.034601397E+02  1.250000000E+02  0.00000E+00  9.000E+00
      25     1     1     2     0     0 -6.645629977E+01  1.353376859E+02 -1.071163987E+02  2.232300425E+02  1.250000000E+02  0.00000E+00  9.000E+00
      21     1     1     2   512   501  1.772849715E+02  1.140284218E+02 -8.548405004E+01  2.274642058E+02  9.536743164E-07  0.00000E+00  9.000E+00
#rwgt            1           1   3.9061022470309091E-002           6      423090           0
</event>
<event>
      5   9999  3.79277E-02  5.53809E+01 -1.00000E+00  1.36589E-01
      21    -1     0     0   502   501  0.000000000E+00  0.000000000E+00  9.464945718E+01  9.464945718E+01  0.000000000E+00  0.00000E+00  9.000E+00
      21    -1     0     0   511   502  0.000000000E+00  0.000000000E+00 -4.704957224E+02  4.704957224E+02  0.000000000E+00  0.00000E+00  9.000E+00
      25     1     1     2     0     0 -9.911625245E+01 -7.600788149E+01 -6.708379318E+01  1.890144567E+02  1.250000000E+02  0.00000E+00  9.000E+00
      25     1     1     2     0     0  9.434764124E+01  2.083263314E+01 -2.085849736E+02  2.616642261E+02  1.250000000E+02  0.00000E+00  9.000E+00
      21     1     1     2   511   501  4.768611201E+00  5.517524836E+01 -1.001774984E+02  1.144664967E+02  0.000000000E+00  0.00000E+00  9.000E+00
#rwgt            1           1   4.6003542710975134E-002           6      423210           0
</event>
<event>
      5   9999  3.79277E-02  2.41731E+01 -1.00000E+00  1.59853E-01
      21    -1     0     0   502   512  0.000000000E+00  0.000000000E+00  2.327747926E+02  2.327747926E+02  0.000000000E+00  0.00000E+00  9.000E+00
      21    -1     0     0   501   502  0.000000000E+00  0.000000000E+00 -3.643828768E+02  3.643828768E+02  0.000000000E+00  0.00000E+00  9.000E+00
      25     1     1     2     0     0 -1.139019227E+02  2.640119098E+01  1.540981750E+02  2.303083117E+02  1.250000000E+02  0.00000E+00  9.000E+00
      25     1     1     2     0     0  1.223097463E+02 -3.737352009E+00 -2.933083228E+02  3.415090249E+02  1.250000000E+02  0.00000E+00  9.000E+00
      21     1     1     2   501   512 -8.407823604E+00 -2.266383897E+01  7.602063553E+00  2.534033277E+01  1.884864366E-07  0.00000E+00  9.000E+00
#rwgt            1           1   3.4788998458469521E-002           6      423279           0
</event>
<event>
      5   9999  3.79277E-02  1.78871E+01 -1.00000E+00  1.70472E-01
      21    -1     0     0   502   501  0.000000000E+00  0.000000000E+00  5.698323845E+02  5.698323845E+02  0.000000000E+00  0.00000E+00  9.000E+00
      21    -1     0     0   501   511  0.000000000E+00  0.000000000E+00 -3.854068359E+02  3.854068359E+02  0.000000000E+00  0.00000E+00  9.000E+00
      25     1     1     2     0     0  1.012632564E+02 -1.684714959E+00  4.211968870E+02  4.508757068E+02  1.250000000E+02  0.00000E+00  9.000E+00
      25     1     1     2     0     0 -9.963710892E+01 -1.612828431E+01  8.522685584E+01  1.818688868E+02  1.250000000E+02  0.00000E+00  9.000E+00
      21     1     1     2   502   511 -1.626147482E+00  1.781299927E+01 -3.219981942E+02  3.224946269E+02  5.394796609E-06  0.00000E+00  9.000E+00
#rwgt            1           1   5.0551573004259588E-002           6      423480           0
</event>
<event>
      5   9999  3.79277E-02  3.28418E+01 -1.00000E+00  1.50359E-01
      21    -1     0     0   512   501  0.000000000E+00  0.000000000E+00  3.548991448E+01  3.548991448E+01  0.000000000E+00  0.00000E+00  9.000E+00
      21    -1     0     0   501   502  0.000000000E+00  0.000000000E+00 -9.494786388E+02  9.494786388E+02  0.000000000E+00  0.00000E+00  9.000E+00
      25     1     1     2     0     0 -3.381995974E+01  1.077291027E+02 -3.913892677E+02  4.260984723E+02  1.250000000E+02  0.00000E+00  9.000E+00
      25     1     1     2     0     0  9.794443797E-01 -1.074359856E+02 -4.480655522E+02  4.774213960E+02  1.250000000E+02  0.00000E+00  9.000E+00
      21     1     1     2   512   502  3.284051536E+01 -2.931171580E-01 -7.453390445E+01  8.144868494E+01  1.348699152E-06  0.00000E+00  9.000E+00
#rwgt            1           1   6.8909189650215960E-002           6      423580           0
</event>
<event>
      5   9999  3.79277E-02  1.87688E+01 -1.00000E+00  1.68678E-01
      21    -1     0     0   511   501  0.000000000E+00  0.000000000E+00  1.849270814E+02  1.849270814E+02  0.000000000E+00  0.00000E+00  9.000E+00
      21    -1     0     0   501   502  0.000000000E+00  0.000000000E+00 -4.181561010E+02  4.181561010E+02  0.000000000E+00  0.00000E+00  9.000E+00
      25     1     1     2     0     0  1.223832127E+02 -1.885554078E+02 -1.554040194E+02  3.005099030E+02  1.250000000E+02  0.00000E+00  9.000E+00
      25     1     1     2     0     0 -1.357728996E+02  2.017076983E+02 -7.571353610E+01  2.836861212E+02  1.250000000E+02  0.00000E+00  9.000E+00
      21     1     1     2   511   502  1.338968688E+01 -1.315229056E+01 -2.111464096E+00  1.888715813E+01  2.715120786E-07  0.00000E+00  9.000E+00
#rwgt            1           1  0.16307228457723114                6      423844           0
</event>
<event>
      5   9999  3.79277E-02  7.61417E+01 -1.00000E+00  1.29397E-01
      21    -1     0     0   502   501  0.000000000E+00  0.000000000E+00  1.800766376E+02  1.800766376E+02  0.000000000E+00  0.00000E+00  9.000E+00
      21    -1     0     0   501   512  0.000000000E+00  0.000000000E+00 -5.858489991E+02  5.858489991E+02  0.000000000E+00  0.00000E+00  9.000E+00
      25     1     1     2     0     0  1.327644579E+02  2.028748245E+02 -6.843964676E+01  2.812358102E+02  1.250000000E+02  0.00000E+00  9.000E+00
      25     1     1     2     0     0 -6.278794067E+01 -2.328889396E+02 -2.705996261E+02  3.834432700E+02  1.250000000E+02  0.00000E+00  9.000E+00
      21     1     1     2   502   512 -6.997651727E+01  3.001411514E+01 -6.673308868E+01  1.012465565E+02  1.348699152E-06  0.00000E+00  9.000E+00
#rwgt            1           1   4.2416728454912532E-002           6      424108           0
</event>
<event>
      5   9999  3.79277E-02  2.82545E+01 -1.00000E+00  1.54870E-01
      21    -1     0     0   511   501  0.000000000E+00  0.000000000E+00  1.810310663E+02  1.810310663E+02  0.000000000E+00  0.00000E+00  9.000E+00
      21    -1     0     0   501   502  0.000000000E+00  0.000000000E+00 -1.492017486E+03  1.492017486E+03  0.000000000E+00  0.00000E+00  9.000E+00
      25     1     1     2     0     0 -1.877920716E+02  4.524810841E+01 -5.635376907E+02  6.086977758E+02  1.250000000E+02  0.00000E+00  9.000E+00
      25     1     1     2     0     0  1.611492751E+02 -5.465450453E+01 -8.922123848E+02  9.168555739E+02  1.250000000E+02  0.00000E+00  9.000E+00
      21     1     1     2   511   502  2.664279646E+01  9.406396118E+00  1.447636556E+02  1.474952029E+02  4.672030912E-06  0.00000E+00  9.000E+00
#rwgt            1           1   2.7406281585438362E-002           6      424261           0
</event>
<event>
      5   9999  3.79277E-02  3.41308E+01 -1.00000E+00  1.49248E-01
      21    -1     0     0   512   501  0.000000000E+00  0.000000000E+00  4.481839866E+02  4.481839866E+02  0.000000000E+00  0.00000E+00  9.000E+00
      21    -1     0     0   501   502  0.000000000E+00  0.000000000E+00 -1.055701537E+02  1.055701537E+02  0.000000000E+00  0.00000E+00  9.000E+00
      25     1     1     2     0     0 -3.827679005E+01  5.599482927E+01 -6.515028845E+00  1.423656530E+02  1.250000000E+02  0.00000E+00  9.000E+00
      25     1     1     2     0     0  3.797920212E+01 -9.012430891E+01  1.850141692E+02  2.437622892E+02  1.250000000E+02  0.00000E+00  9.000E+00
      21     1     1     2   512   502  2.975879311E-01  3.412947964E+01  1.641146926E+02  1.676261980E+02  0.000000000E+00  0.00000E+00  9.000E+00
#rwgt            1           1   4.2949953948929351E-002           6      424523           0
</event>
<event>
      5   9999  3.79277E-02  6.57984E+01 -1.00000E+00  1.32597E-01
      21    -1     0     0   502   501  0.000000000E+00  0.000000000E+00  1.964833163E+02  1.964833163E+02  0.000000000E+00  0.00000E+00  9.000E+00
      21    -1     0     0   501   511  0.000000000E+00  0.000000000E+00 -5.111575558E+02  5.111575558E+02  0.000000000E+00  0.00000E+00  9.000E+00
      25     1     1     2     0     0  5.274114590E+01 -1.064236862E+02  1.096060800E+02  2.043186781E+02  1.250000000E+02  0.00000E+00  9.000E+00
      25     1     1     2     0     0 -8.915514808E+01  5.161991032E+01 -1.483314734E+02  2.196371589E+02  1.250000000E+02  0.00000E+00  9.000E+00
      21     1     1     2   502   511  3.641400219E+01  5.480377588E+01 -2.759488462E+02  2.836850350E+02  3.814697266E-06  0.00000E+00  9.000E+00
#rwgt            1           1   2.4717903340402161E-002           6      424680           0
</event>
<event>
      5   9999  3.79277E-02  1.02273E+02 -1.00000E+00  1.23391E-01
      21    -1     0     0   502   512  0.000000000E+00  0.000000000E+00  6.058802125E+02  6.058802125E+02  0.000000000E+00  0.00000E+00  9.000E+00
      21    -1     0     0   501   502  0.000000000E+00  0.000000000E+00 -9.723291097E+02  9.723291097E+02  0.000000000E+00  0.00000E+00  9.000E+00
      25     1     1     2     0     0  1.432782210E+02 -3.450565410E+01 -5.030811864E-01  1.932473593E+02  1.250000000E+02  0.00000E+00  9.000E+00
      25     1     1     2     0     0 -6.279356661E+01  9.760847873E+01 -8.618775200E+02  8.785945064E+02  1.250000000E+02  0.00000E+00  9.000E+00
      21     1     1     2   501   512 -8.048465437E+01 -6.310282462E+01  4.959317040E+02  5.063674566E+02  0.000000000E+00  0.00000E+00  9.000E+00
#rwgt            2          11   4.7993129962027687E-003           6      424753           0
</event>
<event>
      5   9999  3.79277E-02  6.36805E+01 -1.00000E+00  1.33336E-01
      21    -1     0     0   511   501  0.000000000E+00  0.000000000E+00  4.181133775E+02  4.181133775E+02  0.000000000E+00  0.00000E+00  9.000E+00
      21    -1     0     0   501   502  0.000000000E+00  0.000000000E+00 -1.320125298E+02  1.320125298E+02  0.000000000E+00  0.00000E+00  9.000E+00
      25     1     1     2     0     0 -5.155277577E+01 -5.784530191E+01 -2.604491543E+01  1.493556335E+02  1.250000000E+02  0.00000E+00  9.000E+00
      25     1     1     2     0     0  1.078948545E+02  8.752324681E+01  2.461932588E+02  3.090917971E+02  1.250000000E+02  0.00000E+00  9.000E+00
      21     1     1     2   511   502 -5.634207874E+01 -2.967794490E+01  6.595250432E+01  9.167847662E+01  0.000000000E+00  0.00000E+00  9.000E+00
#rwgt            1           1   4.1371750278416476E-002           6      424818           0
</event>
<event>
      5   9999  3.79277E-02  1.05948E+02 -1.00000E+00  1.22710E-01
      21    -1     0     0   502   512  0.000000000E+00  0.000000000E+00  1.764758791E+03  1.764758791E+03  0.000000000E+00  0.00000E+00  9.000E+00
      21    -1     0     0   501   502  0.000000000E+00  0.000000000E+00 -1.217749719E+02  1.217749719E+02  0.000000000E+00  0.00000E+00  9.000E+00
      25     1     1     2     0     0  8.712049867E+01  1.946728157E+02  5.499344516E+02  6.029431047E+02  1.250000000E+02  0.00000E+00  9.000E+00
      25     1     1     2     0     0 -6.853994531E+01 -2.989785508E+02  2.056206528E+02  3.898599118E+02  1.250000000E+02  0.00000E+00  9.000E+00
      21     1     1     2   501   512 -1.858055335E+01  1.043057351E+02  8.874287149E+02  8.937307465E+02  0.000000000E+00  0.00000E+00  9.000E+00
#rwgt            1           1   3.0732794594938408E-002           6      424983           0
</event>
<event>
      5   9999  3.79277E-02  1.92907E+01 -1.00000E+00  1.67673E-01
      21    -1     0     0   502   501  0.000000000E+00  0.000000000E+00  1.515352080E+02  1.515352080E+02  0.000000000E+00  0.00000E+00  9.000E+00
      21    -1     0     0   511   502  0.000000000E+00  0.000000000E+00 -9.141550402E+02  9.141550402E+02  0.000000000E+00  0.00000E+00  9.000E+00
      25     1     1     2     0     0 -1.966194404E+02 -8.576897965E+01 -2.465232766E-01  2.482752162E+02  1.250000000E+02  0.00000E+00  9.000E+00
      25     1     1     2     0     0  2.019513433E+02  6.722980399E+01 -5.346953997E+02  5.889213547E+02  1.250000000E+02  0.00000E+00  9.000E+00
      21     1     1     2   511   501 -5.331902920E+00  1.853917565E+01 -2.276779092E+02  2.284936773E+02  2.697398305E-06  0.00000E+00  9.000E+00
#rwgt            1           1   4.6263790669300330E-002           6      425123           0
</event>
<event>
      5   9999  3.79277E-02  3.16992E+01 -1.00000E+00  1.51396E-01
      21    -1     0     0   502   512  0.000000000E+00  0.000000000E+00  6.631882035E+01  6.631882035E+01  0.000000000E+00  0.00000E+00  9.000E+00
      21    -1     0     0   501   502  0.000000000E+00  0.000000000E+00 -1.085006874E+03  1.085006874E+03  0.000000000E+00  0.00000E+00  9.000E+00
      25     1     1     2     0     0  6.677820326E+01  1.915404237E+02 -6.481374244E+02  6.905462933E+02  1.250000000E+02  0.00000E+00  9.000E+00
      25     1     1     2     0     0 -8.299718022E+01 -1.643047450E+02 -3.665909317E+02  4.288338750E+02  1.250000000E+02  0.00000E+00  9.000E+00
      21     1     1     2   501   512  1.621897697E+01 -2.723567869E+01 -3.959697234E+00  3.194552566E+01  8.910844557E-07  0.00000E+00  9.000E+00
#rwgt            1           1   4.5804957796762372E-002           6      425402           0
</event>
<event>
      5   9999 -3.79277E-02  3.90227E+01 -1.00000E+00  1.45510E-01
      21    -1     0     0   511   501  0.000000000E+00  0.000000000E+00  3.641256397E+02  3.641256397E+02  0.000000000E+00  0.00000E+00  9.000E+00
      21    -1     0     0   501   502  0.000000000E+00  0.000000000E+00 -2.764400128E+02  2.764400128E+02  0.000000000E+00  0.00000E+00  9.000E+00
      25     1     1     2     0     0  2.405364264E+02 -5.177888267E+01 -5.139459559E-01  2.759784218E+02  1.250000000E+02  0.00000E+00  9.000E+00
      25     1     1     2     0     0 -2.401636778E+02  1.275792183E+01  3.208458322E+00  2.710657686E+02  1.250000000E+02  0.00000E+00  9.000E+00
      21     1     1     2   511   502 -3.727486718E-01  3.902096085E+01  8.499111456E+01  9.352146215E+01  0.000000000E+00  0.00000E+00  9.000E+00
#rwgt            1           1  -3.8154892504726860E-002           6      425584           0
</event>
<event>
      5   9999  3.79277E-02  7.09631E+01 -1.00000E+00  1.30921E-01
      21    -1     0     0   502   512  0.000000000E+00  0.000000000E+00  8.995845016E+02  8.995845016E+02  0.000000000E+00  0.00000E+00  9.000E+00
      21    -1     0     0   501   502  0.000000000E+00  0.000000000E+00 -6.813793137E+01  6.813793137E+01  0.000000000E+00  0.00000E+00  9.000E+00
      25     1     1     2     0     0 -1.813061578E+02  4.436062616E+01  3.866501206E+02  4.471723423E+02  1.250000000E+02  0.00000E+00  9.000E+00
      25     1     1     2     0     0  1.539663256E+02  2.112447469E+01  3.253869671E+02  3.816458452E+02  1.250000000E+02  0.00000E+00  9.000E+00
      21     1     1     2   501   512  2.733983218E+01 -6.548510085E+01  1.194094826E+02  1.389042454E+02  1.907348633E-06  0.00000E+00  9.000E+00
#rwgt            1           1   3.7134069660152494E-002           6      425822           0
</event>
<event>
      5   9999  3.79277E-02  2.90546E+02 -1.00000E+00  1.06046E-01
       3    -1     0     0   502     0  0.000000000E+00  0.000000000E+00  4.367853039E+02  4.367853039E+02  0.000000000E+00  0.00000E+00  9.000E+00
      21    -1     0     0   501   502  0.000000000E+00  0.000000000E+00 -1.079730446E+03  1.079730446E+03  0.000000000E+00  0.00000E+00  9.000E+00
      25     1     1     2     0     0 -1.449624066E+02  1.228095625E+02 -1.495686872E+02  2.721986043E+02  1.250000000E+02  0.00000E+00  9.000E+00
      25     1     1     2     0     0  1.058727559E+02  1.650953240E+02 -7.933296573E+02  8.267178791E+02  1.250000000E+02  0.00000E+00  9.000E+00
       3     1     1     2   501     0  3.908965063E+01 -2.879048865E+02  2.999532019E+02  4.175992670E+02  5.394796609E-06  0.00000E+00  9.000E+00
#rwgt            2          19   1.0915131964521690E-004           6      425903           0
</event>
<event>
      5   9999  3.79277E-02  1.69566E+01 -1.00000E+00  1.72510E-01
      21    -1     0     0   502   501  0.000000000E+00  0.000000000E+00  5.440907154E+01  5.440907154E+01  0.000000000E+00  0.00000E+00  9.000E+00
      21    -1     0     0   511   502  0.000000000E+00  0.000000000E+00 -4.131484298E+02  4.131484298E+02  0.000000000E+00  0.00000E+00  9.000E+00
      25     1     1     2     0     0  3.795696738E+01 -1.333454947E+01 -8.528985230E+01  1.565819290E+02  1.250000000E+02  0.00000E+00  9.000E+00
      25     1     1     2     0     0 -3.154647135E+01 -2.363595407E+00 -2.211318718E+02  2.559786537E+02  1.250000000E+02  0.00000E+00  9.000E+00
      21     1     1     2   511   501 -6.410496034E+00  1.569814488E+01 -5.231763419E+01  5.499691863E+01  0.000000000E+00  0.00000E+00  9.000E+00
#rwgt            1           1   2.4343038597258164E-002           6      425922           0
</event>
<event>
      5   9999  3.79277E-02  3.49604E+01 -1.00000E+00  1.48563E-01
      21    -1     0     0   512   501  0.000000000E+00  0.000000000E+00  2.594733253E+03  2.594733253E+03  0.000000000E+00  0.00000E+00  9.000E+00
      21    -1     0     0   501   502  0.000000000E+00  0.000000000E+00 -3.329356705E+01  3.329356705E+01  0.000000000E+00  0.00000E+00  9.000E+00
      25     1     1     2     0     0  1.160124256E+02  1.781665355E+02  7.277056745E+02  7.683636808E+02  1.250000000E+02  0.00000E+00  9.000E+00
      25     1     1     2     0     0 -1.475924452E+02 -1.931642642E+02  1.671607851E+03  1.693810429E+03  1.250000000E+02  0.00000E+00  9.000E+00
      21     1     1     2   512   502  3.158001962E+01  1.499772870E+01  1.621261605E+02  1.658527101E+02  1.907348633E-06  0.00000E+00  9.000E+00
#rwgt            1           1  0.44725410445425096                6      426231           0
</event>
<event>
      5   9999  3.79277E-02  2.39880E+01 -1.00000E+00  1.60107E-01
      21    -1     0     0   502   501  0.000000000E+00  0.000000000E+00  8.123498388E+01  8.123498388E+01  0.000000000E+00  0.00000E+00  9.000E+00
      21    -1     0     0   511   502  0.000000000E+00  0.000000000E+00 -1.093811719E+03  1.093811719E+03  0.000000000E+00  0.00000E+00  9.000E+00
      25     1     1     2     0     0  2.226786591E+02  3.949117268E+01 -6.602488506E+02  7.090126110E+02  1.250000000E+02  0.00000E+00  9.000E+00
      25     1     1     2     0     0 -2.407418514E+02 -2.370679244E+01 -2.832283758E+02  3.928892514E+02  1.250000000E+02  0.00000E+00  9.000E+00
      21     1     1     2   511   501  1.806319223E+01 -1.578438023E+01 -6.909950877E+01  7.314484046E+01  0.000000000E+00  0.00000E+00  9.000E+00
#rwgt            1           1   3.7661200447523524E-002           6      426451           0
</event>
<event>
      5   9999  3.79277E-02  4.88319E+01 -1.00000E+00  1.39664E-01
      21    -1     0     0   502   512  0.000000000E+00  0.000000000E+00  3.647917338E+02  3.647917338E+02  0.000000000E+00  0.00000E+00  9.000E+00
      21    -1     0     0   501   502  0.000000000E+00  0.000000000E+00 -2.058166970E+02  2.058166970E+02  0.000000000E+00  0.00000E+00  9.000E+00
      25     1     1     2     0     0 -6.892800777E+01 -1.527931004E+01 -1.402370511E+02  2.006887094E+02  1.250000000E+02  0.00000E+00  9.000E+00
      25     1     1     2     0     0  9.312313748E+01  5.769564419E+01  2.528356940E+02  3.025749399E+02  1.250000000E+02  0.00000E+00  9.000E+00
      21     1     1     2   501   512 -2.419512971E+01 -4.241633415E+01  4.637639392E+01  6.734478166E+01  0.000000000E+00  0.00000E+00  9.000E+00
#rwgt            1           1   3.7666925529797703E-002           6      426649           0
</event>
<event>
      5   9999  3.79277E-02  5.64587E+01 -1.00000E+00  1.36131E-01
       2    -1     0     0   502     0  0.000000000E+00  0.000000000E+00  5.667934931E+02  5.667934931E+02  0.000000000E+00  0.00000E+00  9.000E+00
      21    -1     0     0   501   502  0.000000000E+00  0.000000000E+00 -1.977721055E+02  1.977721055E+02  0.000000000E+00  0.00000E+00  9.000E+00
      25     1     1     2     0     0  6.256465863E+01 -8.079187663E+01 -1.269459108E+02  2.053823948E+02  1.250000000E+02  0.00000E+00  9.000E+00
      25     1     1     2     0     0 -5.937554636E+01  1.371604000E+02  3.228096476E+02  3.770537089E+02  1.250000000E+02  0.00000E+00  9.000E+00
       2     1     1     2   501     0 -3.189112268E+00 -5.636852342E+01  1.731576508E+02  1.821294949E+02  0.000000000E+00  0.00000E+00  9.000E+00
#rwgt            1           1   3.6866421018678583E-002           6      426828           0
</event>
<event>
      5   9999  3.79277E-02  2.09514E+01 -1.00000E+00  1.64721E-01
      21    -1     0     0   511   501  0.000000000E+00  0.000000000E+00  6.808491763E+01  6.808491763E+01  0.000000000E+00  0.00000E+00  9.000E+00
      21    -1     0     0   501   502  0.000000000E+00  0.000000000E+00 -1.093514841E+03  1.093514841E+03  0.000000000E+00  0.00000E+00  9.000E+00
      25     1     1     2     0     0  1.100131405E+02 -1.145616955E+02 -2.470327203E+02  3.191824526E+02  1.250000000E+02  0.00000E+00  9.000E+00
      25     1     1     2     0     0 -1.101403407E+02  1.355126805E+02 -7.898606126E+02  8.185348915E+02  1.250000000E+02  0.00000E+00  9.000E+00
      21     1     1     2   511   502  1.272002278E-01 -2.095098492E+01  1.146340976E+01  2.388241429E+01  6.743495762E-07  0.00000E+00  9.000E+00
#rwgt            1           1   3.9196717699882894E-002           6      426975           0
</event>
<event>
      5   9999  3.79277E-02  7.14789E+01 -1.00000E+00  1.30762E-01
      21    -1     0     0   512   501  0.000000000E+00  0.000000000E+00  1.720740463E+03  1.720740463E+03  0.000000000E+00  0.00000E+00  9.000E+00
      21    -1     0     0   501   502  0.000000000E+00  0.000000000E+00 -5.503947995E+01  5.503947995E+01  0.000000000E+00  0.00000E+00  9.000E+00
      25     1     1     2     0     0  9.208321700E+01 -1.662675876E+02  3.220736556E+02  3.943103716E+02  1.250000000E+02  0.00000E+00  9.000E+00
      25     1     1     2     0     0 -2.689653597E+01  1.369431292E+02  4.859038665E+02  5.207728985E+02  1.250000000E+02  0.00000E+00  9.000E+00
      21     1     1     2   512   502 -6.518668103E+01  2.932445835E+01  8.577234611E+02  8.606966730E+02  0.000000000E+00  0.00000E+00  9.000E+00
#rwgt            1           1   4.1780394224207679E-002           6      427216           0
</event>
<event>
      5   9999  3.79277E-02  1.86222E+02 -1.00000E+00  1.12788E-01
      21    -1     0     0   502   511  0.000000000E+00  0.000000000E+00  9.867688328E+01  9.867688328E+01  0.000000000E+00  0.00000E+00  9.000E+00
      21    -1     0     0   501   502  0.000000000E+00  0.000000000E+00 -1.272730437E+03  1.272730437E+03  0.000000000E+00  0.00000E+00  9.000E+00
      25     1     1     2     0     0  2.057756706E+02  1.255195668E+01 -7.585030951E+02  7.958976840E+02  1.250000000E+02  0.00000E+00  9.000E+00
      25     1     1     2     0     0 -1.971643981E+01 -4.777215404E+00 -3.593222889E+02  3.809843396E+02  1.250000000E+02  0.00000E+00  9.000E+00
      21     1     1     2   501   511 -1.860592308E+02 -7.774741279E+00 -5.622816992E+01  1.945252967E+02  2.523185073E-06  0.00000E+00  9.000E+00
#rwgt            1           1   4.0742779359780316E-002           6      427296           0
</event>
<event>
      5   9999  3.79277E-02  7.49913E+01 -1.00000E+00  1.29723E-01
      21    -1     0     0   502   512  0.000000000E+00  0.000000000E+00  4.438085566E+02  4.438085566E+02  0.000000000E+00  0.00000E+00  9.000E+00
      21    -1     0     0   501   502  0.000000000E+00  0.000000000E+00 -1.871884030E+02  1.871884030E+02  0.000000000E+00  0.00000E+00  9.000E+00
      25     1     1     2     0     0  4.757424760E+00 -2.194070555E+02  1.834678457E+00  2.525677238E+02  1.250000000E+02  0.00000E+00  9.000E+00
      25     1     1     2     0     0 -4.013672461E+01  1.532859103E+02  1.599098811E+02  2.574950427E+02  1.250000000E+02  0.00000E+00  9.000E+00
      21     1     1     2   501   512  3.537929985E+01  6.612114518E+01  9.487559407E+01  1.209341930E+02  1.348699152E-06  0.00000E+00  9.000E+00
#rwgt            1           1   4.0429733215897094E-002           6      427390           0
</event>
<event>
      5   9999  3.79277E-02  7.48401E+01 -1.00000E+00  1.29767E-01
      21    -1     0     0   502   501  0.000000000E+00  0.000000000E+00  2.556116495E+02  2.556116495E+02  0.000000000E+00  0.00000E+00  9.000E+00
      21    -1     0     0   501   511  0.000000000E+00  0.000000000E+00 -3.900328016E+02  3.900328016E+02  0.000000000E+00  0.00000E+00  9.000E+00
      25     1     1     2     0     0  3.480855019E+01 -1.476096593E+02  1.046268310E+02  2.226477497E+02  1.250000000E+02  0.00000E+00  9.000E+00
      25     1     1     2     0     0 -1.064786705E+02  1.691605224E+02 -8.300664541E+01  2.499361775E+02  1.250000000E+02  0.00000E+00  9.000E+00
      21     1     1     2   502   511  7.167012033E+01 -2.155086315E+01 -1.560413377E+02  1.730605239E+02  2.697398305E-06  0.00000E+00  9.000E+00
#rwgt            1           1   4.5935838240779077E-002           6      427499           0
</event>
<event>
      5   9999  3.79277E-02  3.10969E+01 -1.00000E+00  1.51964E-01
      21    -1     0     0   502   512  0.000000000E+00  0.000000000E+00  2.650630036E+02  2.650630036E+02  0.000000000E+00  0.00000E+00  9.000E+00
      21    -1     0     0   501   502  0.000000000E+00  0.000000000E+00 -1.869916600E+02  1.869916600E+02  0.000000000E+00  0.00000E+00  9.000E+00
      25     1     1     2     0     0  5.605341954E+01 -9.302224418E+01 -9.843407419E+01  1.926379784E+02  1.250000000E+02  0.00000E+00  9.000E+00
      25     1     1     2     0     0 -7.233440999E+01  6.652798870E+01  1.467035645E+02  2.163450392E+02  1.250000000E+02  0.00000E+00  9.000E+00
      21     1     1     2   501   512  1.628099045E+01  2.649425548E+01  2.980185325E+01  4.307164591E+01  4.768371582E-07  0.00000E+00  9.000E+00
#rwgt            1           1   3.9098622560348961E-002           6      427632           0
</event>
<event>
      5   9999  3.79277E-02  6.53927E+01 -1.00000E+00  1.32736E-01
      21    -1     0     0   502   511  0.000000000E+00  0.000000000E+00  3.116190805E+02  3.116190805E+02  0.000000000E+00  0.00000E+00  9.000E+00
      21    -1     0     0   501   502  0.000000000E+00  0.000000000E+00 -4.591087089E+02  4.591087089E+02  0.000000000E+00  0.00000E+00  9.000E+00
      25     1     1     2     0     0 -1.227396231E+02  3.848203657E+01 -3.460994324E+02  3.898149552E+02  1.250000000E+02  0.00000E+00  9.000E+00
      25     1     1     2     0     0  5.827880823E+01 -4.948241197E+01 -2.437270980E+01  1.485394142E+02  1.250000000E+02  0.00000E+00  9.000E+00
      21     1     1     2   501   511  6.446081482E+01  1.100037540E+01  2.229825137E+02  2.323734200E+02  4.672030912E-06  0.00000E+00  9.000E+00
#rwgt            1           1   2.4757394075921993E-002           6      427793           0
</event>
<event>
      5   9999  3.79277E-02  1.85418E+02 -1.00000E+00  1.12858E-01
      21    -1     0     0   502   501  0.000000000E+00  0.000000000E+00  4.901067831E+02  4.901067831E+02  0.000000000E+00  0.00000E+00  9.000E+00
      21    -1     0     0   501   512  0.000000000E+00  0.000000000E+00 -2.380454751E+02  2.380454751E+02  0.000000000E+00  0.00000E+00  9.000E+00
      25     1     1     2     0     0 -1.984512138E+02 -1.939714948E+01  5.506446122E+01  2.416944942E+02  1.250000000E+02  0.00000E+00  9.000E+00
      25     1     1     2     0     0  6.446168589E+01  1.475629189E+02  2.196417992E+02  2.996625501E+02  1.250000000E+02  0.00000E+00  9.000E+00
      21     1     1     2   502   512  1.339895279E+02 -1.281657695E+02 -2.264495248E+01  1.867952138E+02  1.651812370E-06  0.00000E+00  9.000E+00
#rwgt            1           1   4.2957926911693797E-002           6      427857           0
</event>
<event>
      5   9999  3.79277E-02  8.37107E+01 -1.00000E+00  1.27404E-01
      21    -1     0     0   502   501  0.000000000E+00  0.000000000E+00  2.146046886E+03  2.146046886E+03  0.000000000E+00  0.00000E+00  9.000E+00
      21    -1     0     0   511   502  0.000000000E+00  0.000000000E+00 -4.453213476E+01  4.453213476E+01  0.000000000E+00  0.00000E+00  9.000E+00
      25     1     1     2     0     0 -1.224226924E+02  5.469067108E+01  1.407633794E+03  1.419519737E+03  1.250000000E+02  0.00000E+00  9.000E+00
      25     1     1     2     0     0  2.004232890E+02 -8.507796280E+01  5.501187437E+02  6.047010722E+02  1.250000000E+02  0.00000E+00  9.000E+00
      21     1     1     2   511   501 -7.800059663E+01  3.038729171E+01  1.437622132E+02  1.663582114E+02  0.000000000E+00  0.00000E+00  9.000E+00
#rwgt            1           1   9.9308740847660254E-002           6      428086           0
</event>
<event>
      5   9999  3.79277E-02  1.58552E+02 -1.00000E+00  1.15447E-01
       2    -1     0     0   502     0  0.000000000E+00  0.000000000E+00  3.128828831E+03  3.128828831E+03  0.000000000E+00  0.00000E+00  9.000E+00
      21    -1     0     0   501   502  0.000000000E+00  0.000000000E+00 -7.038344813E+01  7.038344813E+01  0.000000000E+00  0.00000E+00  9.000E+00
      25     1     1     2     0     0 -4.720374302E+01 -7.974150654E+01  4.796221601E+01  1.628259051E+02  1.250000000E+02  0.00000E+00  9.000E+00
      25     1     1     2     0     0 -1.034029850E+02  3.017876261E+01  6.511713429E+02  6.717529701E+02  1.250000000E+02  0.00000E+00  9.000E+00
       2     1     1     2   501     0  1.506067280E+02  4.956274392E+01  2.359311824E+03  2.364633404E+03  0.000000000E+00  0.00000E+00  9.000E+00
#rwgt            1           1   3.0521101138711225E-002           6      428221           0
</event>
<event>
      5   9999  3.79277E-02  1.68009E+01 -1.00000E+00  1.72867E-01
      21    -1     0     0   502   501  0.000000000E+00  0.000000000E+00  3.154246226E+02  3.154246226E+02  0.000000000E+00  0.00000E+00  9.000E+00
      21    -1     0     0   501   511  0.000000000E+00  0.000000000E+00 -4.308184469E+02  4.308184469E+02  0.000000000E+00  0.00000E+00  9.000E+00
      25     1     1     2     0     0  1.938246167E+02  2.530784784E+02  1.437911374E+01  3.427075389E+02  1.250000000E+02  0.00000E+00  9.000E+00
      25     1     1     2     0     0 -1.770848756E+02 -2.545110780E+02 -7.014377517E+01  3.415846765E+02  1.250000000E+02  0.00000E+00  9.000E+00
      21     1     1     2   502   511 -1.673974111E+01  1.432599649E+00 -5.962916287E+01  6.195085422E+01  0.000000000E+00  0.00000E+00  9.000E+00
#rwgt            1           1   3.9087773730308702E-002           6      428336           0
</event>
<event>
      5   9999  3.79277E-02  2.90852E+01 -1.00000E+00  1.53980E-01
       3    -1     0     0   502     0  0.000000000E+00  0.000000000E+00  4.090836641E+02  4.090836641E+02  0.000000000E+00  0.00000E+00  9.000E+00
      21    -1     0     0   501   502  0.000000000E+00  0.000000000E+00 -6.707269224E+02  6.707269224E+02  0.000000000E+00  0.00000E+00  9.000E+00
      25     1     1     2     0     0 -1.177125696E+02  1.256395827E+02 -3.853332871E+02  4.401684858E+02  1.250000000E+02  0.00000E+00  9.000E+00
      25     1     1     2     0     0  1.437039644E+02 -1.386931723E+02 -2.034005064E+02  3.112609700E+02  1.250000000E+02  0.00000E+00  9.000E+00
       3     1     1     2   501     0 -2.599139480E+01  1.305358965E+01  3.270905352E+02  3.283811307E+02  3.814697266E-06  0.00000E+00  9.000E+00
#rwgt            1           1   3.4983056797237372E-002           6      428664           0
</event>
<event>
      5   9999  3.79277E-02  9.40058E+01 -1.00000E+00  1.25047E-01
      21    -1     0     0   502   501  0.000000000E+00  0.000000000E+00  2.545282058E+02  2.545282058E+02  0.000000000E+00  0.00000E+00  9.000E+00
      21    -1     0     0   501   511  0.000000000E+00  0.000000000E+00 -2.698326710E+02  2.698326710E+02  0.000000000E+00  0.00000E+00  9.000E+00
      25     1     1     2     0     0  6.372039348E+01 -4.666413279E+01 -3.432494301E+01  1.517927256E+02  1.250000000E+02  0.00000E+00  9.000E+00
      25     1     1     2     0     0 -8.524069108E+00  1.227592417E+02  1.363899656E+02  2.221929654E+02  1.250000000E+02  0.00000E+00  9.000E+00
      21     1     1     2   502   511 -5.519632437E+01 -7.609510893E+01 -1.173694878E+02  1.503751858E+02  1.348699152E-06  0.00000E+00  9.000E+00
#rwgt            1           1   2.6256114571847535E-002           6      429013           0
</event>
<event>
      5   9999  3.79277E-02  4.91004E+01 -1.00000E+00  1.39527E-01
      21    -1     0     0   502   501  0.000000000E+00  0.000000000E+00  3.489546713E+02  3.489546713E+02  0.000000000E+00  0.00000E+00  9.000E+00
       2    -1     0     0   501     0  0.000000000E+00  0.000000000E+00 -1.921770466E+03  1.921770466E+03  0.000000000E+00  0.00000E+00  9.000E+00
      25     1     1     2     0     0  7.969933108E+01 -1.384066937E+02  1.249349966E+02  2.382061074E+02  1.250000000E+02  0.00000E+00  9.000E+00
      25     1     1     2     0     0 -3.244235196E+01  1.250789197E+02  1.186809466E+02  2.154237903E+02  1.250000000E+02  0.00000E+00  9.000E+00
       2     1     1     2   502     0 -4.725697912E+01  1.332777401E+01 -1.816431737E+03  1.817095239E+03  3.051757812E-05  0.00000E+00  9.000E+00
#rwgt            1           1   3.8847845546677001E-002           6      429122           0
</event>
<event>
      5   9999  3.79277E-02  4.01194E+01 -1.00000E+00  1.44760E-01
      21    -1     0     0   502   501  0.000000000E+00  0.000000000E+00  2.938577933E+02  2.938577933E+02  0.000000000E+00  0.00000E+00  9.000E+00
      21    -1     0     0   511   502  0.000000000E+00  0.000000000E+00 -4.129892117E+02  4.129892117E+02  0.000000000E+00  0.00000E+00  9.000E+00
      25     1     1     2     0     0  1.053308646E+02  1.242693835E+02 -1.590175990E+02  2.597095830E+02  1.250000000E+02  0.00000E+00  9.000E+00
      25     1     1     2     0     0 -1.071857897E+02 -1.643458578E+02  1.845871476E+02  2.969777257E+02  1.250000000E+02  0.00000E+00  9.000E+00
      21     1     1     2   511   501  1.854925123E+00  4.007647428E+01 -1.447009670E+02  1.501596963E+02  0.000000000E+00  0.00000E+00  9.000E+00
#rwgt            1           1   3.0851217451039161E-002           6      429163           0
</event>
<event>
      5   9999  3.79277E-02  4.59169E+01 -1.00000E+00  1.41220E-01
       1    -1     0     0   502     0  0.000000000E+00  0.000000000E+00  1.077696152E+03  1.077696152E+03  0.000000000E+00  0.00000E+00  9.000E+00
      21    -1     0     0   501   502  0.000000000E+00  0.000000000E+00 -2.961279645E+03  2.961279645E+03  0.000000000E+00  0.00000E+00  9.000E+00
      25     1     1     2     0     0 -2.631519774E+02  3.138410135E+01 -2.036150332E+03  2.057125932E+03  1.250000000E+02  0.00000E+00  9.000E+00
      25     1     1     2     0     0  2.237078512E+02 -5.488997420E+01 -8.953552101E+02  9.329223248E+02  1.250000000E+02  0.00000E+00  9.000E+00
       1     1     1     2   501     0  3.944412620E+01  2.350587285E+01  1.047922049E+03  1.048927541E+03  0.000000000E+00  0.00000E+00  9.000E+00
#rwgt            1           1   4.8241615174679064E-002           6      429430           0
</event>
<event>
      5   9999  3.79277E-02  1.91903E+01 -1.00000E+00  1.67864E-01
      21    -1     0     0   502   501  0.000000000E+00  0.000000000E+00  1.650743980E+03  1.650743980E+03  0.000000000E+00  0.00000E+00  9.000E+00
       1    -1     0     0   501     0  0.000000000E+00  0.000000000E+00 -8.295276672E+02  8.295276672E+02  0.000000000E+00  0.00000E+00  9.000E+00
      25     1     1     2     0     0 -5.007184288E+01  1.355450879E+02  1.049034222E+03  1.066291451E+03  1.250000000E+02  0.00000E+00  9.000E+00
      25     1     1     2     0     0  6.223616879E+01 -1.503875416E+02  5.752105520E+02  6.107224676E+02  1.250000000E+02  0.00000E+00  9.000E+00
       1     1     1     2   502     0 -1.216432591E+01  1.484245365E+01 -8.030284610E+02  8.032577285E+02  0.000000000E+00  0.00000E+00  9.000E+00
#rwgt            1           1   5.3152344051076848E-002           6      429543           0
</event>
<event>
      5   9999  3.79277E-02  3.22290E+01 -1.00000E+00  1.50909E-01
      21    -1     0     0   502   501  0.000000000E+00  0.000000000E+00  1.315007077E+02  1.315007077E+02  0.000000000E+00  0.00000E+00  9.000E+00
      21    -1     0     0   511   502  0.000000000E+00  0.000000000E+00 -5.197293456E+02  5.197293456E+02  0.000000000E+00  0.00000E+00  9.000E+00
      25     1     1     2     0     0 -1.232809752E+02  1.011108598E+02 -1.579010877E+01  2.032140063E+02  1.250000000E+02  0.00000E+00  9.000E+00
      25     1     1     2     0     0  9.932073077E+01 -7.955592564E+01 -1.818862135E+02  2.547574288E+02  1.250000000E+02  0.00000E+00  9.000E+00
      21     1     1     2   511   501  2.396024448E+01 -2.155493416E+01 -1.905523156E+02  1.932586181E+02  3.814697266E-06  0.00000E+00  9.000E+00
#rwgt            1           1   4.1253555396768143E-002           6      429789           0
</event>
<event>
      5   9999  3.79277E-02  8.93800E+00 -1.00000E+00  2.01568E-01
      21    -1     0     0   502   501  0.000000000E+00  0.000000000E+00  9.451433450E+01  9.451433450E+01  0.000000000E+00  0.00000E+00  9.000E+00
      21    -1     0     0   501   512  0.000000000E+00  0.000000000E+00 -1.421375213E+03  1.421375213E+03  0.000000000E+00  0.00000E+00  9.000E+00
      25     1     1     2     0     0 -5.029513768E+01 -1.264537983E+02 -1.522498029E+02  2.394267455E+02  1.250000000E+02  0.00000E+00  9.000E+00
      25     1     1     2     0     0  5.044859906E+01  1.175171194E+02 -1.061450358E+02  2.079593786E+02  1.250000000E+02  0.00000E+00  9.000E+00
      21     1     1     2   502   512 -1.534613720E-01  8.936678859E+00 -1.068466040E+03  1.068503423E+03  1.525878906E-05  0.00000E+00  9.000E+00
#rwgt            1           1   3.9882968290493710E-002           6      429958           0
</event>
<event>
      5   9999  3.79277E-02  7.84499E+01 -1.00000E+00  1.28762E-01
      21    -1     0     0   502   501  0.000000000E+00  0.000000000E+00  1.581547945E+02  1.581547945E+02  0.000000000E+00  0.00000E+00  9.000E+00
      21    -1     0     0   511   502  0.000000000E+00  0.000000000E+00 -7.068863593E+02  7.068863593E+02  0.000000000E+00  0.00000E+00  9.000E+00
      25     1     1     2     0     0 -4.461073491E+01  4.148917207E+01 -2.764779394E+02  3.094778183E+02  1.250000000E+02  0.00000E+00  9.000E+00
      25     1     1     2     0     0 -2.086684490E+01  1.720490097E+00  1.084826403E+02  1.668288601E+02  1.250000000E+02  0.00000E+00  9.000E+00
      21     1     1     2   511   501  6.547757981E+01 -4.320966217E+01 -3.807362657E+02  3.887344754E+02  5.394796609E-06  0.00000E+00  9.000E+00
#rwgt            2          11   1.0588277641741665E-003           6      430381           0
</event>
<event>
      5   9999  3.79277E-02  2.13708E+02 -1.00000E+00  1.10610E-01
      21    -1     0     0   502   501  0.000000000E+00  0.000000000E+00  5.502842780E+02  5.502842780E+02  0.000000000E+00  0.00000E+00  9.000E+00
      21    -1     0     0   512   502  0.000000000E+00  0.000000000E+00 -3.317138295E+02  3.317138295E+02  0.000000000E+00  0.00000E+00  9.000E+00
      25     1     1     2     0     0  1.241988453E+00 -1.845631741E+02  7.087947221E+01  2.339102549E+02  1.250000000E+02  0.00000E+00  9.000E+00
      25     1     1     2     0     0  1.334942589E+02  3.504459899E+02  1.756419867E+02  4.325600727E+02  1.250000000E+02  0.00000E+00  9.000E+00
      21     1     1     2   512   501 -1.347362473E+02 -1.658828159E+02 -2.795101037E+01  2.155277799E+02  3.769728732E-06  0.00000E+00  9.000E+00
#rwgt            1           1   3.6237720618537340E-002           6      430476           0
</event>
<event>
      5   9999  3.79277E-02  5.31141E+01 -1.00000E+00  1.37595E-01
      21    -1     0     0   502   511  0.000000000E+00  0.000000000E+00  4.311407587E+02  4.311407587E+02  0.000000000E+00  0.00000E+00  9.000E+00
      21    -1     0     0   501   502  0.000000000E+00  0.000000000E+00 -2.247833028E+02  2.247833028E+02  0.000000000E+00  0.00000E+00  9.000E+00
      25     1     1     2     0     0  1.905949988E+02 -7.135542528E+01  1.350935480E+02  2.743962773E+02  1.250000000E+02  0.00000E+00  9.000E+00
      25     1     1     2     0     0 -1.378793711E+02  7.784953939E+01 -8.317764956E+01  2.182081418E+02  1.250000000E+02  0.00000E+00  9.000E+00
      21     1     1     2   501   511 -5.271562772E+01 -6.494114110E+00  1.544415575E+02  1.633196424E+02  1.907348633E-06  0.00000E+00  9.000E+00
#rwgt            1           1   4.1640894311439205E-002           6      430506           0
</event>
<event>
      5   9999  3.79277E-02  5.05059E+01 -1.00000E+00  1.38827E-01
      21    -1     0     0   502   512  0.000000000E+00  0.000000000E+00  1.324995399E+03  1.324995399E+03  0.000000000E+00  0.00000E+00  9.000E+00
      21    -1     0     0   501   502  0.000000000E+00  0.000000000E+00 -4.653863654E+01  4.653863654E+01  0.000000000E+00  0.00000E+00  9.000E+00
      25     1     1     2     0     0 -8.557272002E+01 -1.190710889E+02  2.197705404E+02  2.922750503E+02  1.250000000E+02  0.00000E+00  9.000E+00
      25     1     1     2     0     0  4.685794480E+01  8.663632549E+01  7.912470744E+02  8.070925924E+02  1.250000000E+02  0.00000E+00  9.000E+00
      21     1     1     2   501   512  3.871477522E+01  3.243476340E+01  2.674391480E+02  2.721663931E+02  3.814697266E-06  0.00000E+00  9.000E+00
#rwgt            1           1   4.0929551456737719E-002           6      430681           0
</event>
<event>
      5   9999 -3.79277E-02  1.41115E+02 -1.00000E+00  1.17454E-01
      21    -1     0     0   502   501  0.000000000E+00  0.000000000E+00  5.865840547E+02  5.865840547E+02  0.000000000E+00  0.00000E+00  9.000E+00
      21    -1     0     0   511   502  0.000000000E+00  0.000000000E+00 -2.323430340E+02  2.323430340E+02  0.000000000E+00  0.00000E+00  9.000E+00
      25     1     1     2     0     0  2.661453784E+02 -4.896649859E+01  1.187822842E+02  3.208820834E+02  1.250000000E+02  0.00000E+00  9.000E+00
      25     1     1     2     0     0 -1.371134417E+02  1.060984765E+02  2.779930552E+02  3.506595519E+02  1.250000000E+02  0.00000E+00  9.000E+00
      21     1     1     2   511   501 -1.290319367E+02 -5.713197796E+01 -4.253431869E+01  1.473854534E+02  3.536319011E-06  0.00000E+00  9.000E+00
#rwgt            1           1  -5.4884604778929709E-002           6      430800           0
</event>
<event>
      5   9999  3.79277E-02  6.15062E+01 -1.00000E+00  1.34131E-01
      21    -1     0     0   502   501  0.000000000E+00  0.000000000E+00  9.609156302E+02  9.609156302E+02  0.000000000E+00  0.00000E+00  9.000E+00
      21    -1     0     0   501   512  0.000000000E+00  0.000000000E+00 -2.744073161E+02  2.744073161E+02  0.000000000E+00  0.00000E+00  9.000E+00
      25     1     1     2     0     0  1.459364799E+02  1.218950867E+02  8.824229101E+02  9.112908759E+02  1.250000000E+02  0.00000E+00  9.000E+00
      25     1     1     2     0     0 -8.695201683E+01 -1.044638570E+02 -1.853313462E+02  2.616219764E+02  1.250000000E+02  0.00000E+00  9.000E+00
      21     1     1     2   502   512 -5.898446307E+01 -1.743122975E+01 -1.058324980E+01  6.241009398E+01  9.610960183E-07  0.00000E+00  9.000E+00
#rwgt            1           1  0.14390334381178752                6      430875           0
</event>
<event>
      5   9999  3.79277E-02  2.55289E+01 -1.00000E+00  1.58073E-01
      21    -1     0     0   502   511  0.000000000E+00  0.000000000E+00  1.003756894E+03  1.003756894E+03  0.000000000E+00  0.00000E+00  9.000E+00
      21    -1     0     0   501   502  0.000000000E+00  0.000000000E+00 -8.817215908E+01  8.817215908E+01  0.000000000E+00  0.00000E+00  9.000E+00
      25     1     1     2     0     0  1.110901481E+02  4.449070600E+01  3.287827128E+02  3.715420786E+02  1.250000000E+02  0.00000E+00  9.000E+00
      25     1     1     2     0     0 -1.356276783E+02 -3.744543910E+01  6.672744389E+01  1.996862033E+02  1.250000000E+02  0.00000E+00  9.000E+00
      21     1     1     2   501   511  2.453753014E+01 -7.045266902E+00  5.200745787E+02  5.207007717E+02  7.629394531E-06  0.00000E+00  9.000E+00
#rwgt            1           1   4.1027578911334087E-002           6      430990           0
</event>
<event>
      5   9999  3.79277E-02  9.48705E+01 -1.00000E+00  1.24865E-01
      21    -1     0     0   502   501  0.000000000E+00  0.000000000E+00  8.035523337E+01  8.035523337E+01  0.000000000E+00  0.00000E+00  9.000E+00
      21    -1     0     0   501   512  0.000000000E+00  0.000000000E+00 -5.894623519E+02  5.894623519E+02  0.000000000E+00  0.00000E+00  9.000E+00
      25     1     1     2     0     0 -6.685856146E+01 -5.200994096E+01 -1.590950643E+02  2.193429750E+02  1.250000000E+02  0.00000E+00  9.000E+00
      25     1     1     2     0     0  1.224961763E+02 -2.483318452E+01 -1.614957018E+02  2.394323745E+02  1.250000000E+02  0.00000E+00  9.000E+00
      21     1     1     2   502   512 -5.563761489E+01  7.684312548E+01 -1.885163526E+02  2.110422358E+02  3.814697266E-06  0.00000E+00  9.000E+00
#rwgt            1           1   4.9564595407503687E-002           6      431141           0
</event>
<event>
      5   9999  3.79277E-02  2.40506E+01 -1.00000E+00  1.60021E-01
       2    -1     0     0   502     0  0.000000000E+00  0.000000000E+00  1.664519904E+03  1.664519904E+03  0.000000000E+00  0.00000E+00  9.000E+00
      21    -1     0     0   501   502  0.000000000E+00  0.000000000E+00 -4.870675652E+02  4.870675652E+02  0.000000000E+00  0.00000E+00  9.000E+00
      25     1     1     2     0     0  2.009029127E+02 -1.445592095E+02 -2.736668246E+02  3.895868020E+02  1.250000000E+02  0.00000E+00  9.000E+00
      25     1     1     2     0     0 -2.225574097E+02  1.550241174E+02 -1.180486076E+01  2.988789593E+02  1.250000000E+02  0.00000E+00  9.000E+00
       2     1     1     2   501     0  2.165449702E+01 -1.046490792E+01  1.462924024E+03  1.463121708E+03  0.000000000E+00  0.00000E+00  9.000E+00
#rwgt            1           1   4.3554660832499030E-002           6      431199           0
</event>
<event>
      5   9999  3.79277E-02  3.97469E+01 -1.00000E+00  1.45011E-01
      21    -1     0     0   502   501  0.000000000E+00  0.000000000E+00  3.320702798E+02  3.320702798E+02  0.000000000E+00  0.00000E+00  9.000E+00
      21    -1     0     0   501   511  0.000000000E+00  0.000000000E+00 -1.684346962E+02  1.684346962E+02  0.000000000E+00  0.00000E+00  9.000E+00
      25     1     1     2     0     0  1.468571789E+01  1.229884078E+02  2.359434369E+02  2.943401505E+02  1.250000000E+02  0.00000E+00  9.000E+00
      25     1     1     2     0     0 -2.580091771E+01 -8.482733158E+01 -5.516958447E+01  1.628804672E+02  1.250000000E+02  0.00000E+00  9.000E+00
      21     1     1     2   502   511  1.111519983E+01 -3.816107623E+01 -1.713826887E+01  4.328435821E+01  4.129530925E-07  0.00000E+00  9.000E+00
#rwgt            1           1   4.7116528246999634E-002           6      431412           0
</event>
<event>
      5   9999  3.79277E-02  1.11552E+02 -1.00000E+00  1.21730E-01
      21    -1     0     0   512   501  0.000000000E+00  0.000000000E+00  7.120819087E+01  7.120819087E+01  0.000000000E+00  0.00000E+00  9.000E+00
      21    -1     0     0   501   502  0.000000000E+00  0.000000000E+00 -9.914740400E+02  9.914740400E+02  0.000000000E+00  0.00000E+00  9.000E+00
      25     1     1     2     0     0  5.268147600E+01 -5.607905758E+01 -7.199453529E+02  7.347560886E+02  1.250000000E+02  0.00000E+00  9.000E+00
      25     1     1     2     0     0 -2.822915965E+01 -5.275963324E+01 -6.651295674E+01  1.537186969E+02  1.250000000E+02  0.00000E+00  9.000E+00
      21     1     1     2   512   502 -2.445231635E+01  1.088386908E+02 -1.338075395E+02  1.742074454E+02  3.814697266E-06  0.00000E+00  9.000E+00
#rwgt            1           1   4.3386989731069900E-002           6      431540           0
</event>
<event>
      5   9999  3.79277E-02  1.30494E+02 -1.00000E+00  1.18843E-01
      -3    -1     0     0     0   501  0.000000000E+00  0.000000000E+00  1.856857076E+02  1.856857076E+02  0.000000000E+00  0.00000E+00  9.000E+00
      21    -1     0     0   501   502  0.000000000E+00  0.000000000E+00 -7.975016823E+02  7.975016823E+02  0.000000000E+00  0.00000E+00  9.000E+00
      25     1     1     2     0     0 -2.187429455E+02 -1.732043080E+02 -4.276492614E+02  5.256967750E+02  1.250000000E+02  0.00000E+00  9.000E+00
      25     1     1     2     0     0  1.932423231E+02  4.522585370E+01 -2.206168681E+02  3.220012046E+02  1.250000000E+02  0.00000E+00  9.000E+00
      -3     1     1     2     0   502  2.550062234E+01  1.279784543E+02  3.645015488E+01  1.354894103E+02  3.303624740E-06  0.00000E+00  9.000E+00
#rwgt            2           3   3.1218144411289274E-005           6      431768           0
</event>
<event>
      5   9999  3.79277E-02  1.53755E+01 -1.00000E+00  1.76378E-01
      21    -1     0     0   511   501  0.000000000E+00  0.000000000E+00  2.257238658E+02  2.257238658E+02  0.000000000E+00  0.00000E+00  9.000E+00
      21    -1     0     0   501   502  0.000000000E+00  0.000000000E+00 -2.559825863E+02  2.559825863E+02  0.000000000E+00  0.00000E+00  9.000E+00
      25     1     1     2     0     0  3.546010277E+01  5.992698418E+01  1.644557386E+02  2.179893399E+02  1.250000000E+02  0.00000E+00  9.000E+00
      25     1     1     2     0     0 -4.806770518E+01 -6.872785275E+01 -1.972581146E+02  2.481325972E+02  1.250000000E+02  0.00000E+00  9.000E+00
      21     1     1     2   511   502  1.260760241E+01  8.800868568E+00  2.543655369E+00  1.558451503E+01  2.528810911E-07  0.00000E+00  9.000E+00
#rwgt            1           1   5.2127454485251558E-002           6      431817           0
</event>
<event>
      5   9999  3.79277E-02  2.78527E+01 -1.00000E+00  1.55314E-01
      21    -1     0     0   502   501  0.000000000E+00  0.000000000E+00  3.460586201E+02  3.460586201E+02  0.000000000E+00  0.00000E+00  9.000E+00
      21    -1     0     0   512   502  0.000000000E+00  0.000000000E+00 -1.375562622E+03  1.375562622E+03  0.000000000E+00  0.00000E+00  9.000E+00
      25     1     1     2     0     0  1.261088995E+02  1.254072023E+02  4.169198713E+01  2.213450761E+02  1.250000000E+02  0.00000E+00  9.000E+00
      25     1     1     2     0     0 -1.415022498E+02 -1.021948131E+02  1.606333733E+02  2.681319584E+02  1.250000000E+02  0.00000E+00  9.000E+00
      21     1     1     2   512   501  1.539335022E+01 -2.321238926E+01 -1.231829362E+03  1.232144207E+03  0.000000000E+00  0.00000E+00  9.000E+00
#rwgt            1           1   3.1138890910580305E-002           6      432023           0
</event>
<event>
      5   9999  3.79277E-02  1.01632E+02 -1.00000E+00  1.23513E-01
      21    -1     0     0   502   501  0.000000000E+00  0.000000000E+00  2.295806610E+02  2.295806610E+02  0.000000000E+00  0.00000E+00  9.000E+00
       1    -1     0     0   501     0  0.000000000E+00  0.000000000E+00 -2.686509922E+03  2.686509922E+03  0.000000000E+00  0.00000E+00  9.000E+00
      25     1     1     2     0     0 -4.644299439E+01 -3.941043053E+01  1.030096334E+02  1.730494679E+02  1.250000000E+02  0.00000E+00  9.000E+00
      25     1     1     2     0     0  1.474912150E+02  5.028886084E+01 -1.966448175E+01  2.007344511E+02  1.250000000E+02  0.00000E+00  9.000E+00
       1     1     1     2   502     0 -1.010482206E+02 -1.087843031E+01 -2.540274412E+03  2.542306664E+03  4.315837288E-05  0.00000E+00  9.000E+00
#rwgt            1           1   3.5246298817108265E-002           6      432187           0
</event>
<event>
      5   9999  3.79277E-02  7.76642E+01 -1.00000E+00  1.28975E-01
      21    -1     0     0   502   501  0.000000000E+00  0.000000000E+00  9.758480827E+01  9.758480827E+01  0.000000000E+00  0.00000E+00  9.000E+00
      21    -1     0     0   501   511  0.000000000E+00  0.000000000E+00 -5.081488637E+02  5.081488637E+02  0.000000000E+00  0.00000E+00  9.000E+00
      25     1     1     2     0     0 -6.528360721E+01  4.672575708E+01 -3.384789557E+00  1.485991337E+02  1.250000000E+02  0.00000E+00  9.000E+00
      25     1     1     2     0     0  2.058076121E+01  1.678319243E+01 -2.853221971E+02  3.126323711E+02  1.250000000E+02  0.00000E+00  9.000E+00
      21     1     1     2   502   511  4.470284600E+01 -6.350894951E+01 -1.218570688E+02  1.445021672E+02  2.697398305E-06  0.00000E+00  9.000E+00
#rwgt            1           1   2.8838557271784315E-002           6      432242           0
</event>
<event>
      5   9999  3.79277E-02  1.33975E+02 -1.00000E+00  1.18372E-01
       1    -1     0     0   502     0  0.000000000E+00  0.000000000E+00  3.111604081E+03  3.111604081E+03  0.000000000E+00  0.00000E+00  9.000E+00
      21    -1     0     0   501   502  0.000000000E+00  0.000000000E+00 -1.801375271E+02  1.801375271E+02  0.000000000E+00  0.00000E+00  9.000E+00
      25     1     1     2     0     0 -4.822025561E+01 -1.282116093E+02  5.436963284E+00  1.855208085E+02  1.250000000E+02  0.00000E+00  9.000E+00
      25     1     1     2     0     0  1.521031751E+02  2.128151101E+02  1.490024444E+02  3.259637639E+02  1.250000000E+02  0.00000E+00  9.000E+00
       1     1     1     2   501     0 -1.038829195E+02 -8.460350084E+01  2.777027147E+03  2.780257036E+03  3.051757812E-05  0.00000E+00  9.000E+00
#rwgt            2          17   5.0062438429753929E-004           6      432338           0
</event>
<event>
      5   9999  3.79277E-02  3.12606E+01 -1.00000E+00  1.51808E-01
      21    -1     0     0   502   501  0.000000000E+00  0.000000000E+00  2.613723163E+02  2.613723163E+02  0.000000000E+00  0.00000E+00  9.000E+00
      21    -1     0     0   511   502  0.000000000E+00  0.000000000E+00 -4.514881340E+02  4.514881340E+02  0.000000000E+00  0.00000E+00  9.000E+00
      25     1     1     2     0     0 -1.010204295E+02 -2.095975419E+02 -2.092809297E+02  3.369862969E+02  1.250000000E+02  0.00000E+00  9.000E+00
      25     1     1     2     0     0  1.317254113E+02  2.037297303E+02  9.885935541E+01  2.902680815E+02  1.250000000E+02  0.00000E+00  9.000E+00
      21     1     1     2   511   501 -3.070498174E+01  5.867811611E+00 -7.969424340E+01  8.560607191E+01  1.348699152E-06  0.00000E+00  9.000E+00
#rwgt            1           1   2.6061771468608008E-002           6      432372           0
</event>
<event>
      5   9999  3.79277E-02  5.37007E+01 -1.00000E+00  1.37329E-01
      21    -1     0     0   502   512  0.000000000E+00  0.000000000E+00  3.690847601E+02  3.690847601E+02  0.000000000E+00  0.00000E+00  9.000E+00
      21    -1     0     0   501   502  0.000000000E+00  0.000000000E+00 -4.917997755E+02  4.917997755E+02  0.000000000E+00  0.00000E+00  9.000E+00
      25     1     1     2     0     0  1.633804283E+02 -1.655299881E+02 -3.071599117E+02  4.050500619E+02  1.250000000E+02  0.00000E+00  9.000E+00
      25     1     1     2     0     0 -1.902855325E+02  2.120044512E+02  5.530154726E+01  3.159710941E+02  1.250000000E+02  0.00000E+00  9.000E+00
      21     1     1     2   501   512  2.690510422E+01 -4.647446308E+01  1.291433490E+02  1.398633795E+02  1.907348633E-06  0.00000E+00  9.000E+00
#rwgt            1           1   3.8244880398520018E-002           6      432518           0
</event>
<event>
      5   9999  3.79277E-02  4.44777E+01 -1.00000E+00  1.42039E-01
      21    -1     0     0   502   501  0.000000000E+00  0.000000000E+00  1.063213517E+03  1.063213517E+03  0.000000000E+00  0.00000E+00  9.000E+00
      21    -1     0     0   501   511  0.000000000E+00  0.000000000E+00 -7.290775457E+01  7.290775457E+01  0.000000000E+00  0.00000E+00  9.000E+00
      25     1     1     2     0     0  1.561597117E+02 -7.625734895E+01  3.918121573E+02  4.464782251E+02  1.250000000E+02  0.00000E+00  9.000E+00
      25     1     1     2     0     0 -1.994325661E+02  8.653963067E+01  5.942098550E+02  6.449595397E+02  1.250000000E+02  0.00000E+00  9.000E+00
      21     1     1     2   502   511  4.327285431E+01 -1.028228172E+01  4.283749778E+00  4.468350646E+01  8.492354660E-07  0.00000E+00  9.000E+00
#rwgt            1           1   2.8574605346040456E-002           6      432600           0
</event>
<event>
      5   9999  3.79277E-02  2.58916E+01 -1.00000E+00  1.57619E-01
      21    -1     0     0   502   501  0.000000000E+00  0.000000000E+00  1.373217443E+03  1.373217443E+03  0.000000000E+00  0.00000E+00  9.000E+00
      21    -1     0     0   501   512  0.000000000E+00  0.000000000E+00 -3.197118877E+01  3.197118877E+01  0.000000000E+00  0.00000E+00  9.000E+00
      25     1     1     2     0     0  1.038538872E+02 -7.535297023E+00  4.143084877E+02  4.451055308E+02  1.250000000E+02  0.00000E+00  9.000E+00
      25     1     1     2     0     0 -1.290687536E+02  1.341605667E+01  9.131368493E+02  9.307430576E+02  1.250000000E+02  0.00000E+00  9.000E+00
      21     1     1     2   502   512  2.521486642E+01 -5.880759644E+00  1.380091707E+01  2.934004319E+01  1.092571186E-06  0.00000E+00  9.000E+00
#rwgt            1           1   3.7480655293628949E-002           6      432732           0
</event>
<event>
      5   9999  3.79277E-02  2.22825E+01 -1.00000E+00  1.62588E-01
      21    -1     0     0   511   501  0.000000000E+00  0.000000000E+00  4.895632522E+02  4.895632522E+02  0.000000000E+00  0.00000E+00  9.000E+00
      21    -1     0     0   501   502  0.000000000E+00  0.000000000E+00 -8.440754517E+01  8.440754517E+01  0.000000000E+00  0.00000E+00  9.000E+00
      25     1     1     2     0     0 -7.855664675E+01 -1.040782377E+00  3.183575713E+02  3.509255949E+02  1.250000000E+02  0.00000E+00  9.000E+00
      25     1     1     2     0     0  8.483539985E+01 -2.033878550E+01  2.136565550E+01  1.539227160E+02  1.250000000E+02  0.00000E+00  9.000E+00
      21     1     1     2   511   502 -6.278753094E+00  2.137956788E+01  6.543248026E+01  6.912248647E+01  0.000000000E+00  0.00000E+00  9.000E+00
#rwgt            1           1   3.3498681889617063E-002           6      432905           0
</event>
<event>
      5   9999  3.79277E-02  3.84514E+01 -1.00000E+00  1.45912E-01
      21    -1     0     0   502   501  0.000000000E+00  0.000000000E+00  3.099000731E+02  3.099000731E+02  0.000000000E+00  0.00000E+00  9.000E+00
      21    -1     0     0   512   502  0.000000000E+00  0.000000000E+00 -2.291703902E+02  2.291703902E+02  0.000000000E+00  0.00000E+00  9.000E+00
      25     1     1     2     0     0 -9.576043008E+01  6.872215239E+01  2.254468590E+02  2.834503139E+02  1.250000000E+02  0.00000E+00  9.000E+00
      25     1     1     2     0     0  6.019624217E+01 -5.410376425E+01 -5.629795930E+01  1.592019632E+02  1.250000000E+02  0.00000E+00  9.000E+00
      21     1     1     2   512   501  3.556418791E+01 -1.461838814E+01 -8.841921679E+01  9.641818621E+01  1.348699152E-06  0.00000E+00  9.000E+00
#rwgt            1           1   3.5505166853009071E-002           6      433105           0
</event>
<event>
      5   9999  3.79277E-02  4.44476E+01 -1.00000E+00  1.42057E-01
      21    -1     0     0   502   511  0.000000000E+00  0.000000000E+00  7.742317095E+01  7.742317095E+01  0.000000000E+00  0.00000E+00  9.000E+00
      21    -1     0     0   501   502  0.000000000E+00  0.000000000E+00 -9.341156432E+02  9.341156432E+02  0.000000000E+00  0.00000E+00  9.000E+00
      25     1     1     2     0     0 -7.672178748E+01  1.362828975E+02 -1.053962494E+02  2.262578843E+02  1.250000000E+02  0.00000E+00  9.000E+00
      25     1     1     2     0     0  5.884639451E+01 -9.558822846E+01 -6.861367519E+02  7.064054430E+02  1.250000000E+02  0.00000E+00  9.000E+00
      21     1     1     2   501   511  1.787539297E+01 -4.069466908E+01 -6.515947092E+01  7.887548679E+01  9.536743164E-07  0.00000E+00  9.000E+00
#rwgt            1           1   3.2263762466531426E-002           6      433219           0
</event>
<event>
      5   9999  3.79277E-02  5.58972E+01 -1.00000E+00  1.36368E-01
      21    -1     0     0   502   501  0.000000000E+00  0.000000000E+00  2.587724864E+01  2.587724864E+01  0.000000000E+00  0.00000E+00  9.000E+00
      21    -1     0     0   512   502  0.000000000E+00  0.000000000E+00 -2.457923080E+03  2.457923080E+03  0.000000000E+00  0.00000E+00  9.000E+00
      25     1     1     2     0     0 -5.793321760E+01 -6.392932523E+01 -1.896391108E+03  1.902463522E+03  1.250000000E+02  0.00000E+00  9.000E+00
      25     1     1     2     0     0  5.894412534E+00  4.352194335E+01 -1.926770179E+02  2.338339943E+02  1.250000000E+02  0.00000E+00  9.000E+00
      21     1     1     2   512   501  5.203880506E+01  2.040738188E+01 -3.429777053E+02  3.475028126E+02  5.394796609E-06  0.00000E+00  9.000E+00
#rwgt            1           1  0.11434131039462203                6      433437           0
</event>
<event>
      5   9999  3.79277E-02  3.16986E+01 -1.00000E+00  1.51397E-01
      21    -1     0     0   502   501  0.000000000E+00  0.000000000E+00  3.217445970E+01  3.217445970E+01  0.000000000E+00  0.00000E+00  9.000E+00
      21    -1     0     0   511   502  0.000000000E+00  0.000000000E+00 -1.448767070E+03  1.448767070E+03  0.000000000E+00  0.00000E+00  9.000E+00
      25     1     1     2     0     0 -6.701022753E+01  7.601231753E+01 -1.071732773E+03  1.083745532E+03  1.250000000E+02  0.00000E+00  9.000E+00
      25     1     1     2     0     0  8.101342884E+01 -4.757448770E+01 -2.305788116E+02  2.786002439E+02  1.250000000E+02  0.00000E+00  9.000E+00
      21     1     1     2   511   501 -1.400320132E+01 -2.843782984E+01 -1.142810255E+02  1.185957529E+02  1.907348633E-06  0.00000E+00  9.000E+00
#rwgt            1           1   4.4647589234987364E-002           6      433542           0
</event>
<event>
      5   9999  3.79277E-02  6.15818E+01 -1.00000E+00  1.34102E-01
      21    -1     0     0   502   501  0.000000000E+00  0.000000000E+00  2.934483817E+02  2.934483817E+02  0.000000000E+00  0.00000E+00  9.000E+00
       2    -1     0     0   501     0  0.000000000E+00  0.000000000E+00 -1.954487000E+02  1.954487000E+02  0.000000000E+00  0.00000E+00  9.000E+00
      25     1     1     2     0     0 -7.680396242E+01 -5.661534225E+01 -9.636072695E+00  1.575499905E+02  1.250000000E+02  0.00000E+00  9.000E+00
      25     1     1     2     0     0  3.804877611E+01  1.044729216E+02  1.736106756E+02  2.410974230E+02  1.250000000E+02  0.00000E+00  9.000E+00
       2     1     1     2   502     0  3.875518631E+01 -4.785757935E+01 -6.597492122E+01  9.024966813E+01  1.348699152E-06  0.00000E+00  9.000E+00
#rwgt            1           1   3.5345726807691664E-002           6      433765           0
</event>
<event>
      5   9999  3.79277E-02  1.45965E+01 -1.00000E+00  1.78507E-01
      21    -1     0     0   511   501  0.000000000E+00  0.000000000E+00  7.788316055E+01  7.788316055E+01  0.000000000E+00  0.00000E+00  9.000E+00
      21    -1     0     0   501   502  0.000000000E+00  0.000000000E+00 -8.424828282E+02  8.424828282E+02  0.000000000E+00  0.00000E+00  9.000E+00
      25     1     1     2     0     0  6.765567173E+01  1.238597293E+02 -6.778666296E+02  7.035955443E+02  1.250000000E+02  0.00000E+00  9.000E+00
      25     1     1     2     0     0 -5.306283640E+01 -1.241863702E+02 -7.910692930E+01  2.003018358E+02  1.250000000E+02  0.00000E+00  9.000E+00
      21     1     1     2   511   502 -1.459283533E+01  3.266409588E-01 -7.626108781E+00  1.646860870E+01  2.920019320E-07  0.00000E+00  9.000E+00
#rwgt            1           1   4.0109623713981149E-002           6      433816           0
</event>
<event>
      5   9999  3.79277E-02  1.68153E+02 -1.00000E+00  1.14461E-01
      21    -1     0     0   502   512  0.000000000E+00  0.000000000E+00  3.789587302E+02  3.789587302E+02  0.000000000E+00  0.00000E+00  9.000E+00
      21    -1     0     0   501   502  0.000000000E+00  0.000000000E+00 -2.433521851E+02  2.433521851E+02  0.000000000E+00  0.00000E+00  9.000E+00
      25     1     1     2     0     0  3.889558023E+01 -2.568445549E+00  1.337419458E+02  1.871666935E+02  1.250000000E+02  0.00000E+00  9.000E+00
      25     1     1     2     0     0 -6.204659275E+01 -1.639834043E+02 -1.011970293E+02  2.379205230E+02  1.250000000E+02  0.00000E+00  9.000E+00
      21     1     1     2   501   512  2.315101252E+01  1.665518498E+02  1.030616286E+02  1.972236988E+02  2.336015456E-06  0.00000E+00  9.000E+00
#rwgt            1           1   3.9814504231073314E-002           6      434069           0
</event>
<event>
      5   9999  3.79277E-02  1.87204E+01 -1.00000E+00  1.68774E-01
      21    -1     0     0   502   501  0.000000000E+00  0.000000000E+00  4.822791224E+01  4.822791224E+01  0.000000000E+00  0.00000E+00  9.000E+00
      21    -1     0     0   511   502  0.000000000E+00  0.000000000E+00 -9.828267583E+02  9.828267583E+02  0.000000000E+00  0.00000E+00  9.000E+00
      25     1     1     2     0     0 -1.203906736E+02  3.453972969E+01 -7.097734480E+02  7.314986362E+02  1.250000000E+02  0.00000E+00  9.000E+00
      25     1     1     2     0     0  1.016724440E+02 -3.425673593E+01 -1.512433909E+02  2.236299915E+02  1.250000000E+02  0.00000E+00  9.000E+00
      21     1     1     2   511   501  1.871822960E+01 -2.829937573E-01 -7.358200716E+01  7.592604285E+01  9.536743164E-07  0.00000E+00  9.000E+00
#rwgt            1           1   5.1827432675164008E-002           6      434152           0
</event>
<event>
      5   9999  3.79277E-02  2.15507E+01 -1.00000E+00  1.63737E-01
      21    -1     0     0   502   512  0.000000000E+00  0.000000000E+00  3.907694093E+02  3.907694093E+02  0.000000000E+00  0.00000E+00  9.000E+00
      21    -1     0     0   501   502  0.000000000E+00  0.000000000E+00 -1.883565282E+02  1.883565282E+02  0.000000000E+00  0.00000E+00  9.000E+00
      25     1     1     2     0     0 -6.940665542E+01 -1.202822852E+02  1.750476020E+02  2.560308085E+02  1.250000000E+02  0.00000E+00  9.000E+00
      25     1     1     2     0     0  8.746559712E+01  1.085218553E+02 -8.719081041E+01  2.065295649E+02  1.250000000E+02  0.00000E+00  9.000E+00
      21     1     1     2   501   512 -1.805894170E+01  1.176042997E+01  1.145560895E+02  1.165655641E+02  1.348699152E-06  0.00000E+00  9.000E+00
#rwgt            1           1   4.3337887284563531E-002           6      434419           0
</event>
<event>
      5   9999  3.79277E-02  2.02948E+01 -1.00000E+00  1.65846E-01
      21    -1     0     0   502   511  0.000000000E+00  0.000000000E+00  6.788358928E+01  6.788358928E+01  0.000000000E+00  0.00000E+00  9.000E+00
      21    -1     0     0   501   502  0.000000000E+00  0.000000000E+00 -8.926148614E+02  8.926148614E+02  0.000000000E+00  0.00000E+00  9.000E+00
      25     1     1     2     0     0  8.696554405E+00 -1.856896138E+02 -5.738033188E+02  6.159801226E+02  1.250000000E+02  0.00000E+00  9.000E+00
      25     1     1     2     0     0 -1.330716545E+01  1.659254416E+02 -2.483598732E+02  3.240616599E+02  1.250000000E+02  0.00000E+00  9.000E+00
      21     1     1     2   501   511  4.610611044E+00  1.976417217E+01 -2.568080074E+00  2.045666814E+01  4.339283639E-07  0.00000E+00  9.000E+00
#rwgt            1           1  0.17478741511262605                6      434603           0
</event>
<event>
      5   9999  3.79277E-02  2.75178E+01 -1.00000E+00  1.55691E-01
       2    -1     0     0   502     0  0.000000000E+00  0.000000000E+00  3.274287554E+03  3.274287554E+03  0.000000000E+00  0.00000E+00  9.000E+00
      21    -1     0     0   501   502  0.000000000E+00  0.000000000E+00 -7.184483494E+01  7.184483494E+01  0.000000000E+00  0.00000E+00  9.000E+00
      25     1     1     2     0     0 -1.423984273E+02 -1.803024508E+02  2.696918073E+02  3.756926361E+02  1.250000000E+02  0.00000E+00  9.000E+00
      25     1     1     2     0     0  1.161675348E+02  1.719856523E+02  7.635972498E+02  8.011115531E+02  1.250000000E+02  0.00000E+00  9.000E+00
       2     1     1     2   501     0  2.623089246E+01  8.316798488E+00  2.169153662E+03  2.169328200E+03  3.051757812E-05  0.00000E+00  9.000E+00
#rwgt            1           1   2.8237670000492449E-002           6      434809           0
</event>
<event>
      5   9999  3.79277E-02  6.47562E+01 -1.00000E+00  1.32957E-01
      21    -1     0     0   511   501  0.000000000E+00  0.000000000E+00  5.577635237E+02  5.577635237E+02  0.000000000E+00  0.00000E+00  9.000E+00
      21    -1     0     0   501   502  0.000000000E+00  0.000000000E+00 -4.896980533E+02  4.896980533E+02  0.000000000E+00  0.00000E+00  9.000E+00
      25     1     1     2     0     0  4.015685182E+02  7.637963721E+01 -7.232288614E+01  4.335282271E+02  1.250000000E+02  0.00000E+00  9.000E+00
      25     1     1     2     0     0 -4.165916401E+02 -1.393690716E+02 -2.854212267E+00  4.567334882E+02  1.250000000E+02  0.00000E+00  9.000E+00
      21     1     1     2   511   502  1.502312188E+01  6.298943444E+01  1.432425688E+02  1.571998618E+02  1.907348633E-06  0.00000E+00  9.000E+00
#rwgt            1           1   3.1494523007757118E-002           6      435042           0
</event>
<event>
      5   9999  3.79277E-02  1.43024E+02 -1.00000E+00  1.17219E-01
      -2    -1     0     0     0   501  0.000000000E+00  0.000000000E+00  7.329829297E+02  7.329829297E+02  0.000000000E+00  0.00000E+00  9.000E+00
      21    -1     0     0   501   502  0.000000000E+00  0.000000000E+00 -2.154954982E+02  2.154954982E+02  0.000000000E+00  0.00000E+00  9.000E+00
      25     1     1     2     0     0 -6.756824774E+01  2.064060590E+02 -7.331899131E+01  2.610930941E+02  1.250000000E+02  0.00000E+00  9.000E+00
      25     1     1     2     0     0  1.315432174E+00 -7.965318311E+01  1.068158496E+02  1.827046405E+02  1.250000000E+02  0.00000E+00  9.000E+00
      -2     1     1     2     0   502  6.625281556E+01 -1.267528759E+02  4.839905733E+02  5.046806932E+02  7.629394531E-06  0.00000E+00  9.000E+00
#rwgt            1           1   4.9335585547327282E-002           6      435169           0
</event>
<event>
      5   9999  3.79277E-02  1.04704E+02 -1.00000E+00  1.22937E-01
      21    -1     0     0   511   501  0.000000000E+00  0.000000000E+00  3.961566648E+02  3.961566648E+02  0.000000000E+00  0.00000E+00  9.000E+00
      21    -1     0     0   501   502  0.000000000E+00  0.000000000E+00 -7.904248789E+02  7.904248789E+02  0.000000000E+00  0.00000E+00  9.000E+00
      25     1     1     2     0     0  1.803776347E+02 -1.819758589E+02 -1.543354354E+02  3.241847173E+02  1.250000000E+02  0.00000E+00  9.000E+00
      25     1     1     2     0     0 -1.132319287E+02  2.623154136E+02 -4.959187661E+02  5.858252884E+02  1.250000000E+02  0.00000E+00  9.000E+00
      21     1     1     2   511   502 -6.714570603E+01 -8.033955466E+01  2.559859874E+02  2.765715380E+02  2.697398305E-06  0.00000E+00  9.000E+00
#rwgt            1           1   3.7128348403698594E-002           6      435248           0
</event>
<event>
      5   9999  3.79277E-02  3.92287E+01 -1.00000E+00  1.45367E-01
      21    -1     0     0   512   501  0.000000000E+00  0.000000000E+00  1.310455864E+03  1.310455864E+03  0.000000000E+00  0.00000E+00  9.000E+00
      21    -1     0     0   501   502  0.000000000E+00  0.000000000E+00 -3.540008420E+01  3.540008420E+01  0.000000000E+00  0.00000E+00  9.000E+00
      25     1     1     2     0     0  5.155217331E+01 -8.635242304E+01  9.786218708E+02  9.916855013E+02  1.250000000E+02  0.00000E+00  9.000E+00
      25     1     1     2     0     0 -4.214583911E+01  4.826814332E+01  1.634222305E+02  2.154945727E+02  1.250000000E+02  0.00000E+00  9.000E+00
      21     1     1     2   512   502 -9.406334192E+00  3.808427972E+01  1.330116788E+02  1.386758745E+02  2.697398305E-06  0.00000E+00  9.000E+00
#rwgt            1           1   4.1945428377178080E-002           6      435330           0
</event>
<event>
      5   9999  3.79277E-02  1.24386E+01 -1.00000E+00  1.85404E-01
      21    -1     0     0   502   501  0.000000000E+00  0.000000000E+00  2.483831287E+02  2.483831287E+02  0.000000000E+00  0.00000E+00  9.000E+00
      21    -1     0     0   501   511  0.000000000E+00  0.000000000E+00 -6.755768260E+02  6.755768260E+02  0.000000000E+00  0.00000E+00  9.000E+00
      25     1     1     2     0     0 -1.239487514E+02 -1.709624632E+02 -4.093276107E+02  4.772478913E+02  1.250000000E+02  0.00000E+00  9.000E+00
      25     1     1     2     0     0  1.230121514E+02  1.833657585E+02  1.390286716E+02  2.893250116E+02  1.250000000E+02  0.00000E+00  9.000E+00
      21     1     1     2   502   511  9.365999726E-01 -1.240329526E+01 -1.568947582E+02  1.573870519E+02  0.000000000E+00  0.00000E+00  9.000E+00
#rwgt            1           1   4.8356455069417652E-002           6      435520           0
</event>
<event>
      5   9999  3.79277E-02  2.60929E+01 -1.00000E+00  1.57371E-01
      21    -1     0     0   502   501  0.000000000E+00  0.000000000E+00  2.862954776E+02  2.862954776E+02  0.000000000E+00  0.00000E+00  9.000E+00
      21    -1     0     0   501   512  0.000000000E+00  0.000000000E+00 -3.076693374E+02  3.076693374E+02  0.000000000E+00  0.00000E+00  9.000E+00
      25     1     1     2     0     0 -3.068390967E+00  1.963987242E+02  1.390493920E+02  2.711855588E+02  1.250000000E+02  0.00000E+00  9.000E+00
      25     1     1     2     0     0  1.644866827E+01 -2.187998314E+02 -1.349871190E+02  2.863397409E+02  1.250000000E+02  0.00000E+00  9.000E+00
      21     1     1     2   502   512 -1.338027730E+01  2.240110716E+01 -2.543613278E+01  3.643951527E+01  5.840038640E-07  0.00000E+00  9.000E+00
#rwgt            1           1   4.7552555209659862E-002           6      435818           0
</event>
<event>
      5   9999  3.79277E-02  9.86231E+01 -1.00000E+00  1.24099E-01
      21    -1     0     0   502   501  0.000000000E+00  0.000000000E+00  1.994080163E+02  1.994080163E+02  0.000000000E+00  0.00000E+00  9.000E+00
      21    -1     0     0   501   511  0.000000000E+00  0.000000000E+00 -9.487724858E+02  9.487724858E+02  0.000000000E+00  0.00000E+00  9.000E+00
      25     1     1     2     0     0  7.149340096E+01  1.350662869E+02 -1.145936858E+02  2.282781660E+02  1.250000000E+02  0.00000E+00  9.000E+00
      25     1     1     2     0     0 -1.612062852E+02 -1.760311080E+02  8.047094971E+00  2.695629298E+02  1.250000000E+02  0.00000E+00  9.000E+00
      21     1     1     2   502   511  8.971288427E+01  4.096482111E+01 -6.428178786E+02  6.503394062E+02  0.000000000E+00  0.00000E+00  9.000E+00
#rwgt            1           1   3.3928672841153702E-002           6      436098           0
</event>
<event>
      5   9999  3.79277E-02  1.66044E+02 -1.00000E+00  1.14671E-01
      21    -1     0     0   502   512  0.000000000E+00  0.000000000E+00  1.822590170E+03  1.822590170E+03  0.000000000E+00  0.00000E+00  9.000E+00
      21    -1     0     0   501   502  0.000000000E+00  0.000000000E+00 -1.703243380E+02  1.703243380E+02  0.000000000E+00  0.00000E+00  9.000E+00
      25     1     1     2     0     0  1.532536628E+02  1.141896319E+02 -3.930814436E+01  2.317241624E+02  1.250000000E+02  0.00000E+00  9.000E+00
      25     1     1     2     0     0 -1.491437148E+02  5.180314751E+01  3.099420495E+02  3.696166769E+02  1.250000000E+02  0.00000E+00  9.000E+00
      21     1     1     2   501   512 -4.109948045E+00 -1.659927794E+02  1.381631927E+03  1.391573669E+03  0.000000000E+00  0.00000E+00  9.000E+00
#rwgt            1           1   1.9259668690724700E-002           6      436144           0
</event>
<event>
      5   9999  3.79277E-02  6.04348E+00 -1.00000E+00  2.24986E-01
      21    -1     0     0   511   501  0.000000000E+00  0.000000000E+00  2.727058838E+02  2.727058838E+02  0.000000000E+00  0.00000E+00  9.000E+00
      21    -1     0     0   501   502  0.000000000E+00  0.000000000E+00 -1.713678326E+02  1.713678326E+02  0.000000000E+00  0.00000E+00  9.000E+00
      25     1     1     2     0     0 -1.043633945E+02 -8.043852300E+01  1.454593511E+02  2.326918497E+02  1.250000000E+02  0.00000E+00  9.000E+00
      25     1     1     2     0     0  1.045538980E+02  7.439805019E+01 -6.428927365E+01  1.903278702E+02  1.250000000E+02  0.00000E+00  9.000E+00
      21     1     1     2   511   502 -1.905034426E-01  6.040472805E+00  2.016797381E+01  2.105399656E+01  2.384185791E-07  0.00000E+00  9.000E+00
#rwgt            1           1   4.7259309334398647E-002           6      436200           0
</event>
<event>
      5   9999  3.79277E-02  1.37542E+02 -1.00000E+00  1.17906E-01
       2    -1     0     0   502     0  0.000000000E+00  0.000000000E+00  5.020443104E+02  5.020443104E+02  0.000000000E+00  0.00000E+00  9.000E+00
      21    -1     0     0   501   502  0.000000000E+00  0.000000000E+00 -4.086447469E+02  4.086447469E+02  0.000000000E+00  0.00000E+00  9.000E+00
      25     1     1     2     0     0  8.397379385E+01 -2.216890833E+02 -1.821180575E+02  3.240210403E+02  1.250000000E+02  0.00000E+00  9.000E+00
      25     1     1     2     0     0 -1.377138384E+02  9.507996021E+01 -6.554081373E+01  2.189198446E+02  1.250000000E+02  0.00000E+00  9.000E+00
       2     1     1     2   501     0  5.374004453E+01  1.266091230E+02  3.410584347E+02  3.677481724E+02  6.607249480E-06  0.00000E+00  9.000E+00
#rwgt            1           1   3.0190395345345896E-002           6      436507           0
</event>
<event>
      5   9999  3.79277E-02  7.90716E+01 -1.00000E+00  1.28595E-01
      21    -1     0     0   511   501  0.000000000E+00  0.000000000E+00  3.506681515E+02  3.506681515E+02  0.000000000E+00  0.00000E+00  9.000E+00
      21    -1     0     0   501   502  0.000000000E+00  0.000000000E+00 -2.040712608E+02  2.040712608E+02  0.000000000E+00  0.00000E+00  9.000E+00
      25     1     1     2     0     0  1.984532697E+02 -4.822820557E+01 -1.283609610E+01  2.397903781E+02  1.250000000E+02  0.00000E+00  9.000E+00
      25     1     1     2     0     0 -1.453996257E+02 -1.040308130E+01  1.216230998E+02  2.273025597E+02  1.250000000E+02  0.00000E+00  9.000E+00
      21     1     1     2   511   502 -5.305364397E+01  5.863128687E+01  3.780988700E+01  8.764647451E+01  1.719260824E-06  0.00000E+00  9.000E+00
#rwgt            2          11   2.9504307030929111E-003           6      436620           0
</event>
<event>
      5   9999  3.79277E-02  4.47226E+01 -1.00000E+00  1.41897E-01
      21    -1     0     0   502   501  0.000000000E+00  0.000000000E+00  2.442974182E+02  2.442974182E+02  0.000000000E+00  0.00000E+00  9.000E+00
      21    -1     0     0   512   502  0.000000000E+00  0.000000000E+00 -2.196234982E+02  2.196234982E+02  0.000000000E+00  0.00000E+00  9.000E+00
      25     1     1     2     0     0  2.579293125E+01 -1.141381371E+02  1.321292139E+02  2.162774116E+02  1.250000000E+02  0.00000E+00  9.000E+00
      25     1     1     2     0     0 -1.484413937E+01  7.077647897E+01 -1.531267800E+01  1.452209921E+02  1.250000000E+02  0.00000E+00  9.000E+00
      21     1     1     2   512   501 -1.094879188E+01  4.336165808E+01 -9.214261589E+01  1.024225127E+02  1.348699152E-06  0.00000E+00  9.000E+00
#rwgt            1           1   3.4190581406638720E-002           6      436670           0
</event>
<event>
      5   9999  3.79277E-02  6.07180E+01 -1.00000E+00  1.34428E-01
      21    -1     0     0   502   501  0.000000000E+00  0.000000000E+00  1.033309565E+03  1.033309565E+03  0.000000000E+00  0.00000E+00  9.000E+00
       2    -1     0     0   501     0  0.000000000E+00  0.000000000E+00 -1.988050329E+03  1.988050329E+03  0.000000000E+00  0.00000E+00  9.000E+00
      25     1     1     2     0     0  6.265263747E+01 -9.240629343E+01  1.827036504E+01  1.685914656E+02  1.250000000E+02  0.00000E+00  9.000E+00
      25     1     1     2     0     0 -6.502859249E+01  3.173475834E+01  9.338437677E+02  9.449470859E+02  1.250000000E+02  0.00000E+00  9.000E+00
       2     1     1     2   502     0  2.375955022E+00  6.067153510E+01 -1.906854896E+03  1.907821343E+03  0.000000000E+00  0.00000E+00  9.000E+00
#rwgt            1           1   3.5942939486016054E-002           6      436795           0
</event>
<event>
      5   9999  5.46759E-02  9.23217E+00 -1.00000E+00  1.99855E-01
      21    -1     0     0   502   501  0.000000000E+00  0.000000000E+00  3.624652858E+02  3.624652858E+02  0.000000000E+00  0.00000E+00  9.000E+00
      21    -1     0     0   501   511  0.000000000E+00  0.000000000E+00 -3.956644617E+02  3.956644617E+02  0.000000000E+00  0.00000E+00  9.000E+00
      25     1     1     2     0     0  1.018446945E+02 -2.832810904E+02  1.501041690E+02  3.588548168E+02  1.250000000E+02  0.00000E+00  9.000E+00
      25     1     1     2     0     0 -1.059576205E+02  2.915464828E+02 -1.533356186E+02  3.679173561E+02  1.250000000E+02  0.00000E+00  9.000E+00
      21     1     1     2   502   511  4.112926035E+00 -8.265392310E+00 -2.996772623E+01  3.135757462E+01  3.371747881E-07  0.00000E+00  9.000E+00
#rwgt            1           1  0.51203180867433518                6      437001           0
</event>
<event>
      5   9999  3.79277E-02  5.40403E+01 -1.00000E+00  1.37177E-01
      21    -1     0     0   502   512  0.000000000E+00  0.000000000E+00  2.280945680E+01  2.280945680E+01  0.000000000E+00  0.00000E+00  9.000E+00
      21    -1     0     0   501   502  0.000000000E+00  0.000000000E+00 -2.023898387E+03  2.023898387E+03  0.000000000E+00  0.00000E+00  9.000E+00
      25     1     1     2     0     0 -3.007923505E+01 -1.142702048E+02 -1.057783670E+03  1.071677999E+03  1.250000000E+02  0.00000E+00  9.000E+00
      25     1     1     2     0     0 -1.758032400E+01  1.397440652E+02 -8.002285876E+02  8.220877471E+02  1.250000000E+02  0.00000E+00  9.000E+00
      21     1     1     2   501   512  4.765955905E+01 -2.547386043E+01 -1.430766726E+02  1.529420981E+02  1.907348633E-06  0.00000E+00  9.000E+00
#rwgt            1           1  0.14278375839436738                6      437335           0
</event>
<event>
      5   9999  3.79277E-02  3.56627E+01 -1.00000E+00  1.48001E-01
      21    -1     0     0   502   511  0.000000000E+00  0.000000000E+00  1.640556988E+02  1.640556988E+02  0.000000000E+00  0.00000E+00  9.000E+00
      21    -1     0     0   501   502  0.000000000E+00  0.000000000E+00 -2.521092128E+02  2.521092128E+02  0.000000000E+00  0.00000E+00  9.000E+00
      25     1     1     2     0     0 -3.467285757E+01 -4.345193337E+01  7.453484732E+01  1.557906320E+02  1.250000000E+02  0.00000E+00  9.000E+00
      25     1     1     2     0     0 -6.735401231E-01  4.819096738E+01 -1.769367308E+02  2.219333902E+02  1.250000000E+02  0.00000E+00  9.000E+00
      21     1     1     2   501   511  3.534639769E+01 -4.739034008E+00  1.434836941E+01  3.844088940E+01  9.233911863E-07  0.00000E+00  9.000E+00
#rwgt            1           1   2.9078518037370965E-002           6      437457           0
</event>
<event>
      5   9999  3.79277E-02  2.20602E+01 -1.00000E+00  1.62931E-01
      21    -1     0     0   502   501  0.000000000E+00  0.000000000E+00  9.524811246E+01  9.524811246E+01  0.000000000E+00  0.00000E+00  9.000E+00
      21    -1     0     0   501   512  0.000000000E+00  0.000000000E+00 -7.218257804E+02  7.218257804E+02  0.000000000E+00  0.00000E+00  9.000E+00
      25     1     1     2     0     0 -1.794407767E+02  6.342097863E+01 -2.335878638E+02  3.262046949E+02  1.250000000E+02  0.00000E+00  9.000E+00
      25     1     1     2     0     0  1.994981885E+02 -7.260525182E+01 -2.683441955E+02  3.642865041E+02  1.250000000E+02  0.00000E+00  9.000E+00
      21     1     1     2   502   512 -2.005741181E+01  9.184273190E+00 -1.246456086E+02  1.265826939E+02  1.348699152E-06  0.00000E+00  9.000E+00
#rwgt            1           1   3.6864462811938101E-002           6      437668           0
</event>
<event>
      5   9999  3.79277E-02  2.93547E+01 -1.00000E+00  1.53699E-01
      21    -1     0     0   502   501  0.000000000E+00  0.000000000E+00  3.756645135E+02  3.756645135E+02  0.000000000E+00  0.00000E+00  9.000E+00
      21    -1     0     0   511   502  0.000000000E+00  0.000000000E+00 -4.754902675E+02  4.754902675E+02  0.000000000E+00  0.00000E+00  9.000E+00
      25     1     1     2     0     0  3.686103299E+02 -9.937733240E+00 -4.653704294E+01  3.921262937E+02  1.250000000E+02  0.00000E+00  9.000E+00
      25     1     1     2     0     0 -3.862726429E+02 -1.350888174E+01 -9.524104669E+00  4.063308419E+02  1.250000000E+02  0.00000E+00  9.000E+00
      21     1     1     2   511   501  1.766231295E+01  2.344661498E+01 -4.376460639E+01  5.269764534E+01  6.743495762E-07  0.00000E+00  9.000E+00
#rwgt            1           1   5.1555643258319454E-002           6      437890           0
</event>
<event>
      5   9999  3.79277E-02  2.10974E+01 -1.00000E+00  1.64477E-01
      21    -1     0     0   502   512  0.000000000E+00  0.000000000E+00  2.124536146E+02  2.124536146E+02  0.000000000E+00  0.00000E+00  9.000E+00
      21    -1     0     0   501   502  0.000000000E+00  0.000000000E+00 -2.793814772E+02  2.793814772E+02  0.000000000E+00  0.00000E+00  9.000E+00
      25     1     1     2     0     0  8.760950724E+01  4.417623745E+01  2.608114016E+01  1.610347527E+02  1.250000000E+02  0.00000E+00  9.000E+00
      25     1     1     2     0     0 -6.657743428E+01 -4.251772401E+01 -1.847648404E+02  2.366502860E+02  1.250000000E+02  0.00000E+00  9.000E+00
      21     1     1     2   501   512 -2.103207296E+01 -1.658513439E+00  9.175583767E+01  9.415005314E+01  1.348699152E-06  0.00000E+00  9.000E+00
#rwgt            1           1   1.9355115161487448E-002           6      438345           0
</event>
<event>
      5   9999  3.79277E-02  3.78400E+01 -1.00000E+00  1.46351E-01
      21    -1     0     0   502   501  0.000000000E+00  0.000000000E+00  1.575238816E+02  1.575238816E+02  0.000000000E+00  0.00000E+00  9.000E+00
      21    -1     0     0   511   502  0.000000000E+00  0.000000000E+00 -4.218490870E+02  4.218490870E+02  0.000000000E+00  0.00000E+00  9.000E+00
      25     1     1     2     0     0  9.474134139E+01  1.085624965E+02  5.028071974E+01  1.972685687E+02  1.250000000E+02  0.00000E+00  9.000E+00
      25     1     1     2     0     0 -9.588813124E+01 -7.073984059E+01 -2.881343095E+02  3.359241567E+02  1.250000000E+02  0.00000E+00  9.000E+00
      21     1     1     2   511   501  1.146789844E+00 -3.782265594E+01 -2.647161565E+01  4.618024322E+01  7.539457465E-07  0.00000E+00  9.000E+00
#rwgt            1           1   3.5265667623210463E-002           6      438549           0
</event>
<event>
      5   9999  3.79277E-02  1.32015E+02 -1.00000E+00  1.18635E-01
      21    -1     0     0   502   501  0.000000000E+00  0.000000000E+00  1.771654372E+02  1.771654372E+02  0.000000000E+00  0.00000E+00  9.000E+00
      21    -1     0     0   512   502  0.000000000E+00  0.000000000E+00 -3.849219123E+02  3.849219123E+02  0.000000000E+00  0.00000E+00  9.000E+00
      25     1     1     2     0     0 -1.405028096E+02  1.191641157E+01  5.813425863E-01  1.884366693E+02  1.250000000E+02  0.00000E+00  9.000E+00
      25     1     1     2     0     0  6.548574836E+01  9.671330303E+01 -7.759473606E+01  1.878504439E+02  1.250000000E+02  0.00000E+00  9.000E+00
      21     1     1     2   512   501  7.501706129E+01 -1.086297146E+02 -1.307430816E+02  1.858002362E+02  3.814697266E-06  0.00000E+00  9.000E+00
#rwgt            2          11   2.1749584497182048E-003           6      438881           0
</event>
<event>
      5   9999  3.79277E-02  4.22679E+01 -1.00000E+00  1.43370E-01
      21    -1     0     0   502   501  0.000000000E+00  0.000000000E+00  5.449588616E+02  5.449588616E+02  0.000000000E+00  0.00000E+00  9.000E+00
      21    -1     0     0   501   511  0.000000000E+00  0.000000000E+00 -1.458471533E+02  1.458471533E+02  0.000000000E+00  0.00000E+00  9.000E+00
      25     1     1     2     0     0  6.379243670E+01 -6.212759021E+01  5.568560505E+00  1.535751325E+02  1.250000000E+02  0.00000E+00  9.000E+00
      25     1     1     2     0     0 -3.721704484E+01  9.499586743E+01  4.434135127E+02  4.718578881E+02  1.250000000E+02  0.00000E+00  9.000E+00
      21     1     1     2   502   511 -2.657539186E+01 -3.286827722E+01 -4.987036487E+01  6.537299437E+01  1.784161275E-06  0.00000E+00  9.000E+00
#rwgt            1           1   4.3131789204370344E-002           6      438916           0
</event>
<event>
      5   9999  3.79277E-02  3.15156E+01 -1.00000E+00  1.51568E-01
      21    -1     0     0   502   512  0.000000000E+00  0.000000000E+00  2.422807972E+02  2.422807972E+02  0.000000000E+00  0.00000E+00  9.000E+00
      21    -1     0     0   501   502  0.000000000E+00  0.000000000E+00 -4.364765879E+02  4.364765879E+02  0.000000000E+00  0.00000E+00  9.000E+00
      25     1     1     2     0     0 -5.629057438E+01  1.630105447E+02 -1.459121038E+02  2.581790241E+02  1.250000000E+02  0.00000E+00  9.000E+00
      25     1     1     2     0     0  7.886672182E+01 -1.850002865E+02 -1.721566078E+02  2.927592243E+02  1.250000000E+02  0.00000E+00  9.000E+00
      21     1     1     2   501   512 -2.257614745E+01  2.198974177E+01  1.238729209E+02  1.278191368E+02  1.907348633E-06  0.00000E+00  9.000E+00
#rwgt            1           1   3.5251581070232789E-002           6      439173           0
</event>
<event>
      5   9999  3.79277E-02  1.21642E+01 -1.00000E+00  1.86409E-01
      21    -1     0     0   511   501  0.000000000E+00  0.000000000E+00  1.043555361E+03  1.043555361E+03  0.000000000E+00  0.00000E+00  9.000E+00
      21    -1     0     0   501   502  0.000000000E+00  0.000000000E+00 -6.217406090E+02  6.217406090E+02  0.000000000E+00  0.00000E+00  9.000E+00
      25     1     1     2     0     0 -4.329797810E+01  1.354635840E+02 -6.419861237E+01  1.999288857E+02  1.250000000E+02  0.00000E+00  9.000E+00
      25     1     1     2     0     0  4.134129377E+01 -1.234577429E+02 -4.730056448E+02  5.062709323E+02  1.250000000E+02  0.00000E+00  9.000E+00
      21     1     1     2   511   502  1.956684331E+00 -1.200584106E+01  9.590190097E+02  9.590961525E+02  1.078959322E-05  0.00000E+00  9.000E+00
#rwgt            1           1   4.7874545426979012E-002           6      439330           0
</event>
<event>
      5   9999 -3.79277E-02  1.20804E+01 -1.00000E+00  1.86723E-01
      21    -1     0     0   502   501  0.000000000E+00  0.000000000E+00  4.461400233E+01  4.461400233E+01  0.000000000E+00  0.00000E+00  9.000E+00
      21    -1     0     0   501   512  0.000000000E+00  0.000000000E+00 -5.988876604E+02  5.988876604E+02  0.000000000E+00  0.00000E+00  9.000E+00
      25     1     1     2     0     0 -4.262407672E+01 -2.461127404E+01 -1.221028951E+02  1.815396478E+02  1.250000000E+02  0.00000E+00  9.000E+00
      25     1     1     2     0     0  4.189251048E+01  1.255300118E+01 -2.846532561E+02  3.139506912E+02  1.250000000E+02  0.00000E+00  9.000E+00
      21     1     1     2   502   512  7.315662368E-01  1.205827286E+01 -1.475175069E+02  1.480113238E+02  1.907348633E-06  0.00000E+00  9.000E+00
#rwgt            1           1  -7.0508793244287771E-002           6      439611           0
</event>
<event>
      5   9999  3.79277E-02  1.44292E+01 -1.00000E+00  1.78986E-01
      21    -1     0     0   502   501  0.000000000E+00  0.000000000E+00  5.090766242E+02  5.090766242E+02  0.000000000E+00  0.00000E+00  9.000E+00
      21    -1     0     0   511   502  0.000000000E+00  0.000000000E+00 -2.114125922E+02  2.114125922E+02  0.000000000E+00  0.00000E+00  9.000E+00
      25     1     1     2     0     0 -1.471773935E+02  1.475192926E+02  3.763480908E+02  4.479799240E+02  1.250000000E+02  0.00000E+00  9.000E+00
      25     1     1     2     0     0  1.594935005E+02 -1.400016360E+02 -7.656039084E+01  2.579246561E+02  1.250000000E+02  0.00000E+00  9.000E+00
      21     1     1     2   511   501 -1.231610698E+01 -7.517656679E+00 -2.123667946E+00  1.458463639E+01  8.429369702E-08  0.00000E+00  9.000E+00
#rwgt            1           1   3.5898837923253921E-002           6      439755           0
</event>
<event>
      5   9999  3.79277E-02  5.44096E+01 -1.00000E+00  1.37013E-01
      21    -1     0     0   512   501  0.000000000E+00  0.000000000E+00  1.094414067E+03  1.094414067E+03  0.000000000E+00  0.00000E+00  9.000E+00
      21    -1     0     0   501   502  0.000000000E+00  0.000000000E+00 -1.683605251E+02  1.683605251E+02  0.000000000E+00  0.00000E+00  9.000E+00
      25     1     1     2     0     0  2.324053993E+02  1.685649886E+02  7.011908766E+02  7.679323346E+02  1.250000000E+02  0.00000E+00  9.000E+00
      25     1     1     2     0     0 -2.531919396E+02 -2.188474493E+02  1.202783182E+02  3.769512411E+02  1.250000000E+02  0.00000E+00  9.000E+00
      21     1     1     2   512   502  2.078654027E+01  5.028246066E+01  1.045843470E+02  1.178910163E+02  1.907348633E-06  0.00000E+00  9.000E+00
#rwgt            1           1   3.7016537778551344E-002           6      439956           0
</event>
<event>
      5   9999  3.79277E-02  1.36087E+01 -1.00000E+00  1.81461E-01
      21    -1     0     0   511   501  0.000000000E+00  0.000000000E+00  9.522611218E+02  9.522611218E+02  0.000000000E+00  0.00000E+00  9.000E+00
      21    -1     0     0   501   502  0.000000000E+00  0.000000000E+00 -5.872828819E+01  5.872828819E+01  0.000000000E+00  0.00000E+00  9.000E+00
      25     1     1     2     0     0  6.084308044E+01  1.206400869E+02  3.947265945E+02  4.355341495E+02  1.250000000E+02  0.00000E+00  9.000E+00
      25     1     1     2     0     0 -6.129329123E+01 -1.342413055E+02  2.068332699E+02  2.831653178E+02  1.250000000E+02  0.00000E+00  9.000E+00
      21     1     1     2   511   502  4.502107824E-01  1.360121866E+01  2.919729692E+02  2.922899427E+02  3.814697266E-06  0.00000E+00  9.000E+00
#rwgt            1           1   3.6137821272498614E-002           6      440232           0
</event>
<event>
      5   9999  3.79277E-02  1.30980E+02 -1.00000E+00  1.18776E-01
      21    -1     0     0   502   501  0.000000000E+00  0.000000000E+00  1.492739610E+02  1.492739610E+02  0.000000000E+00  0.00000E+00  9.000E+00
      21    -1     0     0   512   502  0.000000000E+00  0.000000000E+00 -5.627107597E+02  5.627107597E+02  0.000000000E+00  0.00000E+00  9.000E+00
      25     1     1     2     0     0 -1.174050568E+02 -1.810909694E+02 -1.457042777E+02  2.888470583E+02  1.250000000E+02  0.00000E+00  9.000E+00
      25     1     1     2     0     0  2.776850691E+01  8.558626633E+01 -3.791377952E+01  1.586144812E+02  1.250000000E+02  0.00000E+00  9.000E+00
      21     1     1     2   512   501  8.963654991E+01  9.550470310E+01 -2.298187415E+02  2.645231811E+02  2.697398305E-06  0.00000E+00  9.000E+00
#rwgt            1           1   9.5906111253854343E-002           6      440561           0
</event>
<event>
      5   9999  3.79277E-02  1.01976E+02 -1.00000E+00  1.23447E-01
       2    -1     0     0   502     0  0.000000000E+00  0.000000000E+00  1.874691642E+03  1.874691642E+03  0.000000000E+00  0.00000E+00  9.000E+00
      21    -1     0     0   501   502  0.000000000E+00  0.000000000E+00 -1.347954227E+02  1.347954227E+02  0.000000000E+00  0.00000E+00  9.000E+00
      25     1     1     2     0     0  3.077093560E+02 -9.186919907E+01  2.324923632E+02  4.156954371E+02  1.250000000E+02  0.00000E+00  9.000E+00
      25     1     1     2     0     0 -2.072723858E+02  7.421958343E+01  3.503383413E+02  4.322410691E+02  1.250000000E+02  0.00000E+00  9.000E+00
       2     1     1     2   501     0 -1.004369702E+02  1.764961564E+01  1.157065515E+03  1.161550558E+03  2.157918644E-05  0.00000E+00  9.000E+00
#rwgt            1           1   3.6757454870513441E-002           6      440712           0
</event>
<event>
      5   9999  3.79277E-02  6.55923E+01 -1.00000E+00  1.32667E-01
      21    -1     0     0   502   501  0.000000000E+00  0.000000000E+00  6.126430173E+01  6.126430173E+01  0.000000000E+00  0.00000E+00  9.000E+00
      21    -1     0     0   511   502  0.000000000E+00  0.000000000E+00 -5.716381032E+02  5.716381032E+02  0.000000000E+00  0.00000E+00  9.000E+00
      25     1     1     2     0     0  8.858051742E+01  6.094689623E+01 -2.628600244E+02  3.102924824E+02  1.250000000E+02  0.00000E+00  9.000E+00
      25     1     1     2     0     0 -2.603092458E+01 -4.120105011E+01 -1.236655783E+02  1.824645468E+02  1.250000000E+02  0.00000E+00  9.000E+00
      21     1     1     2   511   501 -6.254959285E+01 -1.974584612E+01 -1.238481987E+02  1.401453757E+02  2.336015456E-06  0.00000E+00  9.000E+00
#rwgt            2          11   1.3304530334216421E-003           6      440777           0
</event>
<event>
      5   9999  3.79277E-02  4.51533E+01 -1.00000E+00  1.41650E-01
       1    -1     0     0   502     0  0.000000000E+00  0.000000000E+00  1.049333165E+03  1.049333165E+03  0.000000000E+00  0.00000E+00  9.000E+00
      21    -1     0     0   501   502  0.000000000E+00  0.000000000E+00 -1.371703007E+02  1.371703007E+02  0.000000000E+00  0.00000E+00  9.000E+00
      25     1     1     2     0     0 -4.340155571E+01 -1.591689754E+02  1.221192387E+02  2.403259583E+02  1.250000000E+02  0.00000E+00  9.000E+00
      25     1     1     2     0     0  2.646963774E+00  1.786081670E+02  7.626860944E+01  2.309757228E+02  1.250000000E+02  0.00000E+00  9.000E+00
       1     1     1     2   501     0  4.075459193E+01 -1.943919157E+01  7.137750161E+02  7.152017845E+02  0.000000000E+00  0.00000E+00  9.000E+00
#rwgt            1           1   2.9534559647772282E-002           6      440827           0
</event>
<event>
      5   9999  3.79277E-02  8.83677E+01 -1.00000E+00  1.26293E-01
      21    -1     0     0   502   501  0.000000000E+00  0.000000000E+00  3.861433349E+02  3.861433349E+02  0.000000000E+00  0.00000E+00  9.000E+00
       2    -1     0     0   501     0  0.000000000E+00  0.000000000E+00 -3.965209395E+03  3.965209395E+03  0.000000000E+00  0.00000E+00  9.000E+00
      25     1     1     2     0     0  4.454140309E+02  1.377446392E+01  3.059775350E+01  4.638368434E+02  1.250000000E+02  0.00000E+00  9.000E+00
      25     1     1     2     0     0 -4.632393101E+02 -1.003256198E+02 -2.958939755E+02  5.725680162E+02  1.250000000E+02  0.00000E+00  9.000E+00
       2     1     1     2   502     0  1.782527922E+01  8.655115587E+01 -3.313769839E+03  3.314947871E+03  4.315837288E-05  0.00000E+00  9.000E+00
#rwgt            1           1  0.12709654169763196                6      440972           0
</event>
<event>
      5   9999  3.79277E-02  3.73776E+01 -1.00000E+00  1.46690E-01
      21    -1     0     0   502   501  0.000000000E+00  0.000000000E+00  2.690460459E+03  2.690460459E+03  0.000000000E+00  0.00000E+00  9.000E+00
      21    -1     0     0   511   502  0.000000000E+00  0.000000000E+00 -1.759720699E+02  1.759720699E+02  0.000000000E+00  0.00000E+00  9.000E+00
      25     1     1     2     0     0 -2.275745055E+02 -4.335080574E+01  1.617888855E+03  1.639164054E+03  1.250000000E+02  0.00000E+00  9.000E+00
      25     1     1     2     0     0  2.403695603E+02  7.847016621E+01  1.040778792E+03  1.078323044E+03  1.250000000E+02  0.00000E+00  9.000E+00
      21     1     1     2   511   501 -1.279505482E+01 -3.511936047E+01 -1.441792583E+02  1.489454311E+02  0.000000000E+00  0.00000E+00  9.000E+00
#rwgt            1           1   6.6314746188610621E-002           6      441099           0
</event>
<event>
      5   9999  3.79277E-02  1.92426E+01 -1.00000E+00  1.67764E-01
      21    -1     0     0   502   501  0.000000000E+00  0.000000000E+00  1.524486088E+02  1.524486088E+02  0.000000000E+00  0.00000E+00  9.000E+00
      21    -1     0     0   501   512  0.000000000E+00  0.000000000E+00 -4.357199546E+02  4.357199546E+02  0.000000000E+00  0.00000E+00  9.000E+00
      25     1     1     2     0     0 -2.994436193E+01  1.978096536E+02 -1.129526956E+02  2.615504451E+02  1.250000000E+02  0.00000E+00  9.000E+00
      25     1     1     2     0     0  3.287136538E+01 -2.168283610E+02 -1.346637418E+02  2.861020590E+02  1.250000000E+02  0.00000E+00  9.000E+00
      21     1     1     2   502   512 -2.927003451E+00  1.901870744E+01 -3.565490836E+01  4.051605943E+01  6.743495762E-07  0.00000E+00  9.000E+00
#rwgt            1           1   4.8060524909951351E-002           6      441234           0
</event>
<event>
      5   9999  3.79277E-02  5.33276E+01 -1.00000E+00  1.37498E-01
      21    -1     0     0   502   501  0.000000000E+00  0.000000000E+00  7.378781190E+02  7.378781190E+02  0.000000000E+00  0.00000E+00  9.000E+00
      21    -1     0     0   501   511  0.000000000E+00  0.000000000E+00 -9.738558484E+01  9.738558484E+01  0.000000000E+00  0.00000E+00  9.000E+00
      25     1     1     2     0     0  1.286171466E+02 -1.228241773E+02  3.840532340E+02  4.413049235E+02  1.250000000E+02  0.00000E+00  9.000E+00
      25     1     1     2     0     0 -1.686684444E+02  8.761439708E+01  2.534186940E+02  3.405456815E+02  1.250000000E+02  0.00000E+00  9.000E+00
      21     1     1     2   502   511  4.005129776E+01  3.520978019E+01  3.020606157E+00  5.341309890E+01  2.384185791E-07  0.00000E+00  9.000E+00
#rwgt            1           1   1.2976384940172758E-002           6      441405           0
</event>
<event>
      5   9999  3.79277E-02  3.41210E+01 -1.00000E+00  1.49256E-01
      21    -1     0     0   512   501  0.000000000E+00  0.000000000E+00  1.084709234E+02  1.084709234E+02  0.000000000E+00  0.00000E+00  9.000E+00
      21    -1     0     0   501   502  0.000000000E+00  0.000000000E+00 -4.638714042E+02  4.638714042E+02  0.000000000E+00  0.00000E+00  9.000E+00
      25     1     1     2     0     0  9.582611319E+01 -4.214126582E+01 -1.849881031E+00  1.630550591E+02  1.250000000E+02  0.00000E+00  9.000E+00
      25     1     1     2     0     0 -8.703520923E+01  9.172135058E+00 -3.398193298E+02  3.725069565E+02  1.250000000E+02  0.00000E+00  9.000E+00
      21     1     1     2   512   502 -8.790903954E+00  3.296913076E+01 -1.373126995E+01  3.678031199E+01  6.529361695E-07  0.00000E+00  9.000E+00
#rwgt            1           1   4.5110380104441530E-002           6      441582           0
</event>
<event>
      5   9999  3.79277E-02  3.61290E+01 -1.00000E+00  1.47636E-01
      21    -1     0     0   502   501  0.000000000E+00  0.000000000E+00  5.413219271E+01  5.413219271E+01  0.000000000E+00  0.00000E+00  9.000E+00
      21    -1     0     0   501   511  0.000000000E+00  0.000000000E+00 -1.166632212E+03  1.166632212E+03  0.000000000E+00  0.00000E+00  9.000E+00
      25     1     1     2     0     0  1.142256186E+02 -6.236688422E+01 -3.655310956E+02  4.076458046E+02  1.250000000E+02  0.00000E+00  9.000E+00
      25     1     1     2     0     0 -1.459719106E+02  7.961450677E+01 -3.021348860E+02  3.668197891E+02  1.250000000E+02  0.00000E+00  9.000E+00
      21     1     1     2   502   511  3.174629194E+01 -1.724762255E+01 -4.448340374E+02  4.462988106E+02  0.000000000E+00  0.00000E+00  9.000E+00
#rwgt            1           1  0.18993822262713689                6      441729           0
</event>
<event>
      5   9999  3.79277E-02  7.59743E+01 -1.00000E+00  1.29444E-01
      21    -1     0     0   502   501  0.000000000E+00  0.000000000E+00  2.179104417E+02  2.179104417E+02  0.000000000E+00  0.00000E+00  9.000E+00
      21    -1     0     0   501   512  0.000000000E+00  0.000000000E+00 -4.665452765E+02  4.665452765E+02  0.000000000E+00  0.00000E+00  9.000E+00
      25     1     1     2     0     0  7.229726646E-01  1.709704502E+02  6.604163380E+00  2.118962777E+02  1.250000000E+02  0.00000E+00  9.000E+00
      25     1     1     2     0     0  7.522959923E+01 -1.691528032E+02 -1.874534553E+01  2.241618866E+02  1.250000000E+02  0.00000E+00  9.000E+00
      21     1     1     2   502   512 -7.595257190E+01 -1.817647051E+00 -2.364936527E+02  2.483975539E+02  3.814697266E-06  0.00000E+00  9.000E+00
#rwgt            1           1   2.7076596428312297E-002           6      441851           0
</event>
<event>
      5   9999  3.79277E-02  3.17555E+01 -1.00000E+00  1.51344E-01
      21    -1     0     0   502   511  0.000000000E+00  0.000000000E+00  1.610096564E+02  1.610096564E+02  0.000000000E+00  0.00000E+00  9.000E+00
      21    -1     0     0   501   502  0.000000000E+00  0.000000000E+00 -4.663585005E+02  4.663585005E+02  0.000000000E+00  0.00000E+00  9.000E+00
      25     1     1     2     0     0  1.688248516E+02 -1.431406491E+02 -1.429163698E+02  2.916181831E+02  1.250000000E+02  0.00000E+00  9.000E+00
      25     1     1     2     0     0 -1.421177379E+02  1.603203023E+02 -1.728516631E+02  3.023288742E+02  1.250000000E+02  0.00000E+00  9.000E+00
      21     1     1     2   501   511 -2.670711368E+01 -1.717965320E+01  1.041918882E+01  3.342109963E+01  7.996802250E-07  0.00000E+00  9.000E+00
#rwgt            1           1   3.4941912153727606E-002           6      442014           0
</event>
<event>
      5   9999  3.79277E-02  6.21102E+01 -1.00000E+00  1.33906E-01
      21    -1     0     0   502   512  0.000000000E+00  0.000000000E+00  2.438512551E+02  2.438512551E+02  0.000000000E+00  0.00000E+00  9.000E+00
      21    -1     0     0   501   502  0.000000000E+00  0.000000000E+00 -2.536451916E+02  2.536451916E+02  0.000000000E+00  0.00000E+00  9.000E+00
      25     1     1     2     0     0  1.067445695E+02 -1.134504700E+02 -7.891365124E+01  2.147504985E+02  1.250000000E+02  0.00000E+00  9.000E+00
      25     1     1     2     0     0 -6.309458034E+01  1.576359792E+02  4.206372705E+01  2.149985701E+02  1.250000000E+02  0.00000E+00  9.000E+00
      21     1     1     2   501   512 -4.364998914E+01 -4.418550916E+01  2.705598763E+01  6.774737809E+01  7.539457465E-07  0.00000E+00  9.000E+00
#rwgt            1           1   3.8783894290152880E-002           6      442151           0
</event>
<event>
      5   9999  3.79277E-02  2.21141E+02 -1.00000E+00  1.10082E-01
       2    -1     0     0   502     0  0.000000000E+00  0.000000000E+00  7.145180088E+02  7.145180088E+02  0.000000000E+00  0.00000E+00  9.000E+00
      21    -1     0     0   501   502  0.000000000E+00  0.000000000E+00 -5.453880166E+02  5.453880166E+02  0.000000000E+00  0.00000E+00  9.000E+00
      25     1     1     2     0     0 -2.038250729E+02 -8.030523459E+01  7.577347905E+01  2.633632685E+02  1.250000000E+02  0.00000E+00  9.000E+00
      25     1     1     2     0     0  3.113404391E+02  2.735504460E+02 -3.128103299E+02  5.340767904E+02  1.250000000E+02  0.00000E+00  9.000E+00
       2     1     1     2   501     0 -1.075153662E+02 -1.932452114E+02  4.061668431E+02  4.624659665E+02  0.000000000E+00  0.00000E+00  9.000E+00
#rwgt            2          18   2.4023974954844718E-004           6      442217           0
</event>
<event>
      5   9999  3.79277E-02  2.75026E+01 -1.00000E+00  1.55709E-01
      21    -1     0     0   502   501  0.000000000E+00  0.000000000E+00  1.536141345E+02  1.536141345E+02  0.000000000E+00  0.00000E+00  9.000E+00
      21    -1     0     0   501   511  0.000000000E+00  0.000000000E+00 -4.345514876E+02  4.345514876E+02  0.000000000E+00  0.00000E+00  9.000E+00
      25     1     1     2     0     0  1.347184138E+02 -5.242573952E+01 -9.397221053E+00  1.913395331E+02  1.250000000E+02  0.00000E+00  9.000E+00
      25     1     1     2     0     0 -1.079130026E+02  5.857915633E+01 -6.257279144E+01  1.860566793E+02  1.250000000E+02  0.00000E+00  9.000E+00
      21     1     1     2   502   511 -2.680541117E+01 -6.153416809E+00 -2.089673406E+02  2.107694096E+02  2.697398305E-06  0.00000E+00  9.000E+00
#rwgt            1           1   4.0550794934399080E-002           6      442236           0
</event>
<event>
      5   9999  3.79277E-02  2.87356E+01 -1.00000E+00  1.54350E-01
      21    -1     0     0   502   512  0.000000000E+00  0.000000000E+00  3.508664007E+02  3.508664007E+02  0.000000000E+00  0.00000E+00  9.000E+00
      21    -1     0     0   501   502  0.000000000E+00  0.000000000E+00 -3.293578186E+02  3.293578186E+02  0.000000000E+00  0.00000E+00  9.000E+00
      25     1     1     2     0     0  1.709473950E+02  7.420829653E+01 -6.218533615E+01  2.328559623E+02  1.250000000E+02  0.00000E+00  9.000E+00
      25     1     1     2     0     0 -1.532696883E+02 -9.686300037E+01 -1.137342082E+02  2.478598562E+02  1.250000000E+02  0.00000E+00  9.000E+00
      21     1     1     2   501   512 -1.767770672E+01  2.265470383E+01  1.974281264E+02  1.995084008E+02  0.000000000E+00  0.00000E+00  9.000E+00
#rwgt            1           1   2.8760948560860207E-002           6      442396           0
</event>
<event>
      5   9999  3.79277E-02  1.09791E+01 -1.00000E+00  1.91182E-01
      21    -1     0     0   502   501  0.000000000E+00  0.000000000E+00  1.447795200E+03  1.447795200E+03  0.000000000E+00  0.00000E+00  9.000E+00
      21    -1     0     0   511   502  0.000000000E+00  0.000000000E+00 -8.173950032E+01  8.173950032E+01  0.000000000E+00  0.00000E+00  9.000E+00
      25     1     1     2     0     0 -2.911785286E+02 -3.375112394E+01  9.513999829E+02  1.003349890E+03  1.250000000E+02  0.00000E+00  9.000E+00
      25     1     1     2     0     0  2.833060963E+02  4.140390134E+01  4.054908020E+02  5.118832071E+02  1.250000000E+02  0.00000E+00  9.000E+00
      21     1     1     2   511   501  7.872432353E+00 -7.652777405E+00  9.164914507E+00  1.430160309E+01  1.685873940E-07  0.00000E+00  9.000E+00
#rwgt            1           1   3.6224198993181161E-002           6      442581           0
</event>
<event>
      5   9999  3.79277E-02  3.03384E+01 -1.00000E+00  1.52702E-01
       3    -1     0     0   502     0  0.000000000E+00  0.000000000E+00  1.100082598E+03  1.100082598E+03  0.000000000E+00  0.00000E+00  9.000E+00
      21    -1     0     0   501   502  0.000000000E+00  0.000000000E+00 -6.008997151E+01  6.008997151E+01  0.000000000E+00  0.00000E+00  9.000E+00
      25     1     1     2     0     0  1.149502442E+01 -1.780690676E+02  4.002927374E+02  4.557411590E+02  1.250000000E+02  0.00000E+00  9.000E+00
      25     1     1     2     0     0 -1.537113051E+01  1.479792584E+02  2.655477234E+02  3.290512513E+02  1.250000000E+02  0.00000E+00  9.000E+00
       3     1     1     2   501     0  3.876106090E+00  3.008980926E+01  3.741521655E+02  3.753801590E+02  7.629394531E-06  0.00000E+00  9.000E+00
#rwgt            1           1   3.8682403741855040E-002           6      442868           0
</event>
<event>
      5   9999  3.79277E-02  3.16533E+01 -1.00000E+00  1.51439E-01
      21    -1     0     0   502   501  0.000000000E+00  0.000000000E+00  1.104693331E+03  1.104693331E+03  0.000000000E+00  0.00000E+00  9.000E+00
      21    -1     0     0   501   511  0.000000000E+00  0.000000000E+00 -6.186627499E+01  6.186627499E+01  0.000000000E+00  0.00000E+00  9.000E+00
      25     1     1     2     0     0  1.320893367E+02  1.057121267E+02  3.280532960E+02  3.897006693E+02  1.250000000E+02  0.00000E+00  9.000E+00
      25     1     1     2     0     0 -1.433531313E+02 -1.352934602E+02  7.066211900E+02  7.441726592E+02  1.250000000E+02  0.00000E+00  9.000E+00
      21     1     1     2   502   511  1.126379468E+01  2.958133347E+01  8.152570469E+00  3.268627794E+01  7.251217997E-07  0.00000E+00  9.000E+00
#rwgt            1           1   3.8785322844524822E-002           6      443046           0
</event>
<event>
      5   9999  3.79277E-02  1.88596E+01 -1.00000E+00  1.68501E-01
      21    -1     0     0   502   501  0.000000000E+00  0.000000000E+00  4.354859142E+01  4.354859142E+01  0.000000000E+00  0.00000E+00  9.000E+00
      21    -1     0     0   501   512  0.000000000E+00  0.000000000E+00 -1.066979426E+03  1.066979426E+03  0.000000000E+00  0.00000E+00  9.000E+00
      25     1     1     2     0     0  9.866052330E+01  1.233388085E+02 -3.726279708E+02  4.235834808E+02  1.250000000E+02  0.00000E+00  9.000E+00
      25     1     1     2     0     0 -1.024163877E+02 -1.048570073E+02 -5.152006066E+02  5.500370656E+02  1.250000000E+02  0.00000E+00  9.000E+00
      21     1     1     2   502   512  3.755864433E+00 -1.848180127E+01 -1.356022570E+02  1.369074710E+02  0.000000000E+00  0.00000E+00  9.000E+00
#rwgt            1           1   2.3846939297809070E-002           6      443209           0
</event>
<event>
      5   9999  3.79277E-02  1.50435E+01 -1.00000E+00  1.77265E-01
      21    -1     0     0   502   501  0.000000000E+00  0.000000000E+00  2.851877674E+02  2.851877674E+02  0.000000000E+00  0.00000E+00  9.000E+00
      21    -1     0     0   511   502  0.000000000E+00  0.000000000E+00 -2.941714451E+02  2.941714451E+02  0.000000000E+00  0.00000E+00  9.000E+00
      25     1     1     2     0     0  1.689741158E+02 -1.499538133E+02 -1.203684481E+02  2.848718330E+02  1.250000000E+02  0.00000E+00  9.000E+00
      25     1     1     2     0     0 -1.675013763E+02  1.349826257E+02  1.209687152E+02  2.766504118E+02  1.250000000E+02  0.00000E+00  9.000E+00
      21     1     1     2   511   501 -1.472739486E+00  1.497118758E+01 -9.583944768E+00  1.783696769E+01  2.920019320E-07  0.00000E+00  9.000E+00
#rwgt            1           1   3.6247086277553645E-002           6      443325           0
</event>
<event>
      5   9999  3.79277E-02  1.86647E+01 -1.00000E+00  1.68884E-01
      21    -1     0     0   502   501  0.000000000E+00  0.000000000E+00  1.297736873E+02  1.297736873E+02  0.000000000E+00  0.00000E+00  9.000E+00
      21    -1     0     0   501   512  0.000000000E+00  0.000000000E+00 -6.486970755E+02  6.486970755E+02  0.000000000E+00  0.00000E+00  9.000E+00
      25     1     1     2     0     0  8.100849334E+01 -1.651607657E+02 -3.395762672E+01  2.249857216E+02  1.250000000E+02  0.00000E+00  9.000E+00
      25     1     1     2     0     0 -8.181598503E+01  1.838080008E+02 -3.868104830E+02  4.535709276E+02  1.250000000E+02  0.00000E+00  9.000E+00
      21     1     1     2   502   512  8.074916912E-01 -1.864723517E+01 -9.815527840E+01  9.991411362E+01  0.000000000E+00  0.00000E+00  9.000E+00
#rwgt            1           1   2.9709179398519421E-002           6      443626           0
</event>
<event>
      5   9999  3.79277E-02  2.00664E+01 -1.00000E+00  1.66250E-01
      21    -1     0     0   511   501  0.000000000E+00  0.000000000E+00  4.187863742E+02  4.187863742E+02  0.000000000E+00  0.00000E+00  9.000E+00
      21    -1     0     0   501   502  0.000000000E+00  0.000000000E+00 -1.158474501E+02  1.158474501E+02  0.000000000E+00  0.00000E+00  9.000E+00
      25     1     1     2     0     0 -1.205678377E+01  1.119290823E+02 -1.049095379E+01  1.685483480E+02  1.250000000E+02  0.00000E+00  9.000E+00
      25     1     1     2     0     0 -7.196591680E+00 -1.062751808E+02  2.463893860E+02  2.961062892E+02  1.250000000E+02  0.00000E+00  9.000E+00
      21     1     1     2   511   502  1.925337545E+01 -5.653901550E+00  6.704049189E+01  6.997918706E+01  9.536743164E-07  0.00000E+00  9.000E+00
#rwgt            1           1   4.1627374748476081E-002           6      443882           0
</event>
<event>
      5   9999  3.79277E-02  4.06222E+01 -1.00000E+00  1.44426E-01
      21    -1     0     0   502   501  0.000000000E+00  0.000000000E+00  3.868828333E+02  3.868828333E+02  0.000000000E+00  0.00000E+00  9.000E+00
      21    -1     0     0   512   502  0.000000000E+00  0.000000000E+00 -2.214024183E+02  2.214024183E+02  0.000000000E+00  0.00000E+00  9.000E+00
      25     1     1     2     0     0 -5.157809670E+01  1.555583093E+02  2.053872161E+02  2.909769685E+02  1.250000000E+02  0.00000E+00  9.000E+00
      25     1     1     2     0     0  1.263587539E+01 -1.439967585E+02  6.734556711E+01  2.026207226E+02  1.250000000E+02  0.00000E+00  9.000E+00
      21     1     1     2   512   501  3.894222131E+01 -1.156155085E+01 -1.072523682E+02  1.146875605E+02  0.000000000E+00  0.00000E+00  9.000E+00
#rwgt            1           1   3.2035067416145972E-002           6      444008           0
</event>
<event>
      5   9999  3.79277E-02  2.89631E+01 -1.00000E+00  1.54108E-01
      21    -1     0     0   502   501  0.000000000E+00  0.000000000E+00  8.760926736E+01  8.760926736E+01  0.000000000E+00  0.00000E+00  9.000E+00
      21    -1     0     0   501   511  0.000000000E+00  0.000000000E+00 -6.141927565E+02  6.141927565E+02  0.000000000E+00  0.00000E+00  9.000E+00
      25     1     1     2     0     0 -1.206415585E+02  6.338618816E+01 -3.346426201E+02  3.823386950E+02  1.250000000E+02  0.00000E+00  9.000E+00
      25     1     1     2     0     0  1.478740834E+02 -7.324774958E+01 -1.140380662E+02  2.363507096E+02  1.250000000E+02  0.00000E+00  9.000E+00
      21     1     1     2   502   511 -2.723252489E+01  9.861561418E+00 -7.790280277E+01  8.311261928E+01  0.000000000E+00  0.00000E+00  9.000E+00
#rwgt            1           1   2.4049111259320955E-002           6      444167           0
</event>
<event>
      5   9999  3.79277E-02  1.70884E+01 -1.00000E+00  1.72211E-01
      21    -1     0     0   502   501  0.000000000E+00  0.000000000E+00  6.948863172E+02  6.948863172E+02  0.000000000E+00  0.00000E+00  9.000E+00
      21    -1     0     0   512   502  0.000000000E+00  0.000000000E+00 -5.917037209E+01  5.917037209E+01  0.000000000E+00  0.00000E+00  9.000E+00
      25     1     1     2     0     0 -4.540683004E+01 -1.875123511E+01  5.725089959E+01  1.460001868E+02  1.250000000E+02  0.00000E+00  9.000E+00
      25     1     1     2     0     0  3.047574919E+01  2.706247865E+01  5.759716004E+02  5.907871304E+02  1.250000000E+02  0.00000E+00  9.000E+00
      21     1     1     2   512   501  1.493108085E+01 -8.311243542E+00  2.493445169E+00  1.726937212E+01  5.885487097E-07  0.00000E+00  9.000E+00
#rwgt            1           1   5.7846919944669707E-002           6      444318           0
</event>
<event>
      5   9999  3.79277E-02  2.17739E+01 -1.00000E+00  1.63381E-01
      21    -1     0     0   502   501  0.000000000E+00  0.000000000E+00  7.685664132E+02  7.685664132E+02  0.000000000E+00  0.00000E+00  9.000E+00
      21    -1     0     0   511   502  0.000000000E+00  0.000000000E+00 -2.234728107E+02  2.234728107E+02  0.000000000E+00  0.00000E+00  9.000E+00
      25     1     1     2     0     0 -2.239184588E+01  1.127047966E+02  3.075123321E+01  1.725526131E+02  1.250000000E+02  0.00000E+00  9.000E+00
      25     1     1     2     0     0  6.434755910E+00 -9.789020526E+01  6.566096076E+02  6.755627840E+02  1.250000000E+02  0.00000E+00  9.000E+00
      21     1     1     2   511   501  1.595708997E+01 -1.481459138E+01 -1.422672383E+02  1.439238269E+02  4.672030912E-06  0.00000E+00  9.000E+00
#rwgt            1           1   1.1140205211213117E-002           6      444619           0
</event>
<event>
      5   9999  3.79277E-02  1.82367E+02 -1.00000E+00  1.13127E-01
      21    -1     0     0   502   501  0.000000000E+00  0.000000000E+00  1.151616343E+03  1.151616343E+03  0.000000000E+00  0.00000E+00  9.000E+00
      21    -1     0     0   501   512  0.000000000E+00  0.000000000E+00 -7.640398435E+01  7.640398435E+01  0.000000000E+00  0.00000E+00  9.000E+00
      25     1     1     2     0     0  1.972009064E+02  6.921359121E+01  3.189440067E+02  4.012841862E+02  1.250000000E+02  0.00000E+00  9.000E+00
      25     1     1     2     0     0 -2.209993509E+01 -1.825020996E+01  4.710840991E+02  4.882281288E+02  1.250000000E+02  0.00000E+00  9.000E+00
      21     1     1     2   502   512 -1.751009713E+02 -5.096338125E+01  2.851842530E+02  3.385080125E+02  3.814697266E-06  0.00000E+00  9.000E+00
#rwgt            1           1   4.3764921593226445E-002           6      445026           0
</event>
<event>
      5   9999 -3.79277E-02  5.67946E+01 -1.00000E+00  1.35990E-01
      21    -1     0     0   511   501  0.000000000E+00  0.000000000E+00  2.373136004E+02  2.373136004E+02  0.000000000E+00  0.00000E+00  9.000E+00
      21    -1     0     0   501   502  0.000000000E+00  0.000000000E+00 -3.239907236E+02  3.239907236E+02  0.000000000E+00  0.00000E+00  9.000E+00
      25     1     1     2     0     0 -1.147468422E+02 -3.938856854E+01  6.006113720E+01  1.842569872E+02  1.250000000E+02  0.00000E+00  9.000E+00
      25     1     1     2     0     0  8.172343685E+01 -6.818369240E+00 -2.311649677E+02  2.752952099E+02  1.250000000E+02  0.00000E+00  9.000E+00
      21     1     1     2   511   502  3.302340536E+01  4.620693778E+01  8.442670735E+01  1.017521268E+02  0.000000000E+00  0.00000E+00  9.000E+00
#rwgt            1           1 -0.10485082490583814                6      445062           0
</event>
<event>
      5   9999  3.79277E-02  3.09786E+01 -1.00000E+00  1.52078E-01
       1    -1     0     0   502     0  0.000000000E+00  0.000000000E+00  6.732255493E+02  6.732255493E+02  0.000000000E+00  0.00000E+00  9.000E+00
      21    -1     0     0   501   502  0.000000000E+00  0.000000000E+00 -8.104616618E+01  8.104616618E+01  0.000000000E+00  0.00000E+00  9.000E+00
      25     1     1     2     0     0  5.060789940E+01 -2.393976280E+01  2.605640997E+01  1.394209748E+02  1.250000000E+02  0.00000E+00  9.000E+00
      25     1     1     2     0     0 -4.016383140E+01 -5.225234368E+00  1.577561752E+02  2.053106116E+02  1.250000000E+02  0.00000E+00  9.000E+00
       1     1     1     2   501     0 -1.044406800E+01  2.916499717E+01  4.083667980E+02  4.095401291E+02  5.394796609E-06  0.00000E+00  9.000E+00
#rwgt            1           1   7.3232973877733004E-002           6      445195           0
</event>
<event>
      5   9999  3.79277E-02  3.44560E+01 -1.00000E+00  1.48977E-01
      21    -1     0     0   502   501  0.000000000E+00  0.000000000E+00  1.035896672E+02  1.035896672E+02  0.000000000E+00  0.00000E+00  9.000E+00
      21    -1     0     0   511   502  0.000000000E+00  0.000000000E+00 -4.995147592E+02  4.995147592E+02  0.000000000E+00  0.00000E+00  9.000E+00
      25     1     1     2     0     0 -1.588075342E+02 -9.814245532E+00 -1.437409194E+02  2.481987193E+02  1.250000000E+02  0.00000E+00  9.000E+00
      25     1     1     2     0     0  1.326829712E+02 -1.265179279E+01 -1.207290340E+02  2.190099047E+02  1.250000000E+02  0.00000E+00  9.000E+00
      21     1     1     2   511   501  2.612456307E+01  2.246603832E+01 -1.314551385E+02  1.358958024E+02  0.000000000E+00  0.00000E+00  9.000E+00
#rwgt            1           1   2.9099273065586160E-002           6      445278           0
</event>
<event>
      5   9999  3.79277E-02  1.52889E+02 -1.00000E+00  1.16066E-01
      21    -1     0     0   502   512  0.000000000E+00  0.000000000E+00  5.375222765E+02  5.375222765E+02  0.000000000E+00  0.00000E+00  9.000E+00
      21    -1     0     0   501   502  0.000000000E+00  0.000000000E+00 -1.363395348E+03  1.363395348E+03  0.000000000E+00  0.00000E+00  9.000E+00
      25     1     1     2     0     0 -2.364818112E+02  1.590230337E+02 -7.587181524E+02  8.200550025E+02  1.250000000E+02  0.00000E+00  9.000E+00
      25     1     1     2     0     0  8.391782045E+01 -1.689911754E+02 -5.391468433E+02  5.847260355E+02  1.250000000E+02  0.00000E+00  9.000E+00
      21     1     1     2   501   512  1.525639908E+02  9.968141671E+00  4.719919247E+02  4.961365861E+02  5.394796609E-06  0.00000E+00  9.000E+00
#rwgt            1           1   3.6245288439407962E-002           6      445517           0
</event>
<event>
      5   9999  3.79277E-02  3.18053E+00 -1.00000E+00  2.89374E-01
      21    -1     0     0   502   501  0.000000000E+00  0.000000000E+00  2.882071978E+02  2.882071978E+02  0.000000000E+00  0.00000E+00  9.000E+00
      21    -1     0     0   501   511  0.000000000E+00  0.000000000E+00 -1.722544509E+02  1.722544509E+02  0.000000000E+00  0.00000E+00  9.000E+00
      25     1     1     2     0     0  3.501117846E+01 -1.126834311E+02 -3.537651167E+01  1.754988201E+02  1.250000000E+02  0.00000E+00  9.000E+00
      25     1     1     2     0     0 -3.722913381E+01  1.149629956E+02  1.834135684E+02  2.527212612E+02  1.250000000E+02  0.00000E+00  9.000E+00
      21     1     1     2   502   511  2.217955344E+00 -2.279564439E+00 -3.208430980E+01  3.224156751E+01  8.259061849E-07  0.00000E+00  9.000E+00
#rwgt            1           1   4.0480891488065350E-002           6      445584           0
</event>
<event>
      5   9999  3.79277E-02  4.00145E+01 -1.00000E+00  1.44830E-01
      21    -1     0     0   502   501  0.000000000E+00  0.000000000E+00  1.941909783E+02  1.941909783E+02  0.000000000E+00  0.00000E+00  9.000E+00
      21    -1     0     0   512   502  0.000000000E+00  0.000000000E+00 -7.312545076E+02  7.312545076E+02  0.000000000E+00  0.00000E+00  9.000E+00
      25     1     1     2     0     0  6.029020895E+01  1.121810804E+01 -2.013909164E+02  2.448347534E+02  1.250000000E+02  0.00000E+00  9.000E+00
      25     1     1     2     0     0 -9.169478360E+01  1.357933563E+01  1.363455112E+02  2.068995653E+02  1.250000000E+02  0.00000E+00  9.000E+00
      21     1     1     2   512   501  3.140457465E+01 -2.479744367E+01 -4.720181240E+02  4.737111672E+02  7.629394531E-06  0.00000E+00  9.000E+00
#rwgt            1           1   5.0145353554752470E-002           6      446015           0
</event>
<event>
      5   9999  3.79277E-02  5.67417E+01 -1.00000E+00  1.36012E-01
      21    -1     0     0   502   511  0.000000000E+00  0.000000000E+00  9.542009775E+01  9.542009775E+01  0.000000000E+00  0.00000E+00  9.000E+00
      21    -1     0     0   501   502  0.000000000E+00  0.000000000E+00 -4.648563685E+02  4.648563685E+02  0.000000000E+00  0.00000E+00  9.000E+00
      25     1     1     2     0     0  8.009335161E+01 -5.141877646E+01 -1.193411313E+02  1.972970886E+02  1.250000000E+02  0.00000E+00  9.000E+00
      25     1     1     2     0     0 -4.497587220E+01  9.598769313E+01 -2.580344635E+02  3.056848879E+02  1.250000000E+02  0.00000E+00  9.000E+00
      21     1     1     2   501   511 -3.511747941E+01 -4.456891667E+01  7.939324074E+00  5.729448978E+01  3.371747881E-07  0.00000E+00  9.000E+00
#rwgt            1           1   2.4750073848298280E-002           6      446141           0
</event>
<event>
      5   9999  3.79277E-02  1.80307E+01 -1.00000E+00  1.70171E-01
      21    -1     0     0   502   501  0.000000000E+00  0.000000000E+00  1.963407718E+02  1.963407718E+02  0.000000000E+00  0.00000E+00  9.000E+00
      21    -1     0     0   512   502  0.000000000E+00  0.000000000E+00 -4.888954022E+02  4.888954022E+02  0.000000000E+00  0.00000E+00  9.000E+00
      25     1     1     2     0     0 -1.829940874E+02 -9.947376321E+01  6.286872423E+01  2.509170024E+02  1.250000000E+02  0.00000E+00  9.000E+00
      25     1     1     2     0     0  1.727729589E+02  8.461997640E+01 -3.117585118E+02  3.870780353E+02  1.250000000E+02  0.00000E+00  9.000E+00
      21     1     1     2   512   501  1.022112856E+01  1.485378681E+01 -4.366484280E+01  4.724113619E+01  4.768371582E-07  0.00000E+00  9.000E+00
#rwgt            1           1   3.6451370710135267E-002           6      446221           0
</event>
<event>
      5   9999  3.79277E-02  1.89750E+01 -1.00000E+00  1.68277E-01
      21    -1     0     0   502   501  0.000000000E+00  0.000000000E+00  3.068715994E+02  3.068715994E+02  0.000000000E+00  0.00000E+00  9.000E+00
      21    -1     0     0   501   511  0.000000000E+00  0.000000000E+00 -1.607259309E+02  1.607259309E+02  0.000000000E+00  0.00000E+00  9.000E+00
      25     1     1     2     0     0  1.183274072E+02  1.510132000E+01  1.688079023E+02  2.415585499E+02  1.250000000E+02  0.00000E+00  9.000E+00
      25     1     1     2     0     0 -1.185577079E+02  3.872243935E+00  2.556695259E+01  1.742113471E+02  1.250000000E+02  0.00000E+00  9.000E+00
      21     1     1     2   502   511  2.303006673E-01 -1.897356393E+01 -4.822918629E+01  5.182763334E+01  6.743495762E-07  0.00000E+00  9.000E+00
#rwgt            1           1   3.1529610187880509E-002           6      446436           0
</event>
<event>
      5   9999  3.79277E-02  7.95030E+01 -1.00000E+00  1.28481E-01
      21    -1     0     0   512   501  0.000000000E+00  0.000000000E+00  3.065442910E+02  3.065442910E+02  0.000000000E+00  0.00000E+00  9.000E+00
      21    -1     0     0   501   502  0.000000000E+00  0.000000000E+00 -2.838037184E+02  2.838037184E+02  0.000000000E+00  0.00000E+00  9.000E+00
      25     1     1     2     0     0  2.080893080E+02 -2.707486085E+01  1.126719090E+02  2.689872995E+02  1.250000000E+02  0.00000E+00  9.000E+00
      25     1     1     2     0     0 -1.711880374E+02 -4.334548135E+01 -1.049275345E+02  2.404557389E+02  1.250000000E+02  0.00000E+00  9.000E+00
      21     1     1     2   512   502 -3.690127066E+01  7.042034221E+01  1.499619821E+01  8.090497101E+01  1.348699152E-06  0.00000E+00  9.000E+00
#rwgt            1           1   2.7487993678970302E-002           6      446597           0
</event>
<event>
      5   9999  3.79277E-02  8.01811E+01 -1.00000E+00  1.28302E-01
      21    -1     0     0   502   511  0.000000000E+00  0.000000000E+00  7.047297457E+01  7.047297457E+01  0.000000000E+00  0.00000E+00  9.000E+00
      21    -1     0     0   501   502  0.000000000E+00  0.000000000E+00 -9.124824800E+02  9.124824800E+02  0.000000000E+00  0.00000E+00  9.000E+00
      25     1     1     2     0     0 -1.158427219E+02  7.726343911E+01 -2.823456147E+02  3.387229272E+02  1.250000000E+02  0.00000E+00  9.000E+00
      25     1     1     2     0     0  1.761137203E+02 -2.438222368E+01 -4.970866592E+02  5.425225176E+02  1.250000000E+02  0.00000E+00  9.000E+00
      21     1     1     2   501   511 -6.027099842E+01 -5.288121543E+01 -6.257723148E+01  1.017100098E+02  9.536743164E-07  0.00000E+00  9.000E+00
#rwgt            1           1   1.4302684208489553E-002           6      446747           0
</event>
<event>
      5   9999  3.79277E-02  4.10957E+01 -1.00000E+00  1.44116E-01
      21    -1     0     0   502   512  0.000000000E+00  0.000000000E+00  2.406511812E+02  2.406511812E+02  0.000000000E+00  0.00000E+00  9.000E+00
      21    -1     0     0   501   502  0.000000000E+00  0.000000000E+00 -2.540004177E+02  2.540004177E+02  0.000000000E+00  0.00000E+00  9.000E+00
      25     1     1     2     0     0  5.392966318E+01  1.853399908E+02  1.269827125E+01  2.303162323E+02  1.250000000E+02  0.00000E+00  9.000E+00
      25     1     1     2     0     0 -1.563975333E+01 -1.704156479E+02 -4.864897042E+01  2.174346276E+02  1.250000000E+02  0.00000E+00  9.000E+00
      21     1     1     2   501   512 -3.828990985E+01 -1.492434289E+01  2.260146268E+01  4.690073904E+01  0.000000000E+00  0.00000E+00  9.000E+00
#rwgt            1           1   3.8069978788093629E-002           6      446875           0
</event>
<event>
      5   9999  3.79277E-02  7.31094E+01 -1.00000E+00  1.30272E-01
      21    -1     0     0   502   501  0.000000000E+00  0.000000000E+00  8.584443958E+02  8.584443958E+02  0.000000000E+00  0.00000E+00  9.000E+00
      21    -1     0     0   511   502  0.000000000E+00  0.000000000E+00 -1.125806773E+02  1.125806773E+02  0.000000000E+00  0.00000E+00  9.000E+00
      25     1     1     2     0     0  6.589256733E+01  2.701169781E+02  4.016223781E+02  5.042127992E+02  1.250000000E+02  0.00000E+00  9.000E+00
      25     1     1     2     0     0 -4.606313993E+01 -1.997480601E+02  2.854358187E+02  3.729875426E+02  1.250000000E+02  0.00000E+00  9.000E+00
      21     1     1     2   511   501 -1.982942740E+01 -7.036891793E+01  5.880552170E+01  9.382473120E+01  2.023048729E-06  0.00000E+00  9.000E+00
#rwgt            1           1  0.10405066502138126                6      447055           0
</event>
<event>
      5   9999  3.79277E-02  2.30151E+01 -1.00000E+00  1.61490E-01
      21    -1     0     0   502   501  0.000000000E+00  0.000000000E+00  4.763709871E+02  4.763709871E+02  0.000000000E+00  0.00000E+00  9.000E+00
      21    -1     0     0   512   502  0.000000000E+00  0.000000000E+00 -1.278584455E+02  1.278584455E+02  0.000000000E+00  0.00000E+00  9.000E+00
      25     1     1     2     0     0  4.640585029E+01 -1.341364744E+01  4.018329321E+02  4.235895823E+02  1.250000000E+02  0.00000E+00  9.000E+00
      25     1     1     2     0     0 -6.188559445E+01  3.044514637E+01 -6.252022907E+01  1.558541394E+02  1.250000000E+02  0.00000E+00  9.000E+00
      21     1     1     2   512   501  1.547974417E+01 -1.703149893E+01  9.199838509E+00  2.478571088E+01  3.153981341E-07  0.00000E+00  9.000E+00
#rwgt            1           1   5.0130638820375516E-002           6      447163           0
</event>
<event>
      5   9999  3.79277E-02  2.35802E+01 -1.00000E+00  1.60677E-01
      21    -1     0     0   502   501  0.000000000E+00  0.000000000E+00  1.776404268E+03  1.776404268E+03  0.000000000E+00  0.00000E+00  9.000E+00
      21    -1     0     0   501   511  0.000000000E+00  0.000000000E+00 -3.087748335E+01  3.087748335E+01  0.000000000E+00  0.00000E+00  9.000E+00
      25     1     1     2     0     0 -1.056540239E+02 -1.306181744E+02  9.541897860E+02  9.768966311E+02  1.250000000E+02  0.00000E+00  9.000E+00
      25     1     1     2     0     0  1.068896367E+02  1.541659300E+02  7.455154067E+02  7.788522004E+02  1.250000000E+02  0.00000E+00  9.000E+00
      21     1     1     2   502   511 -1.235612790E+00 -2.354775562E+01  4.582159181E+01  5.153291967E+01  6.743495762E-07  0.00000E+00  9.000E+00
#rwgt            1           1   4.1373545762650454E-002           6      447374           0
</event>
<event>
      5   9999 -3.79277E-02  1.51515E+02 -1.00000E+00  1.16221E-01
      21    -1     0     0   502   501  0.000000000E+00  0.000000000E+00  4.005647392E+02  4.005647392E+02  0.000000000E+00  0.00000E+00  9.000E+00
      21    -1     0     0   512   502  0.000000000E+00  0.000000000E+00 -9.925091999E+02  9.925091999E+02  0.000000000E+00  0.00000E+00  9.000E+00
      25     1     1     2     0     0  1.874963263E+02  2.457686769E+02 -3.063267642E+02  4.527893565E+02  1.250000000E+02  0.00000E+00  9.000E+00
      25     1     1     2     0     0 -1.672522495E+02 -3.959247310E+02  1.555156658E+02  4.738563389E+02  1.250000000E+02  0.00000E+00  9.000E+00
      21     1     1     2   512   501 -2.024407673E+01  1.501560541E+02 -4.411333623E+02  4.664282438E+02  0.000000000E+00  0.00000E+00  9.000E+00
#rwgt            1           1  -2.1532237239972843E-002           6      447522           0
</event>
<event>
      5   9999  3.79277E-02  2.19028E+01 -1.00000E+00  1.63177E-01
      21    -1     0     0   502   501  0.000000000E+00  0.000000000E+00  1.241227800E+03  1.241227800E+03  0.000000000E+00  0.00000E+00  9.000E+00
      21    -1     0     0   511   502  0.000000000E+00  0.000000000E+00 -1.619900103E+02  1.619900103E+02  0.000000000E+00  0.00000E+00  9.000E+00
      25     1     1     2     0     0 -2.257062023E+02 -1.385437289E+02  7.351538009E+02  7.913366954E+02  1.250000000E+02  0.00000E+00  9.000E+00
      25     1     1     2     0     0  2.338611668E+02  1.588717232E+02  4.264217480E+02  5.266799568E+02  1.250000000E+02  0.00000E+00  9.000E+00
      21     1     1     2   511   501 -8.154964509E+00 -2.032799427E+01 -8.233775905E+01  8.520115822E+01  1.651812370E-06  0.00000E+00  9.000E+00
#rwgt            1           1   3.7786622835743459E-002           6      447631           0
</event>
<event>
      5   9999  3.79277E-02  3.41182E+01 -1.00000E+00  1.49258E-01
      21    -1     0     0   502   501  0.000000000E+00  0.000000000E+00  3.280115789E+01  3.280115789E+01  0.000000000E+00  0.00000E+00  9.000E+00
      21    -1     0     0   512   502  0.000000000E+00  0.000000000E+00 -1.826026767E+03  1.826026767E+03  0.000000000E+00  0.00000E+00  9.000E+00
      25     1     1     2     0     0  3.853315384E-01  1.345555000E+02 -3.325538918E+02  3.798979100E+02  1.250000000E+02  0.00000E+00  9.000E+00
      25     1     1     2     0     0  3.255777606E+01 -1.434324329E+02 -1.327383741E+03  1.341344649E+03  1.250000000E+02  0.00000E+00  9.000E+00
      21     1     1     2   512   501 -3.294310760E+01  8.876932971E+00 -1.332879764E+02  1.375853660E+02  2.697398305E-06  0.00000E+00  9.000E+00
#rwgt            1           1   3.7658829350375948E-002           6      447850           0
</event>
<event>
      5   9999  3.79277E-02  1.05173E+02 -1.00000E+00  1.22851E-01
      21    -1     0     0   502   501  0.000000000E+00  0.000000000E+00  1.437545884E+02  1.437545884E+02  0.000000000E+00  0.00000E+00  9.000E+00
      21    -1     0     0   511   502  0.000000000E+00  0.000000000E+00 -5.733654361E+02  5.733654361E+02  0.000000000E+00  0.00000E+00  9.000E+00
      25     1     1     2     0     0 -9.011895267E+01  1.009867720E+01  1.897833873E+01  1.555910867E+02  1.250000000E+02  0.00000E+00  9.000E+00
      25     1     1     2     0     0  1.460814182E+02 -9.914643750E+01 -2.132610042E+02  3.037680904E+02  1.250000000E+02  0.00000E+00  9.000E+00
      21     1     1     2   511   501 -5.596246555E+01  8.904776030E+01 -2.353281822E+02  2.577608475E+02  4.672030912E-06  0.00000E+00  9.000E+00
#rwgt            1           1   4.2560693268931089E-002           6      447996           0
</event>
<event>
      5   9999  3.79277E-02  6.74476E+01 -1.00000E+00  1.32043E-01
      21    -1     0     0   502   501  0.000000000E+00  0.000000000E+00  3.063880881E+02  3.063880881E+02  0.000000000E+00  0.00000E+00  9.000E+00
       2    -1     0     0   501     0  0.000000000E+00  0.000000000E+00 -3.645240702E+02  3.645240702E+02  0.000000000E+00  0.00000E+00  9.000E+00
      25     1     1     2     0     0 -1.571033585E+02 -1.942414695E+02  1.369549033E+02  3.111155079E+02  1.250000000E+02  0.00000E+00  9.000E+00
      25     1     1     2     0     0  9.217365353E+01  1.759845060E+02 -1.467769983E+02  2.768303018E+02  1.250000000E+02  0.00000E+00  9.000E+00
       2     1     1     2   502     0  6.492970501E+01  1.825696344E+01 -4.831388713E+01  8.296634858E+01  1.651812370E-06  0.00000E+00  9.000E+00
#rwgt            1           1   2.8681445827388692E-002           6      448210           0
</event>
<event>
      5   9999  3.79277E-02  2.00782E+01 -1.00000E+00  1.66229E-01
      21    -1     0     0   511   501  0.000000000E+00  0.000000000E+00  1.005165539E+02  1.005165539E+02  0.000000000E+00  0.00000E+00  9.000E+00
      21    -1     0     0   501   502  0.000000000E+00  0.000000000E+00 -5.065920346E+02  5.065920346E+02  0.000000000E+00  0.00000E+00  9.000E+00
      25     1     1     2     0     0 -9.752605981E+00 -1.131516522E+02 -3.814636738E+02  4.171785519E+02  1.250000000E+02  0.00000E+00  9.000E+00
      25     1     1     2     0     0 -9.759940515E+00  1.084193779E+02 -3.146214477E+01  1.687153950E+02  1.250000000E+02  0.00000E+00  9.000E+00
      21     1     1     2   511   502  1.951254650E+01  4.732274237E+00  6.850337924E+00  2.121464164E+01  3.153981341E-07  0.00000E+00  9.000E+00
#rwgt            1           1   2.7976577243642359E-002           6      448426           0
</event>
<event>
      5   9999  3.79277E-02  2.77608E+01 -1.00000E+00  1.55417E-01
      21    -1     0     0   512   501  0.000000000E+00  0.000000000E+00  4.342554592E+02  4.342554592E+02  0.000000000E+00  0.00000E+00  9.000E+00
      21    -1     0     0   501   502  0.000000000E+00  0.000000000E+00 -1.239195203E+02  1.239195203E+02  0.000000000E+00  0.00000E+00  9.000E+00
      25     1     1     2     0     0 -2.239046405E+01 -6.815385935E+01  1.877077653E+02  2.366547835E+02  1.250000000E+02  0.00000E+00  9.000E+00
      25     1     1     2     0     0  4.159477825E+00  4.721838483E+01 -5.292851789E+01  1.437821447E+02  1.250000000E+02  0.00000E+00  9.000E+00
      21     1     1     2   512   502  1.823098623E+01  2.093547451E+01  1.755566915E+02  1.777380513E+02  0.000000000E+00  0.00000E+00  9.000E+00
#rwgt            1           1   3.9592702962853721E-002           6      448603           0
</event>
<event>
      5   9999  3.79277E-02  4.02798E+00 -1.00000E+00  2.62759E-01
      21    -1     0     0   511   501  0.000000000E+00  0.000000000E+00  1.203214228E+02  1.203214228E+02  0.000000000E+00  0.00000E+00  9.000E+00
      21    -1     0     0   501   502  0.000000000E+00  0.000000000E+00 -3.260408242E+02  3.260408242E+02  0.000000000E+00  0.00000E+00  9.000E+00
      25     1     1     2     0     0 -9.454881500E+01 -5.795611766E+01  2.182885365E+00  1.671171894E+02  1.250000000E+02  0.00000E+00  9.000E+00
      25     1     1     2     0     0  9.247131393E+01  6.140700464E+01 -2.142340484E+02  2.717406698E+02  1.250000000E+02  0.00000E+00  9.000E+00
      21     1     1     2   511   502  2.077501063E+00 -3.450886980E+00  6.331761618E+00  7.504387837E+00  8.429369702E-08  0.00000E+00  9.000E+00
#rwgt            1           1   3.7952293726893079E-002           6      448853           0
</event>
<event>
      5   9999  3.79277E-02  2.13791E+02 -1.00000E+00  1.10604E-01
      21    -1     0     0   502   512  0.000000000E+00  0.000000000E+00  2.264843311E+02  2.264843311E+02  0.000000000E+00  0.00000E+00  9.000E+00
      21    -1     0     0   501   502  0.000000000E+00  0.000000000E+00 -1.992154723E+03  1.992154723E+03  0.000000000E+00  0.00000E+00  9.000E+00
      25     1     1     2     0     0 -1.948570264E+02  8.736161114E+01 -1.709819415E+03  1.727630963E+03  1.250000000E+02  0.00000E+00  9.000E+00
      25     1     1     2     0     0  1.553330417E+01  2.904028360E+01 -1.964240171E+02  2.351425442E+02  1.250000000E+02  0.00000E+00  9.000E+00
      21     1     1     2   501   512  1.793237222E+02 -1.164018947E+02  1.405730402E+02  2.558655469E+02  5.046370146E-06  0.00000E+00  9.000E+00
#rwgt            1           1   4.9196731437988375E-002           6      449415           0
</event>
<event>
      5   9999  3.79277E-02  5.19812E+01 -1.00000E+00  1.38119E-01
       1    -1     0     0   502     0  0.000000000E+00  0.000000000E+00  2.001639660E+03  2.001639660E+03  0.000000000E+00  0.00000E+00  9.000E+00
      21    -1     0     0   501   502  0.000000000E+00  0.000000000E+00 -1.011248891E+02  1.011248891E+02  0.000000000E+00  0.00000E+00  9.000E+00
      25     1     1     2     0     0 -8.394754347E+01  9.671153040E+01  1.985499691E+02  2.672964654E+02  1.250000000E+02  0.00000E+00  9.000E+00
      25     1     1     2     0     0  3.226815435E+01 -1.023047030E+02  3.589185660E+01  1.685844341E+02  1.250000000E+02  0.00000E+00  9.000E+00
       1     1     1     2   501     0  5.167938913E+01  5.593172610E+00  1.666072945E+03  1.666883649E+03  3.051757812E-05  0.00000E+00  9.000E+00
#rwgt            1           1   3.8196136054774801E-002           6      449453           0
</event>
<event>
      5   9999 -3.79277E-02  2.08551E+01 -1.00000E+00  1.64883E-01
      21    -1     0     0   502   511  0.000000000E+00  0.000000000E+00  3.155670199E+02  3.155670199E+02  0.000000000E+00  0.00000E+00  9.000E+00
      21    -1     0     0   501   502  0.000000000E+00  0.000000000E+00 -4.955555878E+02  4.955555878E+02  0.000000000E+00  0.00000E+00  9.000E+00
      25     1     1     2     0     0  2.947812793E+02  1.465496400E+02 -2.589322479E+02  4.370854706E+02  1.250000000E+02  0.00000E+00  9.000E+00
      25     1     1     2     0     0 -2.786152864E+02 -1.597252292E+02  7.677621312E+01  3.530697008E+02  1.250000000E+02  0.00000E+00  9.000E+00
      21     1     1     2   501   511 -1.616599285E+01  1.317558919E+01  2.167466812E+00  2.096743637E+01  5.322864979E-07  0.00000E+00  9.000E+00
#rwgt            1           1  -1.5967344876753654E-002           6      449537           0
</event>
<event>
      5   9999  3.79277E-02  5.73647E+01 -1.00000E+00  1.35754E-01
      21    -1     0     0   502   501  0.000000000E+00  0.000000000E+00  3.258173318E+02  3.258173318E+02  0.000000000E+00  0.00000E+00  9.000E+00
      -2    -1     0     0     0   502  0.000000000E+00  0.000000000E+00 -2.424802536E+02  2.424802536E+02  0.000000000E+00  0.00000E+00  9.000E+00
      25     1     1     2     0     0  3.152261382E+01 -1.009198560E+02  2.265928935E+02  2.795493372E+02  1.250000000E+02  0.00000E+00  9.000E+00
      25     1     1     2     0     0  2.569739494E+01  9.684813006E+01 -3.170221068E+01  1.633093585E+02  1.250000000E+02  0.00000E+00  9.000E+00
      -2     1     1     2     0   501 -5.722000875E+01  4.071725913E+00 -1.115536046E+02  1.254388897E+02  0.000000000E+00  0.00000E+00  9.000E+00
#rwgt            1           1   3.5661885460918585E-002           6      449807           0
</event>
<event>
      5   9999  3.79277E-02  1.65615E+01 -1.00000E+00  1.73425E-01
      21    -1     0     0   502   511  0.000000000E+00  0.000000000E+00  2.133297471E+02  2.133297471E+02  0.000000000E+00  0.00000E+00  9.000E+00
      21    -1     0     0   501   502  0.000000000E+00  0.000000000E+00 -1.588735003E+02  1.588735003E+02  0.000000000E+00  0.00000E+00  9.000E+00
      25     1     1     2     0     0  1.015454994E+02  3.666559953E+01 -1.574659704E+01  1.659180821E+02  1.250000000E+02  0.00000E+00  9.000E+00
      25     1     1     2     0     0 -1.025629519E+02 -5.319580242E+01  4.489221933E+01  1.760376774E+02  1.250000000E+02  0.00000E+00  9.000E+00
      21     1     1     2   501   511  1.017452477E+00  1.653020289E+01  2.531062453E+01  3.024748801E+01  0.000000000E+00  0.00000E+00  9.000E+00
#rwgt            1           1   3.4454986194515827E-002           6      450090           0
</event>
<event>
      5   9999  3.79277E-02  4.63945E+01 -1.00000E+00  1.40956E-01
      21    -1     0     0   502   512  0.000000000E+00  0.000000000E+00  2.297499085E+02  2.297499085E+02  0.000000000E+00  0.00000E+00  9.000E+00
      21    -1     0     0   501   502  0.000000000E+00  0.000000000E+00 -3.885537558E+02  3.885537558E+02  0.000000000E+00  0.00000E+00  9.000E+00
      25     1     1     2     0     0 -1.647492132E+02 -1.481707922E+02 -8.848237441E+01  2.693529608E+02  1.250000000E+02  0.00000E+00  9.000E+00
      25     1     1     2     0     0  1.719808641E+02  1.023433611E+02 -1.330840196E+02  2.709020810E+02  1.250000000E+02  0.00000E+00  9.000E+00
      21     1     1     2   501   512 -7.231650897E+00  4.582743108E+01  6.276254669E+01  7.804862254E+01  0.000000000E+00  0.00000E+00  9.000E+00
#rwgt            1           1   3.2402629363046588E-002           6      450240           0
</event>
<event>
      5   9999  3.79277E-02  4.84668E+01 -1.00000E+00  1.39852E-01
      21    -1     0     0   511   501  0.000000000E+00  0.000000000E+00  1.017455185E+02  1.017455185E+02  0.000000000E+00  0.00000E+00  9.000E+00
      21    -1     0     0   501   502  0.000000000E+00  0.000000000E+00 -9.054140404E+02  9.054140404E+02  0.000000000E+00  0.00000E+00  9.000E+00
      25     1     1     2     0     0  8.298125136E+01 -1.007581830E+01 -1.889409106E+02  2.414768682E+02  1.250000000E+02  0.00000E+00  9.000E+00
      25     1     1     2     0     0 -3.970555367E+01  3.189879776E+01 -6.749871238E+02  6.883506966E+02  1.250000000E+02  0.00000E+00  9.000E+00
      21     1     1     2   511   502 -4.327569769E+01 -2.182297946E+01  6.025951249E+01  7.733199395E+01  1.784161275E-06  0.00000E+00  9.000E+00
#rwgt            1           1   4.7067343867156865E-002           6      450368           0
</event>
<event>
      5   9999  3.79277E-02  4.27057E+01 -1.00000E+00  1.43099E-01
       2    -1     0     0   502     0  0.000000000E+00  0.000000000E+00  4.273372844E+02  4.273372844E+02  0.000000000E+00  0.00000E+00  9.000E+00
      21    -1     0     0   501   502  0.000000000E+00  0.000000000E+00 -9.613660788E+01  9.613660788E+01  0.000000000E+00  0.00000E+00  9.000E+00
      25     1     1     2     0     0 -9.113444564E+01 -4.708268281E+01  4.668028002E+01  1.683042327E+02  1.250000000E+02  0.00000E+00  9.000E+00
      25     1     1     2     0     0  9.382519317E+01  4.461859451E+00  2.661490480E+02  3.086800785E+02  1.250000000E+02  0.00000E+00  9.000E+00
       2     1     1     2   501     0 -2.690747531E+00  4.262082336E+01  1.837134842E+01  4.648958108E+01  2.384185791E-07  0.00000E+00  9.000E+00
#rwgt            1           1   4.4007170125484690E-002           6      450551           0
</event>
<event>
      5   9999  3.79277E-02  1.59822E+02 -1.00000E+00  1.15312E-01
       2    -1     0     0   502     0  0.000000000E+00  0.000000000E+00  5.457820372E+02  5.457820372E+02  0.000000000E+00  0.00000E+00  9.000E+00
      21    -1     0     0   501   502  0.000000000E+00  0.000000000E+00 -4.883052989E+02  4.883052989E+02  0.000000000E+00  0.00000E+00  9.000E+00
      25     1     1     2     0     0 -1.751410120E+02 -2.564055177E+02 -1.173585377E+02  3.547057794E+02  1.250000000E+02  0.00000E+00  9.000E+00
      25     1     1     2     0     0  2.703091540E+02  1.280073350E+02 -1.186594342E+02  3.451926677E+02  1.250000000E+02  0.00000E+00  9.000E+00
       2     1     1     2   501     0 -9.516814201E+01  1.283981828E+02  2.934947101E+02  3.341888889E+02  3.814697266E-06  0.00000E+00  9.000E+00
#rwgt            1           1   3.2139128806879566E-002           6      450656           0
</event>
<event>
      5   9999 -3.79277E-02  6.47691E+01 -1.00000E+00  1.32952E-01
      21    -1     0     0   511   501  0.000000000E+00  0.000000000E+00  4.060877599E+02  4.060877599E+02  0.000000000E+00  0.00000E+00  9.000E+00
      21    -1     0     0   501   502  0.000000000E+00  0.000000000E+00 -4.050904958E+02  4.050904958E+02  0.000000000E+00  0.00000E+00  9.000E+00
      25     1     1     2     0     0  1.220216985E+02  6.698272597E+01 -2.590834153E+02  3.195703312E+02  1.250000000E+02  0.00000E+00  9.000E+00
      25     1     1     2     0     0 -1.180879468E+02 -1.316322351E+02 -7.115615508E+00  2.166735805E+02  1.250000000E+02  0.00000E+00  9.000E+00
      21     1     1     2   511   502 -3.933751689E+00  6.464950916E+01  2.671962950E+02  2.749343440E+02  3.814697266E-06  0.00000E+00  9.000E+00
#rwgt            1           1 -0.12209260586408753                6      450710           0
</event>
<event>
      5   9999  3.79277E-02  7.25880E+01 -1.00000E+00  1.30427E-01
      21    -1     0     0   512   501  0.000000000E+00  0.000000000E+00  4.426601061E+02  4.426601061E+02  0.000000000E+00  0.00000E+00  9.000E+00
      21    -1     0     0   501   502  0.000000000E+00  0.000000000E+00 -2.675700592E+02  2.675700592E+02  0.000000000E+00  0.00000E+00  9.000E+00
      25     1     1     2     0     0 -1.031300978E+02 -9.768823805E+01  1.671513119E+02  2.524744937E+02  1.250000000E+02  0.00000E+00  9.000E+00
      25     1     1     2     0     0  1.757044163E+02  9.627968164E+01 -1.528780756E+02  2.813157035E+02  1.250000000E+02  0.00000E+00  9.000E+00
      21     1     1     2   512   502 -7.257431849E+01  1.408556413E+00  1.608168107E+02  1.764399681E+02  0.000000000E+00  0.00000E+00  9.000E+00
#rwgt            1           1   4.5868277167859919E-002           6      450760           0
</event>
<event>
      5   9999  3.79277E-02  9.73994E+01 -1.00000E+00  1.24345E-01
      21    -1     0     0   511   501  0.000000000E+00  0.000000000E+00  3.624119947E+03  3.624119947E+03  0.000000000E+00  0.00000E+00  9.000E+00
      21    -1     0     0   501   502  0.000000000E+00  0.000000000E+00 -2.039419496E+02  2.039419496E+02  0.000000000E+00  0.00000E+00  9.000E+00
      25     1     1     2     0     0 -7.926074589E+01 -1.487895400E+02  2.588693865E+02  3.332550859E+02  1.250000000E+02  0.00000E+00  9.000E+00
      25     1     1     2     0     0  9.568055989E+01  5.278419978E+01 -1.245193722E+02  2.075355761E+02  1.250000000E+02  0.00000E+00  9.000E+00
      21     1     1     2   511   502 -1.641981400E+01  9.600534024E+01  3.285827983E+03  3.287271234E+03  0.000000000E+00  0.00000E+00  9.000E+00
#rwgt            1           1   3.8501305156125695E-002           6      450929           0
</event>
<event>
      5   9999  3.79277E-02  1.54358E+02 -1.00000E+00  1.15903E-01
      21    -1     0     0   502   501  0.000000000E+00  0.000000000E+00  2.812862904E+02  2.812862904E+02  0.000000000E+00  0.00000E+00  9.000E+00
      21    -1     0     0   512   502  0.000000000E+00  0.000000000E+00 -2.935460781E+02  2.935460781E+02  0.000000000E+00  0.00000E+00  9.000E+00
      25     1     1     2     0     0 -7.925495219E+01 -2.059813821E+02  5.386894220E+01  2.593000967E+02  1.250000000E+02  0.00000E+00  9.000E+00
      25     1     1     2     0     0  7.289453275E+01  5.175443257E+01 -4.186312968E+01  1.592785479E+02  1.250000000E+02  0.00000E+00  9.000E+00
      21     1     1     2   512   501  6.360419442E+00  1.542269495E+02 -2.426560020E+01  1.562537239E+02  2.780414531E-06  0.00000E+00  9.000E+00
#rwgt            1           1   3.8557194846438235E-002           6      450995           0
</event>
<event>
      5   9999  4.18944E-02  9.81659E+01 -1.00000E+00  1.24191E-01
      21    -1     0     0   502   501  0.000000000E+00  0.000000000E+00  4.724779377E+02  4.724779377E+02  0.000000000E+00  0.00000E+00  9.000E+00
       1    -1     0     0   501     0  0.000000000E+00  0.000000000E+00 -1.833644892E+02  1.833644892E+02  0.000000000E+00  0.00000E+00  9.000E+00
      25     1     1     2     0     0  1.805886338E+02  2.545163766E+01  4.541497717E+01  2.257156633E+02  1.250000000E+02  0.00000E+00  9.000E+00
      25     1     1     2     0     0 -1.836893963E+02 -1.235685760E+02  1.958201854E+02  3.209073579E+02  1.250000000E+02  0.00000E+00  9.000E+00
       1     1     1     2   502     0  3.100762532E+00  9.811693838E+01  4.787828589E+01  1.092194057E+02  6.743495762E-07  0.00000E+00  9.000E+00
#rwgt            1           1  0.30431931040910398                6      451068           0
</event>
<event>
      5   9999  3.79277E-02  1.57052E+02 -1.00000E+00  1.15608E-01
      21    -1     0     0   502   501  0.000000000E+00  0.000000000E+00  2.010966803E+02  2.010966803E+02  0.000000000E+00  0.00000E+00  9.000E+00
      21    -1     0     0   511   502  0.000000000E+00  0.000000000E+00 -4.326600329E+02  4.326600329E+02  0.000000000E+00  0.00000E+00  9.000E+00
      25     1     1     2     0     0  4.755027861E+01  3.562820914E+01  4.946454990E+01  1.469766647E+02  1.250000000E+02  0.00000E+00  9.000E+00
      25     1     1     2     0     0 -2.772257902E+00 -1.861613440E+02 -9.559547473E+01  2.437770010E+02  1.250000000E+02  0.00000E+00  9.000E+00
      21     1     1     2   511   501 -4.477802070E+01  1.505331349E+02 -1.854324277E+02  2.430030475E+02  0.000000000E+00  0.00000E+00  9.000E+00
#rwgt            2          11   1.8389746424737157E-003           6      451157           0
</event>
<event>
      5   9999  3.79277E-02  2.48760E+01 -1.00000E+00  1.58913E-01
      21    -1     0     0   502   501  0.000000000E+00  0.000000000E+00  6.095148285E+02  6.095148285E+02  0.000000000E+00  0.00000E+00  9.000E+00
      21    -1     0     0   501   512  0.000000000E+00  0.000000000E+00 -7.283727581E+01  7.283727581E+01  0.000000000E+00  0.00000E+00  9.000E+00
      25     1     1     2     0     0  8.976923657E+01  3.398879122E+01  4.090406706E+02  4.383526251E+02  1.250000000E+02  0.00000E+00  9.000E+00
      25     1     1     2     0     0 -1.010014520E+02 -5.618460810E+01  1.358494652E+02  2.178028482E+02  1.250000000E+02  0.00000E+00  9.000E+00
      21     1     1     2   502   512  1.123221546E+01  2.219581688E+01 -8.212583111E+00  2.619663094E+01  5.591411304E-07  0.00000E+00  9.000E+00
#rwgt            1           1   4.9508921129093081E-002           6      451177           0
</event>
<event>
      5   9999  3.79277E-02  1.03643E+02 -1.00000E+00  1.23133E-01
      21    -1     0     0   502   511  0.000000000E+00  0.000000000E+00  5.669759997E+02  5.669759997E+02  0.000000000E+00  0.00000E+00  9.000E+00
      21    -1     0     0   501   502  0.000000000E+00  0.000000000E+00 -5.500911260E+02  5.500911260E+02  0.000000000E+00  0.00000E+00  9.000E+00
      25     1     1     2     0     0 -4.455144631E+01  7.442595297E+01 -7.893098708E+01  1.714034847E+02  1.250000000E+02  0.00000E+00  9.000E+00
      25     1     1     2     0     0  1.316072000E+02 -1.818400759E+01 -3.997348844E+02  4.393905905E+02  1.250000000E+02  0.00000E+00  9.000E+00
      21     1     1     2   501   511 -8.705575373E+01 -5.624194538E+01  4.955507451E+02  5.062730505E+02  0.000000000E+00  0.00000E+00  9.000E+00
#rwgt            1           1   4.0953503557792169E-002           6      451338           0
</event>
<event>
      5   9999  3.79277E-02  6.37571E+01 -1.00000E+00  1.33309E-01
      21    -1     0     0   512   501  0.000000000E+00  0.000000000E+00  1.924837360E+03  1.924837360E+03  0.000000000E+00  0.00000E+00  9.000E+00
      21    -1     0     0   501   502  0.000000000E+00  0.000000000E+00 -7.853623230E+01  7.853623230E+01  0.000000000E+00  0.00000E+00  9.000E+00
      25     1     1     2     0     0  5.115007374E+01 -1.696491879E+02  6.917464329E+02  7.249381384E+02  1.250000000E+02  0.00000E+00  9.000E+00
      25     1     1     2     0     0 -5.338465272E+01  2.333671203E+02  2.389088391E+02  3.605725549E+02  1.250000000E+02  0.00000E+00  9.000E+00
      21     1     1     2   512   502  2.234578976E+00 -6.371793240E+01  9.156458553E+02  9.178628986E+02  1.525878906E-05  0.00000E+00  9.000E+00
#rwgt            1           1   3.2251449512443464E-002           6      451473           0
</event>
<event>
      5   9999  3.79277E-02  9.46622E+01 -1.00000E+00  1.24909E-01
      21    -1     0     0   502   501  0.000000000E+00  0.000000000E+00  1.720143328E+02  1.720143328E+02  0.000000000E+00  0.00000E+00  9.000E+00
      21    -1     0     0   501   511  0.000000000E+00  0.000000000E+00 -7.174187041E+02  7.174187041E+02  0.000000000E+00  0.00000E+00  9.000E+00
      25     1     1     2     0     0 -1.500876465E+02  1.318563079E+02 -1.780088177E+01  2.363350565E+02  1.250000000E+02  0.00000E+00  9.000E+00
      25     1     1     2     0     0  6.878270654E+01 -8.337496499E+01 -5.968138591E+01  1.756966514E+02  1.250000000E+02  0.00000E+00  9.000E+00
      21     1     1     2   502   511  8.130493993E+01 -4.848134290E+01 -4.679221036E+02  4.774013290E+02  5.394796609E-06  0.00000E+00  9.000E+00
#rwgt            1           1   3.5781513916837641E-002           6      451676           0
</event>
<event>
      5   9999  3.79277E-02  7.76255E+00 -1.00000E+00  2.09396E-01
      21    -1     0     0   502   501  0.000000000E+00  0.000000000E+00  1.314989991E+03  1.314989991E+03  0.000000000E+00  0.00000E+00  9.000E+00
      21    -1     0     0   512   502  0.000000000E+00  0.000000000E+00 -6.605807865E+01  6.605807865E+01  0.000000000E+00  0.00000E+00  9.000E+00
      25     1     1     2     0     0  3.963954935E+01 -2.250092206E+02  8.147457573E+02  8.553572893E+02  1.250000000E+02  0.00000E+00  9.000E+00
      25     1     1     2     0     0 -4.484938539E+01  2.192546731E+02  4.442984117E+02  5.129426456E+02  1.250000000E+02  0.00000E+00  9.000E+00
      21     1     1     2   512   501  5.209836042E+00  5.754547541E+00 -1.011225660E+01  1.274813487E+01  5.840038640E-07  0.00000E+00  9.000E+00
#rwgt            1           1   5.0989904553662466E-002           6      451757           0
</event>
<event>
      5   9999  3.79277E-02  1.33941E+02 -1.00000E+00  1.18377E-01
      21    -1     0     0   502   501  0.000000000E+00  0.000000000E+00  3.465020370E+02  3.465020370E+02  0.000000000E+00  0.00000E+00  9.000E+00
      21    -1     0     0   501   511  0.000000000E+00  0.000000000E+00 -5.039616150E+02  5.039616150E+02  0.000000000E+00  0.00000E+00  9.000E+00
      25     1     1     2     0     0  6.949276503E+01  1.699203376E+02 -3.292661630E+00  2.221216044E+02  1.250000000E+02  0.00000E+00  9.000E+00
      25     1     1     2     0     0  6.146939990E+01 -1.418300059E+02  1.800961240E+02  2.682421510E+02  1.250000000E+02  0.00000E+00  9.000E+00
      21     1     1     2   502   511 -1.309621649E+02 -2.809033178E+01 -3.342630403E+02  3.600998966E+02  6.607249480E-06  0.00000E+00  9.000E+00
#rwgt            1           1   3.2319909900744306E-002           6      452084           0
</event>
<event>
      5   9999  3.79277E-02  8.23818E+01 -1.00000E+00  1.27736E-01
      21    -1     0     0   502   501  0.000000000E+00  0.000000000E+00  3.378684399E+02  3.378684399E+02  0.000000000E+00  0.00000E+00  9.000E+00
      21    -1     0     0   512   502  0.000000000E+00  0.000000000E+00 -4.766076702E+02  4.766076702E+02  0.000000000E+00  0.00000E+00  9.000E+00
      25     1     1     2     0     0 -1.066844928E+02  3.061071903E+02 -3.542213715E+01  3.492319011E+02  1.250000000E+02  0.00000E+00  9.000E+00
      25     1     1     2     0     0  1.830321227E+02 -2.751588715E+02 -2.937139224E+01  3.545431443E+02  1.250000000E+02  0.00000E+00  9.000E+00
      21     1     1     2   512   501 -7.634762987E+01 -3.094831883E+01 -7.394570098E+01  1.107010647E+02  9.536743164E-07  0.00000E+00  9.000E+00
#rwgt            1           1   3.6955514985823758E-002           6      452132           0
</event>
<event>
      5   9999  3.79277E-02  2.06615E+02 -1.00000E+00  1.11136E-01
      -1    -1     0     0     0   501  0.000000000E+00  0.000000000E+00  3.766030038E+02  3.766030038E+02  0.000000000E+00  0.00000E+00  9.000E+00
      21    -1     0     0   501   502  0.000000000E+00  0.000000000E+00 -4.178868700E+02  4.178868700E+02  0.000000000E+00  0.00000E+00  9.000E+00
      25     1     1     2     0     0 -1.164693150E+02 -5.242943477E+01 -1.769586512E+02  2.515021097E+02  1.250000000E+02  0.00000E+00  9.000E+00
      25     1     1     2     0     0 -3.853353194E+01  1.890451597E+02 -8.086054553E+01  2.436931130E+02  1.250000000E+02  0.00000E+00  9.000E+00
      -1     1     1     2     0   502  1.550028469E+02 -1.366157250E+02  2.165353305E+02  2.992946511E+02  4.672030912E-06  0.00000E+00  9.000E+00
#rwgt            1           1   2.4782544642249799E-002           6      452263           0
</event>
<event>
      5   9999  3.79277E-02  1.34025E+02 -1.00000E+00  1.18365E-01
       2    -1     0     0   502     0  0.000000000E+00  0.000000000E+00  5.806627018E+02  5.806627018E+02  0.000000000E+00  0.00000E+00  9.000E+00
      21    -1     0     0   501   502  0.000000000E+00  0.000000000E+00 -2.117385288E+02  2.117385288E+02  0.000000000E+00  0.00000E+00  9.000E+00
      25     1     1     2     0     0 -1.117269836E+02  2.436531450E+01 -7.316883218E+01  1.845406877E+02  1.250000000E+02  0.00000E+00  9.000E+00
      25     1     1     2     0     0  2.453583101E+02 -1.410468093E+01  2.410392963E+02  3.662302346E+02  1.250000000E+02  0.00000E+00  9.000E+00
       2     1     1     2   501     0 -1.336313264E+02 -1.026063357E+01  2.010537090E+02  2.416303083E+02  2.697398305E-06  0.00000E+00  9.000E+00
#rwgt            1           1   2.6465351092087686E-002           6      452337           0
</event>
<event>
      5   9999  3.79277E-02  5.95364E+01 -1.00000E+00  1.34884E-01
      21    -1     0     0   502   501  0.000000000E+00  0.000000000E+00  1.421424629E+02  1.421424629E+02  0.000000000E+00  0.00000E+00  9.000E+00
      21    -1     0     0   511   502  0.000000000E+00  0.000000000E+00 -9.140638742E+02  9.140638742E+02  0.000000000E+00  0.00000E+00  9.000E+00
      25     1     1     2     0     0 -1.239169065E+02  9.215467151E+01 -1.112794612E+02  2.277191289E+02  1.250000000E+02  0.00000E+00  9.000E+00
      25     1     1     2     0     0  1.738046143E+02 -5.966162429E+01 -6.736382246E+01  2.322292788E+02  1.250000000E+02  0.00000E+00  9.000E+00
      21     1     1     2   511   501 -4.988770781E+01 -3.249304722E+01 -5.932781276E+02  5.962579293E+02  1.078959322E-05  0.00000E+00  9.000E+00
#rwgt            1           1  0.14481965307544781                6      452526           0
</event>
<event>
      5   9999  3.79277E-02  8.54419E+01 -1.00000E+00  1.26981E-01
      21    -1     0     0   512   501  0.000000000E+00  0.000000000E+00  3.419843661E+02  3.419843661E+02  0.000000000E+00  0.00000E+00  9.000E+00
      21    -1     0     0   501   502  0.000000000E+00  0.000000000E+00 -2.274803172E+02  2.274803172E+02  0.000000000E+00  0.00000E+00  9.000E+00
      25     1     1     2     0     0 -1.116718902E+02 -4.591469698E+01  1.709645420E+02  2.437881151E+02  1.250000000E+02  0.00000E+00  9.000E+00
      25     1     1     2     0     0  2.764220797E+01  3.044434624E+01 -1.496298149E+02  1.992612140E+02  1.250000000E+02  0.00000E+00  9.000E+00
      21     1     1     2   512   502  8.402968220E+01  1.547035074E+01  9.316932190E+01  1.264153542E+02  1.348699152E-06  0.00000E+00  9.000E+00
#rwgt            1           1   4.3435659305211663E-002           6      452702           0
</event>
<event>
      5   9999  3.79277E-02  4.11379E+01 -1.00000E+00  1.44089E-01
      21    -1     0     0   502   501  0.000000000E+00  0.000000000E+00  6.512508693E+02  6.512508693E+02  0.000000000E+00  0.00000E+00  9.000E+00
      21    -1     0     0   501   511  0.000000000E+00  0.000000000E+00 -1.822337346E+02  1.822337346E+02  0.000000000E+00  0.00000E+00  9.000E+00
      25     1     1     2     0     0 -1.172997032E+02  2.721633626E+02  2.943726369E+02  4.360187676E+02  1.250000000E+02  0.00000E+00  9.000E+00
      25     1     1     2     0     0  1.380466662E+02 -2.366403080E+02  1.870512654E+02  3.544978044E+02  1.250000000E+02  0.00000E+00  9.000E+00
      21     1     1     2   502   511 -2.074696303E+01 -3.552305461E+01 -1.240676766E+01  4.296803192E+01  5.331201500E-07  0.00000E+00  9.000E+00
#rwgt            1           1   2.8113564301566057E-002           6      452812           0
</event>
<event>
      5   9999  3.79277E-02  1.25835E+01 -1.00000E+00  1.84886E-01
      21    -1     0     0   502   501  0.000000000E+00  0.000000000E+00  1.056454144E+02  1.056454144E+02  0.000000000E+00  0.00000E+00  9.000E+00
      21    -1     0     0   512   502  0.000000000E+00  0.000000000E+00 -5.638784444E+02  5.638784444E+02  0.000000000E+00  0.00000E+00  9.000E+00
      25     1     1     2     0     0 -1.168113486E+01 -4.893566149E+01  4.524263461E+01  1.421374119E+02  1.250000000E+02  0.00000E+00  9.000E+00
      25     1     1     2     0     0  3.791393767E+00  3.913278293E+01 -3.555780794E+02  3.789545090E+02  1.250000000E+02  0.00000E+00  9.000E+00
      21     1     1     2   512   501  7.889741095E+00  9.802878561E+00 -1.478975852E+02  1.484319378E+02  0.000000000E+00  0.00000E+00  9.000E+00
#rwgt            2          11   3.2083415479372145E-004           6      452974           0
</event>
<event>
      5   9999  3.79277E-02  4.57693E+00 -1.00000E+00  2.50404E-01
      21    -1     0     0   511   501  0.000000000E+00  0.000000000E+00  1.370623726E+02  1.370623726E+02  0.000000000E+00  0.00000E+00  9.000E+00
      21    -1     0     0   501   502  0.000000000E+00  0.000000000E+00 -3.623762159E+02  3.623762159E+02  0.000000000E+00  0.00000E+00  9.000E+00
      25     1     1     2     0     0 -5.946216642E+01 -1.119330924E+02 -1.997489887E+02  2.675620020E+02  1.250000000E+02  0.00000E+00  9.000E+00
      25     1     1     2     0     0  6.224326116E+01  1.155681711E+02 -6.471015776E+01  1.924646208E+02  1.250000000E+02  0.00000E+00  9.000E+00
      21     1     1     2   511   502 -2.781094742E+00 -3.635078708E+00  3.914530318E+01  3.941196578E+01  8.259061849E-07  0.00000E+00  9.000E+00
#rwgt            1           1   4.5543552973089672E-002           6      453039           0
</event>
<event>
      5   9999  3.79277E-02  1.98000E+01 -1.00000E+00  1.66730E-01
      21    -1     0     0   512   501  0.000000000E+00  0.000000000E+00  3.857898508E+02  3.857898508E+02  0.000000000E+00  0.00000E+00  9.000E+00
      21    -1     0     0   501   502  0.000000000E+00  0.000000000E+00 -2.654416569E+02  2.654416569E+02  0.000000000E+00  0.00000E+00  9.000E+00
      25     1     1     2     0     0  2.373453680E+02 -3.632843269E+01  2.178840651E+02  3.474925101E+02  1.250000000E+02  0.00000E+00  9.000E+00
      25     1     1     2     0     0 -2.184025122E+02  4.209111140E+01 -1.125782828E+02  2.788730693E+02  1.250000000E+02  0.00000E+00  9.000E+00
      21     1     1     2   512   502 -1.894285573E+01 -5.762678711E+00  1.504241155E+01  2.486592839E+01  4.129530925E-07  0.00000E+00  9.000E+00
#rwgt            1           1   2.9465415316598572E-002           6      453326           0
</event>
<event>
      5   9999  3.79277E-02  1.14111E+02 -1.00000E+00  1.21303E-01
       2    -1     0     0   502     0  0.000000000E+00  0.000000000E+00  2.276138098E+03  2.276138098E+03  0.000000000E+00  0.00000E+00  9.000E+00
      21    -1     0     0   501   502  0.000000000E+00  0.000000000E+00 -5.145858299E+02  5.145858299E+02  0.000000000E+00  0.00000E+00  9.000E+00
      25     1     1     2     0     0  2.192517218E+02  4.801155760E+02 -6.291159467E+01  5.460450097E+02  1.250000000E+02  0.00000E+00  9.000E+00
      25     1     1     2     0     0 -1.069675065E+02 -5.004532321E+02  1.250531682E+02  5.414413909E+02  1.250000000E+02  0.00000E+00  9.000E+00
       2     1     1     2   501     0 -1.122842153E+02  2.033765607E+01  1.699410695E+03  1.703237528E+03  2.157918644E-05  0.00000E+00  9.000E+00
#rwgt            1           1   5.8224200975893287E-002           6      453489           0
</event>
<event>
      5   9999  3.79277E-02  4.44008E+01 -1.00000E+00  1.42084E-01
      21    -1     0     0   502   501  0.000000000E+00  0.000000000E+00  3.530307231E+02  3.530307231E+02  0.000000000E+00  0.00000E+00  9.000E+00
      21    -1     0     0   501   511  0.000000000E+00  0.000000000E+00 -2.461790420E+02  2.461790420E+02  0.000000000E+00  0.00000E+00  9.000E+00
      25     1     1     2     0     0 -1.233249735E+02 -2.179949339E+02  1.129539899E+02  3.018516923E+02  1.250000000E+02  0.00000E+00  9.000E+00
      25     1     1     2     0     0  8.129994999E+01  2.036656432E+02 -1.120108040E+01  2.526654711E+02  1.250000000E+02  0.00000E+00  9.000E+00
      21     1     1     2   502   511  4.202502350E+01  1.432929070E+01  5.098771559E+00  4.469260166E+01  6.556510925E-07  0.00000E+00  9.000E+00
#rwgt            2          11   4.5591016405690400E-003           6      453772           0
</event>
<event>
      5   9999  3.79277E-02  8.02015E+01 -1.00000E+00  1.28297E-01
      21    -1     0     0   502   501  0.000000000E+00  0.000000000E+00  2.030280532E+02  2.030280532E+02  0.000000000E+00  0.00000E+00  9.000E+00
      21    -1     0     0   512   502  0.000000000E+00  0.000000000E+00 -3.174364403E+02  3.174364403E+02  0.000000000E+00  0.00000E+00  9.000E+00
      25     1     1     2     0     0 -1.095454266E+02 -1.368935479E+01 -5.476647752E+01  1.755333757E+02  1.250000000E+02  0.00000E+00  9.000E+00
      25     1     1     2     0     0  7.829710876E+01  8.755295136E+01  7.579766870E+01  1.875266464E+02  1.250000000E+02  0.00000E+00  9.000E+00
      21     1     1     2   512   501  3.124831780E+01 -7.386359657E+01 -1.354395782E+02  1.574044714E+02  2.697398305E-06  0.00000E+00  9.000E+00
#rwgt            1           1   4.4802902415115316E-002           6      453852           0
</event>
<event>
      5   9999  3.79277E-02  2.30098E+01 -1.00000E+00  1.61498E-01
      21    -1     0     0   502   501  0.000000000E+00  0.000000000E+00  1.992067861E+02  1.992067861E+02  0.000000000E+00  0.00000E+00  9.000E+00
      21    -1     0     0   501   511  0.000000000E+00  0.000000000E+00 -1.670197178E+02  1.670197178E+02  0.000000000E+00  0.00000E+00  9.000E+00
      25     1     1     2     0     0 -6.954234166E+00  1.096401262E+02 -1.488809584E+01  1.670807411E+02  1.250000000E+02  0.00000E+00  9.000E+00
      25     1     1     2     0     0 -1.559448506E+01 -1.142232030E+02  4.578172462E+01  1.760996717E+02  1.250000000E+02  0.00000E+00  9.000E+00
      21     1     1     2   502   511  2.254871923E+01  4.583076813E+00  1.293439478E+00  2.304609116E+01  2.946513881E-07  0.00000E+00  9.000E+00
#rwgt            1           1   4.0236230275128092E-002           6      454016           0
</event>
<event>
      5   9999  3.79277E-02  1.87765E+01 -1.00000E+00  1.68663E-01
       2    -1     0     0   502     0  0.000000000E+00  0.000000000E+00  1.927987661E+03  1.927987661E+03  0.000000000E+00  0.00000E+00  9.000E+00
      21    -1     0     0   501   502  0.000000000E+00  0.000000000E+00 -2.353966192E+02  2.353966192E+02  0.000000000E+00  0.00000E+00  9.000E+00
      25     1     1     2     0     0 -2.826630792E+01 -1.012642303E+02 -1.705068377E+02  2.361165183E+02  1.250000000E+02  0.00000E+00  9.000E+00
      25     1     1     2     0     0  2.200681732E+01  8.356182400E+01  1.481828236E+02  2.122499179E+02  1.250000000E+02  0.00000E+00  9.000E+00
       2     1     1     2   501     0  6.259490603E+00  1.770240628E+01  1.714915056E+03  1.715017844E+03  3.051757812E-05  0.00000E+00  9.000E+00
#rwgt            1           1   3.7458287389675125E-002           6      454249           0
</event>
<event>
      5   9999  3.79277E-02  8.62350E+01 -1.00000E+00  1.26792E-01
      21    -1     0     0   511   501  0.000000000E+00  0.000000000E+00  2.244566739E+02  2.244566739E+02  0.000000000E+00  0.00000E+00  9.000E+00
      21    -1     0     0   501   502  0.000000000E+00  0.000000000E+00 -4.699050435E+02  4.699050435E+02  0.000000000E+00  0.00000E+00  9.000E+00
      25     1     1     2     0     0  6.069547422E+01 -1.111078485E+02 -3.605117342E+02  4.020231400E+02  1.250000000E+02  0.00000E+00  9.000E+00
      25     1     1     2     0     0  1.184953886E+01  6.448496573E+01  1.437434504E+02  2.014594299E+02  1.250000000E+02  0.00000E+00  9.000E+00
      21     1     1     2   511   502 -7.254501308E+01  4.662288281E+01 -2.868008582E+01  9.087914748E+01  9.536743164E-07  0.00000E+00  9.000E+00
#rwgt            1           1   3.9900127616564862E-002           6      454476           0
</event>
<event>
      5   9999  3.79277E-02  1.09853E+02 -1.00000E+00  1.22020E-01
      21    -1     0     0   502   512  0.000000000E+00  0.000000000E+00  2.546205125E+02  2.546205125E+02  0.000000000E+00  0.00000E+00  9.000E+00
      21    -1     0     0   501   502  0.000000000E+00  0.000000000E+00 -8.982582321E+02  8.982582321E+02  0.000000000E+00  0.00000E+00  9.000E+00
      25     1     1     2     0     0 -1.610315792E+02 -6.104233336E+01 -2.933692739E+02  3.624194626E+02  1.250000000E+02  0.00000E+00  9.000E+00
      25     1     1     2     0     0  2.265132966E+02 -2.716133634E+01 -5.239376504E+02  5.849629674E+02  1.250000000E+02  0.00000E+00  9.000E+00
      21     1     1     2   501   512 -6.548171738E+01  8.820366970E+01  1.736692047E+02  2.054963147E+02  1.907348633E-06  0.00000E+00  9.000E+00
#rwgt            1           1   4.1766343994194863E-002           6      454601           0
</event>
<event>
      5   9999  3.79277E-02  1.00596E+02 -1.00000E+00  1.23712E-01
      21    -1     0     0   502   501  0.000000000E+00  0.000000000E+00  9.887961883E+01  9.887961883E+01  0.000000000E+00  0.00000E+00  9.000E+00
       1    -1     0     0   501     0  0.000000000E+00  0.000000000E+00 -8.864250323E+02  8.864250323E+02  0.000000000E+00  0.00000E+00  9.000E+00
      25     1     1     2     0     0 -4.884457319E+01 -1.236506451E+02 -4.284011091E+02  4.656477045E+02  1.250000000E+02  0.00000E+00  9.000E+00
      25     1     1     2     0     0 -5.151817671E+01  1.168094187E+02 -3.738765813E+01  1.825415016E+02  1.250000000E+02  0.00000E+00  9.000E+00
       1     1     1     2   502     0  1.003627499E+02  6.841226444E+00 -3.217566462E+02  3.371154451E+02  3.814697266E-06  0.00000E+00  9.000E+00
#rwgt            1           1   4.1717042825066622E-002           6      454719           0
</event>
<event>
      5   9999  3.79277E-02  3.07893E+01 -1.00000E+00  1.52261E-01
      21    -1     0     0   502   501  0.000000000E+00  0.000000000E+00  2.172801708E+02  2.172801708E+02  0.000000000E+00  0.00000E+00  9.000E+00
      21    -1     0     0   511   502  0.000000000E+00  0.000000000E+00 -6.606251902E+02  6.606251902E+02  0.000000000E+00  0.00000E+00  9.000E+00
      25     1     1     2     0     0  3.576062384E+01 -6.845767357E+01  1.717303466E+02  2.260123608E+02  1.250000000E+02  0.00000E+00  9.000E+00
      25     1     1     2     0     0 -2.818256263E+01  3.861553474E+01 -2.339320694E+02  2.695081250E+02  1.250000000E+02  0.00000E+00  9.000E+00
      21     1     1     2   511   501 -7.578061213E+00  2.984213883E+01 -3.811432966E+02  3.823848752E+02  0.000000000E+00  0.00000E+00  9.000E+00
#rwgt            1           1   3.6988033068087595E-002           6      454812           0
</event>
<event>
      5   9999  3.79277E-02  3.86817E+01 -1.00000E+00  1.45749E-01
      21    -1     0     0   502   501  0.000000000E+00  0.000000000E+00  7.726096323E+02  7.726096323E+02  0.000000000E+00  0.00000E+00  9.000E+00
      21    -1     0     0   512   502  0.000000000E+00  0.000000000E+00 -1.577530529E+02  1.577530529E+02  0.000000000E+00  0.00000E+00  9.000E+00
      25     1     1     2     0     0  9.250214148E+01  1.853774506E+02  4.645189430E+02  5.237597672E+02  1.250000000E+02  0.00000E+00  9.000E+00
      25     1     1     2     0     0 -1.185738465E+02 -1.568023503E+02  2.241381638E+02  3.232795239E+02  1.250000000E+02  0.00000E+00  9.000E+00
      21     1     1     2   512   501  2.607170501E+01 -2.857510033E+01 -7.380052736E+01  8.332339407E+01  1.907348633E-06  0.00000E+00  9.000E+00
#rwgt            1           1   4.1231145806323984E-002           6      454956           0
</event>
<event>
      5   9999  3.79277E-02  3.25007E+01 -1.00000E+00  1.50663E-01
      21    -1     0     0   502   511  0.000000000E+00  0.000000000E+00  3.648813592E+02  3.648813592E+02  0.000000000E+00  0.00000E+00  9.000E+00
      21    -1     0     0   501   502  0.000000000E+00  0.000000000E+00 -1.294717305E+02  1.294717305E+02  0.000000000E+00  0.00000E+00  9.000E+00
      25     1     1     2     0     0  9.158549652E+01  6.444554288E+01  1.408229594E+02  2.190827174E+02  1.250000000E+02  0.00000E+00  9.000E+00
      25     1     1     2     0     0 -1.221672000E+02 -5.344291935E+01  8.182794409E+00  1.829560836E+02  1.250000000E+02  0.00000E+00  9.000E+00
      21     1     1     2   501   511  3.058170353E+01 -1.100262353E+01  8.640387488E+01  9.231428876E+01  1.348699152E-06  0.00000E+00  9.000E+00
#rwgt            1           1   4.7521717087981044E-002           6      455238           0
</event>
<event>
      5   9999  3.79277E-02  9.09171E+01 -1.00000E+00  1.25717E-01
      21    -1     0     0   512   501  0.000000000E+00  0.000000000E+00  6.319868901E+02  6.319868901E+02  0.000000000E+00  0.00000E+00  9.000E+00
      21    -1     0     0   501   502  0.000000000E+00  0.000000000E+00 -2.182452204E+02  2.182452204E+02  0.000000000E+00  0.00000E+00  9.000E+00
      25     1     1     2     0     0  3.271130772E+02 -4.243509879E+00  2.509441096E+02  4.308351411E+02  1.250000000E+02  0.00000E+00  9.000E+00
      25     1     1     2     0     0 -2.486941699E+02 -4.176082122E+01  7.116528640E+01  2.903140615E+02  1.250000000E+02  0.00000E+00  9.000E+00
      21     1     1     2   512   502 -7.841890733E+01  4.600433110E+01  9.163227369E+01  1.290829078E+02  1.348699152E-06  0.00000E+00  9.000E+00
#rwgt            2          11   3.0861122415237192E-003           6      455524           0
</event>
<event>
      5   9999  3.79277E-02  2.33591E+01 -1.00000E+00  1.60991E-01
      21    -1     0     0   502   501  0.000000000E+00  0.000000000E+00  1.398847452E+02  1.398847452E+02  0.000000000E+00  0.00000E+00  9.000E+00
      21    -1     0     0   511   502  0.000000000E+00  0.000000000E+00 -2.131401071E+02  2.131401071E+02  0.000000000E+00  0.00000E+00  9.000E+00
      25     1     1     2     0     0 -4.720753593E+01 -9.806730083E+01 -4.986062130E+01  1.730804105E+02  1.250000000E+02  0.00000E+00  9.000E+00
      25     1     1     2     0     0  4.122084201E+01  7.548837247E+01 -7.948446188E+00  1.519402185E+02  1.250000000E+02  0.00000E+00  9.000E+00
      21     1     1     2   511   501  5.986693915E+00  2.257892837E+01 -1.544629446E+01  2.800422330E+01  1.685873940E-07  0.00000E+00  9.000E+00
#rwgt            1           1  0.19408587052178081                6      455574           0
</event>
<event>
      5   9999  3.79277E-02  3.23637E+01 -1.00000E+00  1.50787E-01
      21    -1     0     0   512   501  0.000000000E+00  0.000000000E+00  7.267329999E+02  7.267329999E+02  0.000000000E+00  0.00000E+00  9.000E+00
      21    -1     0     0   501   502  0.000000000E+00  0.000000000E+00 -8.365439205E+01  8.365439205E+01  0.000000000E+00  0.00000E+00  9.000E+00
      25     1     1     2     0     0 -1.516521349E+02 -9.984116305E+01  3.457238336E+02  4.100202397E+02  1.250000000E+02  0.00000E+00  9.000E+00
      25     1     1     2     0     0  1.265068495E+02  7.946653542E+01  1.404160776E+02  2.401261920E+02  1.250000000E+02  0.00000E+00  9.000E+00
      21     1     1     2   512   502  2.514528541E+01  2.037462763E+01  1.569386966E+02  1.602409602E+02  0.000000000E+00  0.00000E+00  9.000E+00
#rwgt            1           1   3.9683029879463066E-002           6      455729           0
</event>
<event>
      5   9999  3.79277E-02  8.05239E+01 -1.00000E+00  1.28212E-01
       2    -1     0     0   502     0  0.000000000E+00  0.000000000E+00  7.498955463E+02  7.498955463E+02  0.000000000E+00  0.00000E+00  9.000E+00
      21    -1     0     0   501   502  0.000000000E+00  0.000000000E+00 -1.023787588E+03  1.023787588E+03  0.000000000E+00  0.00000E+00  9.000E+00
      25     1     1     2     0     0  3.913994432E+01  9.064086799E+01 -1.969650119E+02  2.533138727E+02  1.250000000E+02  0.00000E+00  9.000E+00
      25     1     1     2     0     0  3.536106762E+01 -6.008448387E+01 -7.899510816E+02  8.028127189E+02  1.250000000E+02  0.00000E+00  9.000E+00
       2     1     1     2   501     0 -7.450101194E+01 -3.055638412E+01  7.130240519E+02  7.175565427E+02  7.629394531E-06  0.00000E+00  9.000E+00
#rwgt            1           1   3.9037293342157622E-002           6      455884           0
</event>
<event>
      5   9999  3.79277E-02  2.65550E+01 -1.00000E+00  1.56813E-01
      21    -1     0     0   502   511  0.000000000E+00  0.000000000E+00  7.353781707E+02  7.353781707E+02  0.000000000E+00  0.00000E+00  9.000E+00
      21    -1     0     0   501   502  0.000000000E+00  0.000000000E+00 -8.026135797E+02  8.026135797E+02  0.000000000E+00  0.00000E+00  9.000E+00
      25     1     1     2     0     0  2.142600306E+02 -3.591344857E+02 -2.420033654E+02  4.990747122E+02  1.250000000E+02  0.00000E+00  9.000E+00
      25     1     1     2     0     0 -1.884358110E+02  3.653212770E+02 -3.248286410E+02  5.386152025E+02  1.250000000E+02  0.00000E+00  9.000E+00
      21     1     1     2   501   511 -2.582421957E+01 -6.186791350E+00  4.995965974E+02  5.003018357E+02  5.394796609E-06  0.00000E+00  9.000E+00
#rwgt            1           1   2.3388889168868381E-002           6      456082           0
</event>
<event>
      5   9999  3.79277E-02  4.75383E+01 -1.00000E+00  1.40338E-01
      21    -1     0     0   502   501  0.000000000E+00  0.000000000E+00  2.660524289E+03  2.660524289E+03  0.000000000E+00  0.00000E+00  9.000E+00
      21    -1     0     0   501   512  0.000000000E+00  0.000000000E+00 -7.080509341E+01  7.080509341E+01  0.000000000E+00  0.00000E+00  9.000E+00
      25     1     1     2     0     0  1.378319201E+02 -1.473166315E+01  1.004931083E+03  1.022118458E+03  1.250000000E+02  0.00000E+00  9.000E+00
      25     1     1     2     0     0 -1.795092748E+02 -8.135152104E+00  1.629388411E+03  1.644025960E+03  1.250000000E+02  0.00000E+00  9.000E+00
      21     1     1     2   502   512  4.167735463E+01  2.286681526E+01 -4.460029832E+01  6.518496560E+01  4.396221379E-06  0.00000E+00  9.000E+00
#rwgt            1           1   2.3656935881882533E-002           6      456266           0
</event>
<event>
      5   9999  3.79277E-02  5.68298E+00 -1.00000E+00  2.29197E-01
      21    -1     0     0   502   501  0.000000000E+00  0.000000000E+00  2.619949944E+02  2.619949944E+02  0.000000000E+00  0.00000E+00  9.000E+00
      21    -1     0     0   501   511  0.000000000E+00  0.000000000E+00 -1.843090054E+02  1.843090054E+02  0.000000000E+00  0.00000E+00  9.000E+00
      25     1     1     2     0     0  1.296177587E+02 -1.967591504E+01 -3.164549914E+01  1.838867657E+02  1.250000000E+02  0.00000E+00  9.000E+00
      25     1     1     2     0     0 -1.347049145E+02  2.220910509E+01  1.394583082E+02  2.317590949E+02  1.250000000E+02  0.00000E+00  9.000E+00
      21     1     1     2   502   511  5.087155876E+00 -2.533190045E+00 -3.012682013E+01  3.065813918E+01  3.371747881E-07  0.00000E+00  9.000E+00
#rwgt            1           1   3.8946945067783387E-002           6      456389           0
</event>
<event>
      5   9999  3.79277E-02  1.98485E+02 -1.00000E+00  1.11768E-01
      21    -1     0     0   502   501  0.000000000E+00  0.000000000E+00  3.407097734E+02  3.407097734E+02  0.000000000E+00  0.00000E+00  9.000E+00
      21    -1     0     0   512   502  0.000000000E+00  0.000000000E+00 -2.793988259E+02  2.793988259E+02  0.000000000E+00  0.00000E+00  9.000E+00
      25     1     1     2     0     0 -5.589828327E+01 -8.781045030E+01 -5.314441485E+01  1.711275024E+02  1.250000000E+02  0.00000E+00  9.000E+00
      25     1     1     2     0     0  1.678849198E+02 -7.606516619E+01  1.146824442E+02  2.504961453E+02  1.250000000E+02  0.00000E+00  9.000E+00
      21     1     1     2   512   501 -1.119866365E+02  1.638756165E+02 -2.270818498E-01  1.984849516E+02  3.120790659E-06  0.00000E+00  9.000E+00
#rwgt            2          11   1.6446658495645361E-003           6      456779           0
</event>
<event>
      5   9999  3.79277E-02  1.70136E+02 -1.00000E+00  1.14266E-01
      21    -1     0     0   502   511  0.000000000E+00  0.000000000E+00  6.441477482E+02  6.441477482E+02  0.000000000E+00  0.00000E+00  9.000E+00
      21    -1     0     0   501   502  0.000000000E+00  0.000000000E+00 -2.378930462E+02  2.378930462E+02  0.000000000E+00  0.00000E+00  9.000E+00
      25     1     1     2     0     0 -6.097944434E+01  2.725976530E+02 -4.794183360E+01  3.097602177E+02  1.250000000E+02  0.00000E+00  9.000E+00
      25     1     1     2     0     0  1.335310261E+01 -1.092639595E+02  2.976439674E+02  3.410774832E+02  1.250000000E+02  0.00000E+00  9.000E+00
      21     1     1     2   501   511  4.762634173E+01 -1.633336934E+02  1.565525682E+02  2.312030935E+02  2.697398305E-06  0.00000E+00  9.000E+00
#rwgt            1           1   3.4072957015404658E-002           6      456859           0
</event>
<event>
      5   9999  3.79277E-02  1.90438E+01 -1.00000E+00  1.68144E-01
      21    -1     0     0   502   501  0.000000000E+00  0.000000000E+00  6.051700795E+02  6.051700795E+02  0.000000000E+00  0.00000E+00  9.000E+00
      21    -1     0     0   512   502  0.000000000E+00  0.000000000E+00 -1.074913293E+02  1.074913293E+02  0.000000000E+00  0.00000E+00  9.000E+00
      25     1     1     2     0     0  8.621332560E+01 -1.920625670E+02  2.972633923E+02  3.851120507E+02  1.250000000E+02  0.00000E+00  9.000E+00
      25     1     1     2     0     0 -6.722572368E+01  1.906002499E+02  1.959024235E+02  3.079781043E+02  1.250000000E+02  0.00000E+00  9.000E+00
      21     1     1     2   512   501 -1.898760192E+01  1.462317161E+00  4.512934341E+00  1.957125378E+01  1.576990671E-07  0.00000E+00  9.000E+00
#rwgt            1           1   3.9320998479414851E-002           6      456955           0
</event>
<event>
      5   9999  3.79277E-02  6.26759E+01 -1.00000E+00  1.33699E-01
      21    -1     0     0   502   501  0.000000000E+00  0.000000000E+00  2.105278406E+02  2.105278406E+02  0.000000000E+00  0.00000E+00  9.000E+00
       2    -1     0     0   501     0  0.000000000E+00  0.000000000E+00 -9.399429142E+02  9.399429142E+02  0.000000000E+00  0.00000E+00  9.000E+00
      25     1     1     2     0     0 -6.791972429E+01 -8.014555718E+01  1.583127236E+02  2.274298084E+02  1.250000000E+02  0.00000E+00  9.000E+00
      25     1     1     2     0     0  2.499977236E+01  3.447121142E+01 -2.545123179E+02  2.867311860E+02  1.250000000E+02  0.00000E+00  9.000E+00
       2     1     1     2   502     0  4.291995193E+01  4.567434577E+01 -6.332154792E+02  6.363097605E+02  7.629394531E-06  0.00000E+00  9.000E+00
#rwgt            1           1   2.7259825052384740E-002           6      457135           0
</event>
<event>
      5   9999  3.79277E-02  1.44756E+01 -1.00000E+00  1.78852E-01
      21    -1     0     0   502   511  0.000000000E+00  0.000000000E+00  1.068536851E+02  1.068536851E+02  0.000000000E+00  0.00000E+00  9.000E+00
      21    -1     0     0   501   502  0.000000000E+00  0.000000000E+00 -9.689951594E+02  9.689951594E+02  0.000000000E+00  0.00000E+00  9.000E+00
      25     1     1     2     0     0 -1.256568796E+02  1.740719211E+02 -3.440444863E+02  4.243610416E+02  1.250000000E+02  0.00000E+00  9.000E+00
      25     1     1     2     0     0  1.396264396E+02 -1.702777878E+02 -5.559847417E+02  6.109288835E+02  1.250000000E+02  0.00000E+00  9.000E+00
      21     1     1     2   501   511 -1.396956007E+01 -3.794133311E+00  3.788775368E+01  4.055891930E+01  4.768371582E-07  0.00000E+00  9.000E+00
#rwgt            1           1   4.1093777633578986E-002           6      457250           0
</event>
<event>
      5   9999  3.79277E-02  7.54316E+01 -1.00000E+00  1.29598E-01
      21    -1     0     0   512   501  0.000000000E+00  0.000000000E+00  2.826815600E+02  2.826815600E+02  0.000000000E+00  0.00000E+00  9.000E+00
      21    -1     0     0   501   502  0.000000000E+00  0.000000000E+00 -4.317901762E+02  4.317901762E+02  0.000000000E+00  0.00000E+00  9.000E+00
      25     1     1     2     0     0 -1.104302222E+02 -9.292980618E+01 -9.985481056E+01  2.154687125E+02  1.250000000E+02  0.00000E+00  9.000E+00
      25     1     1     2     0     0  1.738276133E+02  1.338040564E+02 -2.054762940E+02  3.255227673E+02  1.250000000E+02  0.00000E+00  9.000E+00
      21     1     1     2   512   502 -6.339739107E+01 -4.087425020E+01  1.562224883E+02  1.734802564E+02  2.697398305E-06  0.00000E+00  9.000E+00
#rwgt            1           1   3.4599797796252253E-002           6      457493           0
</event>
<event>
      5   9999  3.79277E-02  6.39873E+01 -1.00000E+00  1.33227E-01
      21    -1     0     0   502   501  0.000000000E+00  0.000000000E+00  3.012817577E+02  3.012817577E+02  0.000000000E+00  0.00000E+00  9.000E+00
      21    -1     0     0   511   502  0.000000000E+00  0.000000000E+00 -2.315953335E+02  2.315953335E+02  0.000000000E+00  0.00000E+00  9.000E+00
      25     1     1     2     0     0 -1.284853694E+02  1.711282100E+00  5.809657127E+01  1.884452977E+02  1.250000000E+02  0.00000E+00  9.000E+00
      25     1     1     2     0     0  1.918531161E+02  7.171373768E+00  8.742469474E+01  2.452083278E+02  1.250000000E+02  0.00000E+00  9.000E+00
      21     1     1     2   511   501 -6.336774671E+01 -8.882655868E+00 -7.583484180E+01  9.922346561E+01  9.536743164E-07  0.00000E+00  9.000E+00
#rwgt            1           1   2.9904539782880900E-002           6      457636           0
</event>
<event>
      5   9999  3.79277E-02  1.00765E+02 -1.00000E+00  1.23679E-01
      21    -1     0     0   502   501  0.000000000E+00  0.000000000E+00  3.040898135E+02  3.040898135E+02  0.000000000E+00  0.00000E+00  9.000E+00
      21    -1     0     0   501   512  0.000000000E+00  0.000000000E+00 -1.259086981E+03  1.259086981E+03  0.000000000E+00  0.00000E+00  9.000E+00
      25     1     1     2     0     0  1.319579924E+02  2.454367081E+02  5.382937703E+01  3.101204464E+02  1.250000000E+02  0.00000E+00  9.000E+00
      25     1     1     2     0     0 -1.852919201E+02 -3.309302914E+02 -2.163144731E+02  4.541639623E+02  1.250000000E+02  0.00000E+00  9.000E+00
      21     1     1     2   502   512  5.333392770E+01  8.549358328E+01 -7.925120713E+02  7.988923856E+02  1.525878906E-05  0.00000E+00  9.000E+00
#rwgt            1           1   3.4929862481401924E-002           6      457730           0
</event>
<event>
      5   9999  3.79277E-02  1.02504E+02 -1.00000E+00  1.23347E-01
      21    -1     0     0   511   501  0.000000000E+00  0.000000000E+00  1.043155668E+02  1.043155668E+02  0.000000000E+00  0.00000E+00  9.000E+00
      21    -1     0     0   501   502  0.000000000E+00  0.000000000E+00 -4.137671094E+02  4.137671094E+02  0.000000000E+00  0.00000E+00  9.000E+00
      25     1     1     2     0     0  5.960213011E+01  9.479840491E+00 -1.854000367E+02  2.316040909E+02  1.250000000E+02  0.00000E+00  9.000E+00
      25     1     1     2     0     0 -1.742275668E+01  8.394367228E+01 -4.851918850E+01  1.591515134E+02  1.250000000E+02  0.00000E+00  9.000E+00
      21     1     1     2   511   502 -4.217937344E+01 -9.342351277E+01 -7.553231739E+01  1.273270720E+02  2.861022949E-06  0.00000E+00  9.000E+00
#rwgt            1           1   7.9541684297633086E-002           6      457952           0
</event>
<event>
      5   9999  3.79277E-02  1.33908E+01 -1.00000E+00  1.82156E-01
      21    -1     0     0   502   512  0.000000000E+00  0.000000000E+00  2.809072358E+02  2.809072358E+02  0.000000000E+00  0.00000E+00  9.000E+00
      21    -1     0     0   501   502  0.000000000E+00  0.000000000E+00 -6.052632081E+02  6.052632081E+02  0.000000000E+00  0.00000E+00  9.000E+00
      25     1     1     2     0     0 -2.537437517E+02 -2.741297825E+02 -2.401639241E+02  4.613423237E+02  1.250000000E+02  0.00000E+00  9.000E+00
      25     1     1     2     0     0  2.518680671E+02  2.873885439E+02 -8.643988242E+01  4.112499868E+02  1.250000000E+02  0.00000E+00  9.000E+00
      21     1     1     2   501   512  1.875684583E+00 -1.325876140E+01  2.247834243E+00  1.357813335E+01  2.682209015E-07  0.00000E+00  9.000E+00
#rwgt            1           1   3.4826083109997977E-002           6      457990           0
</event>
<event>
      5   9999  3.79277E-02  8.72390E+01 -1.00000E+00  1.26555E-01
      21    -1     0     0   502   511  0.000000000E+00  0.000000000E+00  2.702343876E+02  2.702343876E+02  0.000000000E+00  0.00000E+00  9.000E+00
      21    -1     0     0   501   502  0.000000000E+00  0.000000000E+00 -6.301520047E+02  6.301520047E+02  0.000000000E+00  0.00000E+00  9.000E+00
      25     1     1     2     0     0  5.641536924E+01  1.073214144E+01 -5.574293240E+02  5.741518301E+02  1.250000000E+02  0.00000E+00  9.000E+00
      25     1     1     2     0     0  1.750950412E+00  5.428567513E+01  3.331747400E+01  1.403034370E+02  1.250000000E+02  0.00000E+00  9.000E+00
      21     1     1     2   501   511 -5.816631965E+01 -6.501781657E+01  1.641942329E+02  1.859311252E+02  1.907348633E-06  0.00000E+00  9.000E+00
#rwgt            1           1   4.1742222078635441E-002           6      458282           0
</event>
<event>
      5   9999  3.79277E-02  3.85407E+01 -1.00000E+00  1.45848E-01
       1    -1     0     0   502     0  0.000000000E+00  0.000000000E+00  3.393952474E+02  3.393952474E+02  0.000000000E+00  0.00000E+00  9.000E+00
      21    -1     0     0   501   502  0.000000000E+00  0.000000000E+00 -3.450039142E+02  3.450039142E+02  0.000000000E+00  0.00000E+00  9.000E+00
      25     1     1     2     0     0 -1.585160981E+02  1.087872469E+02 -8.734217742E+01  2.453888229E+02  1.250000000E+02  0.00000E+00  9.000E+00
      25     1     1     2     0     0  1.775473406E+02 -7.527311897E+01 -1.018887539E+02  2.513869900E+02  1.250000000E+02  0.00000E+00  9.000E+00
       1     1     1     2   501     0 -1.903124247E+01 -3.351412795E+01  1.836222645E+02  1.876233487E+02  2.697398305E-06  0.00000E+00  9.000E+00
#rwgt            1           1   3.3263352319865165E-002           6      458437           0
</event>
<event>
      5   9999  3.79277E-02  4.25913E+00 -1.00000E+00  2.57208E-01
       2    -1     0     0   502     0  0.000000000E+00  0.000000000E+00  5.660831485E+02  5.660831485E+02  0.000000000E+00  0.00000E+00  9.000E+00
      21    -1     0     0   501   502  0.000000000E+00  0.000000000E+00 -1.027861502E+02  1.027861502E+02  0.000000000E+00  0.00000E+00  9.000E+00
      25     1     1     2     0     0  2.768964130E+01  1.433403950E+02  2.439938075E+02  3.105980733E+02  1.250000000E+02  0.00000E+00  9.000E+00
      25     1     1     2     0     0 -3.193084227E+01 -1.437308234E+02  6.481682913E+01  2.037261633E+02  1.250000000E+02  0.00000E+00  9.000E+00
       2     1     1     2   501     0  4.241200969E+00  3.904284701E-01  1.544863617E+02  1.545450619E+02  0.000000000E+00  0.00000E+00  9.000E+00
#rwgt            1           1   2.3199996820585100E-002           6      458575           0
</event>
<event>
      5   9999  3.79277E-02  1.70198E+02 -1.00000E+00  1.14260E-01
      21    -1     0     0   502   501  0.000000000E+00  0.000000000E+00  3.280124539E+02  3.280124539E+02  0.000000000E+00  0.00000E+00  9.000E+00
       2    -1     0     0   501     0  0.000000000E+00  0.000000000E+00 -2.831187288E+02  2.831187288E+02  0.000000000E+00  0.00000E+00  9.000E+00
      25     1     1     2     0     0 -4.986101243E+01 -1.342902615E+02  1.767923688E+02  2.596161331E+02  1.250000000E+02  0.00000E+00  9.000E+00
      25     1     1     2     0     0 -8.409875023E+01  2.930323423E+01 -4.244935709E+01  1.592426678E+02  1.250000000E+02  0.00000E+00  9.000E+00
       2     1     1     2   502     0  1.339597627E+02  1.049870273E+02 -8.944928663E+01  1.922723818E+02  0.000000000E+00  0.00000E+00  9.000E+00
#rwgt            1           1   3.0878259772505908E-002           6      459154           0
</event>
<event>
      5   9999  3.79277E-02  1.02858E+02 -1.00000E+00  1.23280E-01
      21    -1     0     0   502   511  0.000000000E+00  0.000000000E+00  2.112716708E+02  2.112716708E+02  0.000000000E+00  0.00000E+00  9.000E+00
      21    -1     0     0   501   502  0.000000000E+00  0.000000000E+00 -4.631075157E+02  4.631075157E+02  0.000000000E+00  0.00000E+00  9.000E+00
      25     1     1     2     0     0 -1.541138575E+02  6.503120587E+01 -2.412199908E+02  3.190489347E+02  1.250000000E+02  0.00000E+00  9.000E+00
      25     1     1     2     0     0  5.756975422E+01 -1.005122425E+02 -1.174961313E+02  2.069959622E+02  1.250000000E+02  0.00000E+00  9.000E+00
      21     1     1     2   501   511  9.654410323E+01  3.548103660E+01  1.068802772E+02  1.483342896E+02  3.303624740E-06  0.00000E+00  9.000E+00
#rwgt            2          11   2.2277938239417981E-003           6      459380           0
</event>
<event>
      5   9999  3.79277E-02  1.20960E+01 -1.00000E+00  1.86665E-01
      21    -1     0     0   512   501  0.000000000E+00  0.000000000E+00  4.422294013E+02  4.422294013E+02  0.000000000E+00  0.00000E+00  9.000E+00
      21    -1     0     0   501   502  0.000000000E+00  0.000000000E+00 -8.629461621E+01  8.629461621E+01  0.000000000E+00  0.00000E+00  9.000E+00
      25     1     1     2     0     0 -9.306858944E+01 -5.829655562E+01  4.395904047E+01  1.720977861E+02  1.250000000E+02  0.00000E+00  9.000E+00
      25     1     1     2     0     0  8.097863751E+01  5.791397895E+01  2.960748565E+02  3.364474540E+02  1.250000000E+02  0.00000E+00  9.000E+00
      21     1     1     2   512   502  1.208995192E+01  3.825766705E-01  1.590088819E+01  1.997877743E+01  0.000000000E+00  0.00000E+00  9.000E+00
#rwgt            1           1   3.4072373972142050E-002           6      459415           0
</event>
<event>
      5   9999  3.79277E-02  2.94579E+01 -1.00000E+00  1.53592E-01
      21    -1     0     0   502   511  0.000000000E+00  0.000000000E+00  2.430579669E+02  2.430579669E+02  0.000000000E+00  0.00000E+00  9.000E+00
      21    -1     0     0   501   502  0.000000000E+00  0.000000000E+00 -2.676174884E+02  2.676174884E+02  0.000000000E+00  0.00000E+00  9.000E+00
      25     1     1     2     0     0  3.197154651E+00  1.162634522E+02 -1.528480232E+02  2.291613630E+02  1.250000000E+02  0.00000E+00  9.000E+00
      25     1     1     2     0     0  2.612997182E+01 -1.190363321E+02  2.777585653E+01  1.767736462E+02  1.250000000E+02  0.00000E+00  9.000E+00
      21     1     1     2   501   511 -2.932712647E+01  2.772879893E+00  1.005126452E+02  1.047404461E+02  1.348699152E-06  0.00000E+00  9.000E+00
#rwgt            1           1   4.0367431132097974E-002           6      459631           0
</event>
<event>
      5   9999  3.79277E-02  2.36437E+01 -1.00000E+00  1.60587E-01
      21    -1     0     0   512   501  0.000000000E+00  0.000000000E+00  8.738955811E+02  8.738955811E+02  0.000000000E+00  0.00000E+00  9.000E+00
      21    -1     0     0   501   502  0.000000000E+00  0.000000000E+00 -1.026936307E+02  1.026936307E+02  0.000000000E+00  0.00000E+00  9.000E+00
      25     1     1     2     0     0  1.243722651E+02 -1.864417698E+01  6.412138362E+02  6.652790764E+02  1.250000000E+02  0.00000E+00  9.000E+00
      25     1     1     2     0     0 -1.208540894E+02  4.202470364E+01 -3.175959121E-01  1.788767383E+02  1.250000000E+02  0.00000E+00  9.000E+00
      21     1     1     2   512   502 -3.518175703E+00 -2.338052666E+01  1.303057101E+02  1.324333971E+02  1.907348633E-06  0.00000E+00  9.000E+00
#rwgt            1           1   3.8541535289278249E-002           6      459786           0
</event>
<event>
      5   9999  3.79277E-02  3.89404E+00 -1.00000E+00  2.66248E-01
      21    -1     0     0   502   501  0.000000000E+00  0.000000000E+00  1.690025215E+03  1.690025215E+03  0.000000000E+00  0.00000E+00  9.000E+00
      21    -1     0     0   501   511  0.000000000E+00  0.000000000E+00 -3.826051700E+02  3.826051700E+02  0.000000000E+00  0.00000E+00  9.000E+00
      25     1     1     2     0     0  8.631481018E+01  1.068883162E+02  1.147490576E+03  1.162426334E+03  1.250000000E+02  0.00000E+00  9.000E+00
      25     1     1     2     0     0 -8.572894315E+01 -1.107380314E+02  5.185918626E+02  5.515205193E+02  1.250000000E+02  0.00000E+00  9.000E+00
      21     1     1     2   502   511 -5.858670326E-01  3.849715178E+00 -3.586623938E+02  3.586835322E+02  3.814697266E-06  0.00000E+00  9.000E+00
#rwgt            1           1   4.1220444047672264E-002           6      459945           0
</event>
<event>
      5   9999  3.79277E-02  9.05336E+00 -1.00000E+00  2.00886E-01
      21    -1     0     0   512   501  0.000000000E+00  0.000000000E+00  6.958338923E+01  6.958338923E+01  0.000000000E+00  0.00000E+00  9.000E+00
      21    -1     0     0   501   502  0.000000000E+00  0.000000000E+00 -5.164566813E+02  5.164566813E+02  0.000000000E+00  0.00000E+00  9.000E+00
      25     1     1     2     0     0 -1.458326613E+01  5.222231636E+01 -3.566418216E+01  1.408430895E+02  1.250000000E+02  0.00000E+00  9.000E+00
      25     1     1     2     0     0  9.412615825E+00 -4.479077831E+01 -4.146641114E+02  4.355067582E+02  1.250000000E+02  0.00000E+00  9.000E+00
      21     1     1     2   512   502  5.170650307E+00 -7.431538049E+00  3.455001500E+00  9.690222791E+00  1.632340424E-07  0.00000E+00  9.000E+00
#rwgt            1           1   4.4257940555525795E-002           6      460383           0
</event>
<event>
      5   9999  3.79277E-02  1.45493E+01 -1.00000E+00  1.78641E-01
      21    -1     0     0   502   501  0.000000000E+00  0.000000000E+00  4.240377555E+02  4.240377555E+02  0.000000000E+00  0.00000E+00  9.000E+00
      21    -1     0     0   501   511  0.000000000E+00  0.000000000E+00 -9.597368674E+01  9.597368674E+01  0.000000000E+00  0.00000E+00  9.000E+00
      25     1     1     2     0     0 -7.419016377E+01 -3.263657217E+01  2.845350672E+02  3.211767904E+02  1.250000000E+02  0.00000E+00  9.000E+00
      25     1     1     2     0     0  7.510346273E+01  1.811594363E+01  7.439842354E+01  1.647083573E+02  1.250000000E+02  0.00000E+00  9.000E+00
      21     1     1     2   502   511 -9.132989556E-01  1.452062854E+01 -3.086942196E+01  3.412629456E+01  1.011524364E-06  0.00000E+00  9.000E+00
#rwgt            1           1   4.2371471243607468E-002           6      460618           0
</event>
<event>
      5   9999  3.79277E-02  6.47046E+01 -1.00000E+00  1.32975E-01
      21    -1     0     0   502   501  0.000000000E+00  0.000000000E+00  2.611870121E+02  2.611870121E+02  0.000000000E+00  0.00000E+00  9.000E+00
      21    -1     0     0   501   512  0.000000000E+00  0.000000000E+00 -2.930680227E+02  2.930680227E+02  0.000000000E+00  0.00000E+00  9.000E+00
      25     1     1     2     0     0 -3.653401739E+01 -1.262331224E+02 -5.269633601E+01  1.888688419E+02  1.250000000E+02  0.00000E+00  9.000E+00
      25     1     1     2     0     0  1.011707964E+02  1.232707306E+02  1.283727348E+02  2.398661337E+02  1.250000000E+02  0.00000E+00  9.000E+00
      21     1     1     2   502   512 -6.463677897E+01  2.962391755E+00 -1.075574094E+02  1.255200593E+02  0.000000000E+00  0.00000E+00  9.000E+00
#rwgt            1           1   4.4553402630308242E-002           6      460808           0
</event>
<event>
      5   9999  3.79277E-02  2.39307E+01 -1.00000E+00  1.60186E-01
      21    -1     0     0   502   511  0.000000000E+00  0.000000000E+00  7.299252290E+01  7.299252290E+01  0.000000000E+00  0.00000E+00  9.000E+00
      21    -1     0     0   501   502  0.000000000E+00  0.000000000E+00 -1.412896730E+03  1.412896730E+03  0.000000000E+00  0.00000E+00  9.000E+00
      25     1     1     2     0     0  1.722624171E+02 -3.025263648E+00 -1.157565857E+03  1.176973749E+03  1.250000000E+02  0.00000E+00  9.000E+00
      25     1     1     2     0     0 -1.660132810E+02 -2.007512092E+01 -1.914882474E+02  2.832951973E+02  1.250000000E+02  0.00000E+00  9.000E+00
      21     1     1     2   501   511 -6.249136095E+00  2.310038456E+01  9.149897565E+00  2.562030629E+01  1.086048314E-06  0.00000E+00  9.000E+00
#rwgt            1           1   8.0355537621213710E-002           6      460904           0
</event>
<event>
      5   9999  3.79277E-02  1.98037E+01 -1.00000E+00  1.66723E-01
      21    -1     0     0   502   501  0.000000000E+00  0.000000000E+00  4.918173432E+01  4.918173432E+01  0.000000000E+00  0.00000E+00  9.000E+00
      21    -1     0     0   501   512  0.000000000E+00  0.000000000E+00 -1.002069236E+03  1.002069236E+03  0.000000000E+00  0.00000E+00  9.000E+00
      25     1     1     2     0     0 -1.381590888E+02  4.816450344E+01 -2.457896627E+02  3.121623160E+02  1.250000000E+02  0.00000E+00  9.000E+00
      25     1     1     2     0     0  1.335186266E+02 -6.741689015E+01 -6.285194311E+02  6.580531407E+02  1.250000000E+02  0.00000E+00  9.000E+00
      21     1     1     2   502   512  4.640462254E+00  1.925238671E+01 -7.857840757E+01  8.103551333E+01  9.536743164E-07  0.00000E+00  9.000E+00
#rwgt            1           1   2.9341614747558368E-002           6      461027           0
</event>
<event>
      5   9999  3.79277E-02  3.82209E+01 -1.00000E+00  1.46076E-01
      21    -1     0     0   502   501  0.000000000E+00  0.000000000E+00  7.986222824E+01  7.986222824E+01  0.000000000E+00  0.00000E+00  9.000E+00
      21    -1     0     0   501   511  0.000000000E+00  0.000000000E+00 -5.599798712E+02  5.599798712E+02  0.000000000E+00  0.00000E+00  9.000E+00
      25     1     1     2     0     0  1.979751599E+01 -1.357813290E+02 -1.752660138E+02  2.552874586E+02  1.250000000E+02  0.00000E+00  9.000E+00
      25     1     1     2     0     0 -4.349223864E-01  1.028279087E+02 -1.359401654E+02  2.113728851E+02  1.250000000E+02  0.00000E+00  9.000E+00
      21     1     1     2   502   511 -1.936259360E+01  3.295342027E+01 -1.689114637E+02  1.731817557E+02  0.000000000E+00  0.00000E+00  9.000E+00
#rwgt            1           1   3.9767878801117353E-002           6      461200           0
</event>
<event>
      5   9999  3.79277E-02  1.28140E+02 -1.00000E+00  1.19171E-01
      21    -1     0     0   502   512  0.000000000E+00  0.000000000E+00  4.888562395E+02  4.888562395E+02  0.000000000E+00  0.00000E+00  9.000E+00
      21    -1     0     0   501   502  0.000000000E+00  0.000000000E+00 -1.437559610E+03  1.437559610E+03  0.000000000E+00  0.00000E+00  9.000E+00
      25     1     1     2     0     0 -1.040935313E+02 -1.775053253E+02 -2.894755874E+02  3.765165593E+02  1.250000000E+02  0.00000E+00  9.000E+00
      25     1     1     2     0     0  7.354369895E+01  3.019504262E+02 -1.069159826E+03  1.120406386E+03  1.250000000E+02  0.00000E+00  9.000E+00
      21     1     1     2   501   512  3.054983238E+01 -1.244451009E+02  4.099320428E+02  4.294929046E+02  5.394796609E-06  0.00000E+00  9.000E+00
#rwgt            1           1   2.9605148461481667E-002           6      461380           0
</event>
<event>
      5   9999  3.79277E-02  2.04632E+01 -1.00000E+00  1.65553E-01
      21    -1     0     0   502   511  0.000000000E+00  0.000000000E+00  2.111214388E+02  2.111214388E+02  0.000000000E+00  0.00000E+00  9.000E+00
      21    -1     0     0   501   502  0.000000000E+00  0.000000000E+00 -5.170750719E+02  5.170750719E+02  0.000000000E+00  0.00000E+00  9.000E+00
      25     1     1     2     0     0 -1.885097121E+01  2.134516174E+02 -1.091111282E+02  2.710114211E+02  1.250000000E+02  0.00000E+00  9.000E+00
      25     1     1     2     0     0  2.187104124E+01 -1.932124550E+02 -2.848424036E+02  3.668372801E+02  1.250000000E+02  0.00000E+00  9.000E+00
      21     1     1     2   501   511 -3.020070034E+00 -2.023916237E+01  8.799989867E+01  9.034780950E+01  2.132480600E-06  0.00000E+00  9.000E+00
#rwgt            1           1   1.5559716042735672E-002           6      461500           0
</event>
<event>
      5   9999  3.79277E-02  7.81487E+01 -1.00000E+00  1.28844E-01
      21    -1     0     0   502   501  0.000000000E+00  0.000000000E+00  1.645849383E+02  1.645849383E+02  0.000000000E+00  0.00000E+00  9.000E+00
       1    -1     0     0   501     0  0.000000000E+00  0.000000000E+00 -1.920836045E+03  1.920836045E+03  0.000000000E+00  0.00000E+00  9.000E+00
      25     1     1     2     0     0 -1.931565218E+00 -3.256137997E+02 -2.228692627E+02  4.139127755E+02  1.250000000E+02  0.00000E+00  9.000E+00
      25     1     1     2     0     0  9.953698785E+00  4.033496241E+02 -5.939358869E+02  7.288174210E+02  1.250000000E+02  0.00000E+00  9.000E+00
       1     1     1     2   502     0 -8.022133567E+00 -7.773582435E+01 -9.394459571E+02  9.426907867E+02  0.000000000E+00  0.00000E+00  9.000E+00
#rwgt            1           1   4.4521861521318644E-002           6      461699           0
</event>
<event>
      5   9999  3.79277E-02  6.07876E+01 -1.00000E+00  1.34401E-01
      21    -1     0     0   502   501  0.000000000E+00  0.000000000E+00  7.436561144E+01  7.436561144E+01  0.000000000E+00  0.00000E+00  9.000E+00
      21    -1     0     0   501   511  0.000000000E+00  0.000000000E+00 -1.529762067E+03  1.529762067E+03  0.000000000E+00  0.00000E+00  9.000E+00
      25     1     1     2     0     0 -1.365441743E+02  1.008603158E+02 -1.056183173E+03  1.077016718E+03  1.250000000E+02  0.00000E+00  9.000E+00
      25     1     1     2     0     0  8.025499947E+01 -7.791114777E+01 -5.345462557E+01  1.760494501E+02  1.250000000E+02  0.00000E+00  9.000E+00
      21     1     1     2   502   511  5.628917480E+01 -2.294916800E+01 -3.457586561E+02  3.510615100E+02  0.000000000E+00  0.00000E+00  9.000E+00
#rwgt            1           1   3.9659558650573030E-002           6      461799           0
</event>
<event>
      5   9999 -3.79277E-02  2.10639E+01 -1.00000E+00  1.64533E-01
      21    -1     0     0   502   512  0.000000000E+00  0.000000000E+00  6.536231740E+01  6.536231740E+01  0.000000000E+00  0.00000E+00  9.000E+00
      21    -1     0     0   501   502  0.000000000E+00  0.000000000E+00 -1.505566104E+03  1.505566104E+03  0.000000000E+00  0.00000E+00  9.000E+00
      25     1     1     2     0     0 -2.043245737E+02 -3.516475212E+00 -1.079406102E+03  1.105668771E+03  1.250000000E+02  0.00000E+00  9.000E+00
      25     1     1     2     0     0  1.840175939E+02 -2.079283685E+00 -3.776358236E+02  4.382928399E+02  1.250000000E+02  0.00000E+00  9.000E+00
      21     1     1     2   501   512  2.030697987E+01  5.595758897E+00  1.683813923E+01  2.696681075E+01  1.327458468E-06  0.00000E+00  9.000E+00
#rwgt            1           1 -0.10055851885296228                6      461909           0
</event>
<event>
      5   9999  3.79277E-02  1.45441E+01 -1.00000E+00  1.78656E-01
      21    -1     0     0   511   501  0.000000000E+00  0.000000000E+00  2.699852327E+02  2.699852327E+02  0.000000000E+00  0.00000E+00  9.000E+00
      21    -1     0     0   501   502  0.000000000E+00  0.000000000E+00 -2.194590132E+02  2.194590132E+02  0.000000000E+00  0.00000E+00  9.000E+00
      25     1     1     2     0     0  1.278867755E+02 -1.080867166E+02  1.398261725E+02  2.514241917E+02  1.250000000E+02  0.00000E+00  9.000E+00
      25     1     1     2     0     0 -1.294955597E+02  9.363185060E+01 -9.274196438E+01  2.230741926E+02  1.250000000E+02  0.00000E+00  9.000E+00
      21     1     1     2   511   502  1.608784240E+00  1.445486600E+01  3.442011460E+00  1.494586165E+01  2.269677253E-07  0.00000E+00  9.000E+00
#rwgt            1           1   3.9516853791226943E-002           6      462182           0
</event>
<event>
      5   9999  3.79277E-02  7.73906E+01 -1.00000E+00  1.29050E-01
      21    -1     0     0   512   501  0.000000000E+00  0.000000000E+00  1.057623340E+02  1.057623340E+02  0.000000000E+00  0.00000E+00  9.000E+00
      21    -1     0     0   501   502  0.000000000E+00  0.000000000E+00 -4.795971016E+02  4.795971016E+02  0.000000000E+00  0.00000E+00  9.000E+00
      25     1     1     2     0     0  7.672709535E+01 -7.365284041E+00 -2.494839913E+02  2.894970751E+02  1.250000000E+02  0.00000E+00  9.000E+00
      25     1     1     2     0     0 -1.293672909E+02  6.409546364E+01 -9.215939218E+01  2.120435757E+02  1.250000000E+02  0.00000E+00  9.000E+00
      21     1     1     2   512   502  5.264019556E+01 -5.673017960E+01 -3.219138408E+01  8.381878474E+01  8.259061849E-07  0.00000E+00  9.000E+00
#rwgt            1           1   4.0699501175547131E-002           6      462383           0
</event>
<event>
      5   9999 -3.79277E-02  1.84238E+01 -1.00000E+00  1.69365E-01
      21    -1     0     0   502   501  0.000000000E+00  0.000000000E+00  1.674883084E+03  1.674883084E+03  0.000000000E+00  0.00000E+00  9.000E+00
      21    -1     0     0   501   511  0.000000000E+00  0.000000000E+00 -5.549191835E+01  5.549191835E+01  0.000000000E+00  0.00000E+00  9.000E+00
      25     1     1     2     0     0  1.580145994E+02 -5.560836081E+01  2.894029174E+02  3.569873275E+02  1.250000000E+02  0.00000E+00  9.000E+00
      25     1     1     2     0     0 -1.403159494E+02  6.072636277E+01  1.338572417E+03  1.353062220E+03  1.250000000E+02  0.00000E+00  9.000E+00
      21     1     1     2   502   511 -1.769864994E+01 -5.118001956E+00 -8.584168580E+00  2.032545458E+01  7.348554138E-07  0.00000E+00  9.000E+00
#rwgt            1           1 -0.15517818166068723                6      462535           0
</event>
<event>
      5   9999  3.79277E-02  5.30694E+01 -1.00000E+00  1.37615E-01
       1    -1     0     0   502     0  0.000000000E+00  0.000000000E+00  4.396999575E+02  4.396999575E+02  0.000000000E+00  0.00000E+00  9.000E+00
      21    -1     0     0   501   502  0.000000000E+00  0.000000000E+00 -1.870286423E+02  1.870286423E+02  0.000000000E+00  0.00000E+00  9.000E+00
      25     1     1     2     0     0 -1.114525702E+02 -1.258485501E+01  1.813162032E+02  2.471449362E+02  1.250000000E+02  0.00000E+00  9.000E+00
      25     1     1     2     0     0  7.478723684E+01  5.095166899E+01 -1.107218612E+02  1.899303396E+02  1.250000000E+02  0.00000E+00  9.000E+00
       1     1     1     2   501     0  3.666533334E+01 -3.836681398E+01  1.820769733E+02  1.896533239E+02  2.697398305E-06  0.00000E+00  9.000E+00
#rwgt            1           1   5.0647167893291919E-002           6      462663           0
</event>
<event>
      5   9999  3.79277E-02  5.96637E+00 -1.00000E+00  2.25851E-01
      21    -1     0     0   511   501  0.000000000E+00  0.000000000E+00  8.121689324E+02  8.121689324E+02  0.000000000E+00  0.00000E+00  9.000E+00
      21    -1     0     0   501   502  0.000000000E+00  0.000000000E+00 -2.040208387E+02  2.040208387E+02  0.000000000E+00  0.00000E+00  9.000E+00
      25     1     1     2     0     0 -1.892127144E+02  4.348733894E+01 -1.068265243E+02  2.544199407E+02  1.250000000E+02  0.00000E+00  9.000E+00
      25     1     1     2     0     0  1.950489181E+02 -4.472682695E+01  5.730843674E+02  6.197541946E+02  1.250000000E+02  0.00000E+00  9.000E+00
      21     1     1     2   511   502 -5.836203764E+00  1.239488005E+00  1.418902506E+02  1.420156358E+02  2.697398305E-06  0.00000E+00  9.000E+00
#rwgt            1           1  0.11047881574997039                6      462749           0
</event>
<event>
      5   9999 -5.00696E-02  1.04634E+02 -1.00000E+00  1.22949E-01
      21    -1     0     0   502   501  0.000000000E+00  0.000000000E+00  1.449754980E+03  1.449754980E+03  0.000000000E+00  0.00000E+00  9.000E+00
      21    -1     0     0   512   502  0.000000000E+00  0.000000000E+00 -1.240969874E+02  1.240969874E+02  0.000000000E+00  0.00000E+00  9.000E+00
      25     1     1     2     0     0 -2.157621717E+02  7.317079538E+01  9.920289327E+02  1.025501674E+03  1.250000000E+02  0.00000E+00  9.000E+00
      25     1     1     2     0     0  2.887502207E+02  1.803058407E+00  1.800751982E+02  3.625355403E+02  1.250000000E+02  0.00000E+00  9.000E+00
      21     1     1     2   512   501 -7.298804894E+01 -7.497385379E+01  1.535538619E+02  1.858147533E+02  1.907348633E-06  0.00000E+00  9.000E+00
#rwgt            1           1 -0.73112058720487028                6      463154           0
</event>
<event>
      5   9999  3.79277E-02  7.08237E+01 -1.00000E+00  1.30964E-01
      21    -1     0     0   511   501  0.000000000E+00  0.000000000E+00  1.081661287E+03  1.081661287E+03  0.000000000E+00  0.00000E+00  9.000E+00
      21    -1     0     0   501   502  0.000000000E+00  0.000000000E+00 -1.234177739E+02  1.234177739E+02  0.000000000E+00  0.00000E+00  9.000E+00
      25     1     1     2     0     0  1.149357840E+02 -3.943723020E+00  1.733065505E+02  2.426642698E+02  1.250000000E+02  0.00000E+00  9.000E+00
      25     1     1     2     0     0 -9.902976895E+01 -6.507071698E+01 -2.046768546E+00  1.722506389E+02  1.250000000E+02  0.00000E+00  9.000E+00
      21     1     1     2   511   502 -1.590601502E+01  6.901444000E+01  7.869837311E+02  7.901641521E+02  1.078959322E-05  0.00000E+00  9.000E+00
#rwgt            1           1   4.5276004105281625E-002           6      463291           0
</event>
<event>
      5   9999  3.79277E-02  1.42651E+01 -1.00000E+00  1.79464E-01
      21    -1     0     0   502   501  0.000000000E+00  0.000000000E+00  1.653630640E+02  1.653630640E+02  0.000000000E+00  0.00000E+00  9.000E+00
      21    -1     0     0   512   502  0.000000000E+00  0.000000000E+00 -6.354806660E+02  6.354806660E+02  0.000000000E+00  0.00000E+00  9.000E+00
      25     1     1     2     0     0 -9.026089524E+01  7.570137086E+01  2.450704753E+00  1.717810604E+02  1.250000000E+02  0.00000E+00  9.000E+00
      25     1     1     2     0     0  8.588681934E+01 -8.927936268E+01 -2.096483793E+01  1.772339549E+02  1.250000000E+02  0.00000E+00  9.000E+00
      21     1     1     2   512   501  4.374075898E+00  1.357799182E+01 -4.516034688E+02  4.518287147E+02  7.629394531E-06  0.00000E+00  9.000E+00
#rwgt            1           1   4.3919859227452784E-002           6      463418           0
</event>
<event>
      5   9999  3.79277E-02  5.58570E+01 -1.00000E+00  1.36385E-01
      21    -1     0     0   511   501  0.000000000E+00  0.000000000E+00  7.924663610E+02  7.924663610E+02  0.000000000E+00  0.00000E+00  9.000E+00
      21    -1     0     0   501   502  0.000000000E+00  0.000000000E+00 -2.278402233E+02  2.278402233E+02  0.000000000E+00  0.00000E+00  9.000E+00
      25     1     1     2     0     0 -1.240427692E+02 -1.253517352E+02 -8.122109452E+01  2.309145563E+02  1.250000000E+02  0.00000E+00  9.000E+00
      25     1     1     2     0     0  1.103302719E+02  7.120409449E+01  4.611981969E+01  1.870690507E+02  1.250000000E+02  0.00000E+00  9.000E+00
      21     1     1     2   511   502  1.371249738E+01  5.414764068E+01  5.997274126E+02  6.023229773E+02  7.629394531E-06  0.00000E+00  9.000E+00
#rwgt            1           1   4.5119948133289206E-002           6      463721           0
</event>
<event>
      5   9999  3.79277E-02  1.04351E+02 -1.00000E+00  1.23002E-01
      21    -1     0     0   502   512  0.000000000E+00  0.000000000E+00  6.294022946E+02  6.294022946E+02  0.000000000E+00  0.00000E+00  9.000E+00
      21    -1     0     0   501   502  0.000000000E+00  0.000000000E+00 -5.291421403E+02  5.291421403E+02  0.000000000E+00  0.00000E+00  9.000E+00
      25     1     1     2     0     0  1.084082363E+02  6.612465583E+01 -4.256450131E+02  4.614363368E+02  1.250000000E+02  0.00000E+00  9.000E+00
      25     1     1     2     0     0 -7.833411638E+01  3.379872797E+01 -9.491819589E+00  1.516366791E+02  1.250000000E+02  0.00000E+00  9.000E+00
      21     1     1     2   501   512 -3.007411990E+01 -9.992338379E+01  5.353969870E+02  5.454714190E+02  7.629394531E-06  0.00000E+00  9.000E+00
#rwgt            1           1   4.6332628320203184E-002           6      463808           0
</event>
<event>
      5   9999  3.79277E-02  5.98538E+00 -1.00000E+00  2.25636E-01
      21    -1     0     0   511   501  0.000000000E+00  0.000000000E+00  6.554699849E+02  6.554699849E+02  0.000000000E+00  0.00000E+00  9.000E+00
      21    -1     0     0   501   502  0.000000000E+00  0.000000000E+00 -1.277419006E+03  1.277419006E+03  0.000000000E+00  0.00000E+00  9.000E+00
      25     1     1     2     0     0 -1.323415827E+01 -1.635929641E+01 -1.116379789E+03  1.123553115E+03  1.250000000E+02  0.00000E+00  9.000E+00
      25     1     1     2     0     0  1.919239514E+01  1.692863159E+01 -1.315869590E+02  1.832895370E+02  1.250000000E+02  0.00000E+00  9.000E+00
      21     1     1     2   511   502 -5.958236871E+00 -5.693351773E-01  6.260177265E+02  6.260463391E+02  1.078959322E-05  0.00000E+00  9.000E+00
#rwgt            1           1   4.5777558577593601E-002           6      463889           0
</event>
<event>
      5   9999  3.79277E-02  3.81047E+01 -1.00000E+00  1.46160E-01
      -5    -1     0     0     0   501  0.000000000E+00  0.000000000E+00  4.772308114E+01  4.772308114E+01  0.000000000E+00  0.00000E+00  9.000E+00
      21    -1     0     0   501   502  0.000000000E+00  0.000000000E+00 -1.326524704E+03  1.326524704E+03  0.000000000E+00  0.00000E+00  9.000E+00
      25     1     1     2     0     0 -1.541030216E+02  6.510415541E+01 -3.351840051E+02  3.949172187E+02  1.250000000E+02  0.00000E+00  9.000E+00
      25     1     1     2     0     0  1.423328127E+02 -1.013454542E+02 -8.734629265E+02  8.994954223E+02  1.250000000E+02  0.00000E+00  9.000E+00
      -5     1     1     2     0   502  1.177020896E+01  3.624129878E+01 -7.015469152E+01  7.983514451E+01  1.348699152E-06  0.00000E+00  9.000E+00
#rwgt            1           1   5.1384028751623477E-002           6      464163           0
</event>
<event>
      5   9999  3.79277E-02  5.21392E+01 -1.00000E+00  1.38045E-01
      21    -1     0     0   502   501  0.000000000E+00  0.000000000E+00  1.409163302E+02  1.409163302E+02  0.000000000E+00  0.00000E+00  9.000E+00
      21    -1     0     0   501   511  0.000000000E+00  0.000000000E+00 -8.387627775E+02  8.387627775E+02  0.000000000E+00  0.00000E+00  9.000E+00
      25     1     1     2     0     0  1.075477988E+01  1.230709575E+02  3.932716456E+01  1.800937304E+02  1.250000000E+02  0.00000E+00  9.000E+00
      25     1     1     2     0     0 -5.981796857E+00 -7.115067646E+01 -1.422503001E+02  2.023816902E+02  1.250000000E+02  0.00000E+00  9.000E+00
      21     1     1     2   502   511 -4.772983021E+00 -5.192028105E+01 -5.949233117E+02  5.972036870E+02  1.078959322E-05  0.00000E+00  9.000E+00
#rwgt            1           1   4.1448867770781446E-002           6      464325           0
</event>
<event>
      5   9999  3.79277E-02  3.04225E+01 -1.00000E+00  1.52619E-01
      21    -1     0     0   502   512  0.000000000E+00  0.000000000E+00  4.107860436E+01  4.107860436E+01  0.000000000E+00  0.00000E+00  9.000E+00
      21    -1     0     0   501   502  0.000000000E+00  0.000000000E+00 -1.786377686E+03  1.786377686E+03  0.000000000E+00  0.00000E+00  9.000E+00
      25     1     1     2     0     0 -6.180144138E+01 -1.636164821E+02 -1.262168618E+03  1.280345419E+03  1.250000000E+02  0.00000E+00  9.000E+00
      25     1     1     2     0     0  7.723983915E+01  1.374022953E+02 -4.746598599E+02  5.155311495E+02  1.250000000E+02  0.00000E+00  9.000E+00
      21     1     1     2   501   512 -1.543839776E+01  2.621418681E+01 -8.470603826E+00  3.157972205E+01  9.461944024E-07  0.00000E+00  9.000E+00
#rwgt            1           1   4.0458683119027936E-002           6      464459           0
</event>
<event>
      5   9999  3.79277E-02  3.08849E+01 -1.00000E+00  1.52168E-01
      21    -1     0     0   511   501  0.000000000E+00  0.000000000E+00  2.779679883E+03  2.779679883E+03  0.000000000E+00  0.00000E+00  9.000E+00
      21    -1     0     0   501   502  0.000000000E+00  0.000000000E+00 -4.469010847E+01  4.469010847E+01  0.000000000E+00  0.00000E+00  9.000E+00
      25     1     1     2     0     0 -6.402195438E+01  1.838581028E+02  4.031294536E+02  4.648020751E+02  1.250000000E+02  0.00000E+00  9.000E+00
      25     1     1     2     0     0  9.488795404E+01 -1.849370899E+02  1.062557116E+03  1.089889020E+03  1.250000000E+02  0.00000E+00  9.000E+00
      21     1     1     2   511   502 -3.086599967E+01  1.078987114E+00  1.269303205E+03  1.269678896E+03  2.157918644E-05  0.00000E+00  9.000E+00
#rwgt            1           1   3.0265964216696542E-002           6      464737           0
</event>
<event>
      5   9999  3.79277E-02  5.76393E+01 -1.00000E+00  1.35642E-01
      21    -1     0     0   502   501  0.000000000E+00  0.000000000E+00  5.746946328E+02  5.746946328E+02  0.000000000E+00  0.00000E+00  9.000E+00
      21    -1     0     0   512   502  0.000000000E+00  0.000000000E+00 -9.312571647E+02  9.312571647E+02  0.000000000E+00  0.00000E+00  9.000E+00
      25     1     1     2     0     0  4.325082213E+02  2.452310390E+02  2.399200140E+02  5.660284773E+02  1.250000000E+02  0.00000E+00  9.000E+00
      25     1     1     2     0     0 -4.494093894E+02 -3.003367798E+02 -2.860707713E+02  6.242054684E+02  1.250000000E+02  0.00000E+00  9.000E+00
      21     1     1     2   512   501  1.690116808E+01  5.510574077E+01 -3.104117746E+02  3.157178519E+02  5.394796609E-06  0.00000E+00  9.000E+00
#rwgt            1           1   1.8133629441771968E-002           6      464927           0
</event>
<event>
      5   9999  3.79277E-02  9.76555E+01 -1.00000E+00  1.24293E-01
      21    -1     0     0   502   501  0.000000000E+00  0.000000000E+00  7.168997290E+02  7.168997290E+02  0.000000000E+00  0.00000E+00  9.000E+00
      21    -1     0     0   501   511  0.000000000E+00  0.000000000E+00 -7.954297093E+01  7.954297093E+01  0.000000000E+00  0.00000E+00  9.000E+00
      25     1     1     2     0     0  1.786869882E+01 -1.127547740E+02  4.892173638E+02  5.176790111E+02  1.250000000E+02  0.00000E+00  9.000E+00
      25     1     1     2     0     0  5.212527533E+00  1.786613369E+01  3.888114637E+01  1.322237222E+02  1.250000000E+02  0.00000E+00  9.000E+00
      21     1     1     2   502   511 -2.308122635E+01  9.488864035E+01  1.092582478E+02  1.465399666E+02  2.336015456E-06  0.00000E+00  9.000E+00
#rwgt            1           1   4.4486421190203579E-003           6      465082           0
</event>
<event>
      5   9999  3.79277E-02  1.25722E+01 -1.00000E+00  1.84926E-01
      21    -1     0     0   502   512  0.000000000E+00  0.000000000E+00  4.611756625E+02  4.611756625E+02  0.000000000E+00  0.00000E+00  9.000E+00
      21    -1     0     0   501   502  0.000000000E+00  0.000000000E+00 -9.318558723E+02  9.318558723E+02  0.000000000E+00  0.00000E+00  9.000E+00
      25     1     1     2     0     0 -1.506971959E+01  1.048382980E+02 -5.059447843E+01  1.714729321E+02  1.250000000E+02  0.00000E+00  9.000E+00
      25     1     1     2     0     0  2.497492398E+00 -1.048309629E+02 -8.126125713E+02  8.288304768E+02  1.250000000E+02  0.00000E+00  9.000E+00
      21     1     1     2   501   512  1.257222719E+01 -7.335132833E-03  3.925268398E+02  3.927281260E+02  0.000000000E+00  0.00000E+00  9.000E+00
#rwgt            1           1   4.9652284627965199E-002           6      465167           0
</event>
<event>
      5   9999  3.79277E-02  3.15380E+01 -1.00000E+00  1.51547E-01
      21    -1     0     0   511   501  0.000000000E+00  0.000000000E+00  1.433568606E+03  1.433568606E+03  0.000000000E+00  0.00000E+00  9.000E+00
      21    -1     0     0   501   502  0.000000000E+00  0.000000000E+00 -7.536941776E+01  7.536941776E+01  0.000000000E+00  0.00000E+00  9.000E+00
      25     1     1     2     0     0 -5.786916145E+01  2.382692006E+02  4.999378028E+02  5.706871809E+02  1.250000000E+02  0.00000E+00  9.000E+00
      25     1     1     2     0     0  3.113201984E+01 -2.215428016E+02  3.764066529E+02  4.553651106E+02  1.250000000E+02  0.00000E+00  9.000E+00
      21     1     1     2   511   502  2.673714161E+01 -1.672639901E+01  4.818547327E+02  4.828857325E+02  7.629394531E-06  0.00000E+00  9.000E+00
#rwgt            1           1   2.7673718554591258E-002           6      465336           0
</event>
<event>
      5   9999  3.79277E-02  5.31309E+01 -1.00000E+00  1.37587E-01
      21    -1     0     0   502   501  0.000000000E+00  0.000000000E+00  5.831739736E+02  5.831739736E+02  0.000000000E+00  0.00000E+00  9.000E+00
      21    -1     0     0   501   512  0.000000000E+00  0.000000000E+00 -9.846418783E+01  9.846418783E+01  0.000000000E+00  0.00000E+00  9.000E+00
      25     1     1     2     0     0  1.824391353E+02  1.482716338E+01  2.786439316E+02  3.560496082E+02  1.250000000E+02  0.00000E+00  9.000E+00
      25     1     1     2     0     0 -1.519083230E+02  2.865567008E+01  1.670886980E+02  2.596938948E+02  1.250000000E+02  0.00000E+00  9.000E+00
      21     1     1     2   502   512 -3.053081227E+01 -4.348283346E+01  3.897715614E+01  6.589465839E+01  8.259061849E-07  0.00000E+00  9.000E+00
#rwgt            1           1   4.0352138257278534E-002           6      465468           0
</event>
<event>
      5   9999  3.79277E-02  7.03529E+01 -1.00000E+00  1.31110E-01
      21    -1     0     0   502   511  0.000000000E+00  0.000000000E+00  4.602778576E+02  4.602778576E+02  0.000000000E+00  0.00000E+00  9.000E+00
      21    -1     0     0   501   502  0.000000000E+00  0.000000000E+00 -1.956930680E+02  1.956930680E+02  0.000000000E+00  0.00000E+00  9.000E+00
      25     1     1     2     0     0 -2.829655414E+01 -1.494656640E+02 -1.833800299E+01  1.977421605E+02  1.250000000E+02  0.00000E+00  9.000E+00
      25     1     1     2     0     0 -2.915821515E+01  1.900672062E+02  7.909994690E+01  2.426057419E+02  1.250000000E+02  0.00000E+00  9.000E+00
      21     1     1     2   501   511  5.745476930E+01 -4.060154216E+01  2.038228456E+02  2.156230232E+02  0.000000000E+00  0.00000E+00  9.000E+00
#rwgt            1           1   4.8074463940421808E-002           6      465742           0
</event>
<event>
      5   9999  3.79277E-02  7.30001E+01 -1.00000E+00  1.30304E-01
      21    -1     0     0   502   501  0.000000000E+00  0.000000000E+00  2.620917479E+03  2.620917479E+03  0.000000000E+00  0.00000E+00  9.000E+00
      21    -1     0     0   512   502  0.000000000E+00  0.000000000E+00 -5.955128919E+01  5.955128919E+01  0.000000000E+00  0.00000E+00  9.000E+00
      25     1     1     2     0     0  1.429342896E+02 -1.888320930E+02  5.320867791E+02  5.956753402E+02  1.250000000E+02  0.00000E+00  9.000E+00
      25     1     1     2     0     0 -2.017603674E+02  2.320583638E+02  1.945747507E+03  1.973858326E+03  1.250000000E+02  0.00000E+00  9.000E+00
      21     1     1     2   512   501  5.882607783E+01 -4.322627081E+01  8.353190396E+01  1.109351022E+02  1.651812370E-06  0.00000E+00  9.000E+00
#rwgt            1           1   8.0290193394604206E-002           6      465883           0
</event>
<event>
      5   9999  3.79277E-02  2.51917E+01 -1.00000E+00  1.58503E-01
      21    -1     0     0   502   501  0.000000000E+00  0.000000000E+00  1.226868934E+02  1.226868934E+02  0.000000000E+00  0.00000E+00  9.000E+00
      21    -1     0     0   511   502  0.000000000E+00  0.000000000E+00 -5.922201978E+02  5.922201978E+02  0.000000000E+00  0.00000E+00  9.000E+00
      25     1     1     2     0     0  2.088629570E+02  8.208196390E+01 -2.290324949E+02  3.441541330E+02  1.250000000E+02  0.00000E+00  9.000E+00
      25     1     1     2     0     0 -2.156864644E+02 -5.783201249E+01 -2.089515692E+02  3.303800098E+02  1.250000000E+02  0.00000E+00  9.000E+00
      21     1     1     2   511   501  6.823507469E+00 -2.424995141E+01 -3.154924028E+01  4.037294837E+01  3.371747881E-07  0.00000E+00  9.000E+00
#rwgt            1           1   3.4167649866493871E-002           6      466232           0
</event>
<event>
      5   9999  3.79277E-02  2.52595E+01 -1.00000E+00  1.58416E-01
      21    -1     0     0   502   501  0.000000000E+00  0.000000000E+00  1.922978784E+02  1.922978784E+02  0.000000000E+00  0.00000E+00  9.000E+00
      21    -1     0     0   512   502  0.000000000E+00  0.000000000E+00 -3.736291091E+02  3.736291091E+02  0.000000000E+00  0.00000E+00  9.000E+00
      25     1     1     2     0     0  1.269012081E+02 -7.439026336E+00 -7.015540007E+01  1.915881935E+02  1.250000000E+02  0.00000E+00  9.000E+00
      25     1     1     2     0     0 -1.016752796E+02  8.740166962E+00  8.096849141E+01  1.805412684E+02  1.250000000E+02  0.00000E+00  9.000E+00
      21     1     1     2   512   501 -2.522592850E+01 -1.301140626E+00 -1.921443221E+02  1.937975256E+02  2.697398305E-06  0.00000E+00  9.000E+00
#rwgt            1           1   4.0227492903046128E-002           6      466403           0
</event>
<event>
      5   9999  3.79277E-02  7.65836E+01 -1.00000E+00  1.29274E-01
      21    -1     0     0   511   501  0.000000000E+00  0.000000000E+00  1.598069371E+02  1.598069371E+02  0.000000000E+00  0.00000E+00  9.000E+00
      21    -1     0     0   501   502  0.000000000E+00  0.000000000E+00 -1.458676730E+03  1.458676730E+03  0.000000000E+00  0.00000E+00  9.000E+00
      25     1     1     2     0     0  2.956147930E+01 -2.354587056E+02 -5.505370692E+02  6.123975406E+02  1.250000000E+02  0.00000E+00  9.000E+00
      25     1     1     2     0     0  4.500542844E+01  2.179996023E+02 -8.450208036E+02  8.827425863E+02  1.250000000E+02  0.00000E+00  9.000E+00
      21     1     1     2   511   502 -7.456690774E+01  1.745910329E+01  9.668808013E+01  1.233435400E+02  5.394796609E-06  0.00000E+00  9.000E+00
#rwgt            1           1   2.5282827662473591E-002           6      466623           0
</event>
<event>
      5   9999  3.79277E-02  1.36533E+02 -1.00000E+00  1.18036E-01
      21    -1     0     0   502   501  0.000000000E+00  0.000000000E+00  4.818286405E+02  4.818286405E+02  0.000000000E+00  0.00000E+00  9.000E+00
      21    -1     0     0   501   512  0.000000000E+00  0.000000000E+00 -4.157883354E+02  4.157883354E+02  0.000000000E+00  0.00000E+00  9.000E+00
      25     1     1     2     0     0  4.654132720E+00 -1.118624530E+02  3.898136848E+02  4.243990790E+02  1.250000000E+02  0.00000E+00  9.000E+00
      25     1     1     2     0     0  6.447203002E+01 -5.878423450E+00 -2.264113688E+01  1.425791696E+02  1.250000000E+02  0.00000E+00  9.000E+00
      21     1     1     2   502   512 -6.912616274E+01  1.177408765E+02 -3.011322428E+02  3.306387273E+02  3.814697266E-06  0.00000E+00  9.000E+00
#rwgt            1           1   2.7343011990117124E-002           6      466729           0
</event>
<event>
      5   9999  3.79277E-02  3.84109E+01 -1.00000E+00  1.45941E-01
      21    -1     0     0   502   511  0.000000000E+00  0.000000000E+00  9.740659116E+02  9.740659116E+02  0.000000000E+00  0.00000E+00  9.000E+00
      21    -1     0     0   501   502  0.000000000E+00  0.000000000E+00 -4.342983926E+02  4.342983926E+02  0.000000000E+00  0.00000E+00  9.000E+00
      25     1     1     2     0     0  3.936042566E+00  1.894446981E+02 -7.943839052E+01  2.404999874E+02  1.250000000E+02  0.00000E+00  9.000E+00
      25     1     1     2     0     0  7.768903501E-01 -1.513239807E+02 -2.387364590E+02  3.090625302E+02  1.250000000E+02  0.00000E+00  9.000E+00
      21     1     1     2   501   511 -4.712932916E+00 -3.812071735E+01  8.579423686E+02  8.588017866E+02  1.078959322E-05  0.00000E+00  9.000E+00
#rwgt            1           1   3.6096954540954726E-002           6      466778           0
</event>
<event>
      5   9999  3.79277E-02  1.45691E+01 -1.00000E+00  1.78584E-01
      21    -1     0     0   502   501  0.000000000E+00  0.000000000E+00  7.237515392E+01  7.237515392E+01  0.000000000E+00  0.00000E+00  9.000E+00
      21    -1     0     0   501   512  0.000000000E+00  0.000000000E+00 -1.539251115E+03  1.539251115E+03  0.000000000E+00  0.00000E+00  9.000E+00
      25     1     1     2     0     0 -1.782096224E+02  1.814611352E+02 -4.606865053E+02  5.408732469E+02  1.250000000E+02  0.00000E+00  9.000E+00
      25     1     1     2     0     0  1.909331246E+02 -1.743638687E+02 -6.092827245E+02  6.735789895E+02  1.250000000E+02  0.00000E+00  9.000E+00
      21     1     1     2   502   512 -1.272350224E+01 -7.097266569E+00 -3.969067309E+02  3.971740321E+02  0.000000000E+00  0.00000E+00  9.000E+00
#rwgt            1           1   4.2429472697911724E-002           6      466913           0
</event>
<event>
      5   9999  3.79277E-02  1.22407E+01 -1.00000E+00  1.86126E-01
      21    -1     0     0   502   501  0.000000000E+00  0.000000000E+00  7.305845242E+01  7.305845242E+01  0.000000000E+00  0.00000E+00  9.000E+00
      21    -1     0     0   511   502  0.000000000E+00  0.000000000E+00 -5.307207819E+02  5.307207819E+02  0.000000000E+00  0.00000E+00  9.000E+00
      25     1     1     2     0     0  8.083661945E+01 -1.077098152E+02 -3.040906371E+02  3.552915407E+02  1.250000000E+02  0.00000E+00  9.000E+00
      25     1     1     2     0     0 -6.969871903E+01  1.026323042E+02 -1.209562596E+02  2.136509257E+02  1.250000000E+02  0.00000E+00  9.000E+00
      21     1     1     2   511   501 -1.113790042E+01  5.077511032E+00 -3.261543276E+01  3.483676791E+01  0.000000000E+00  0.00000E+00  9.000E+00
#rwgt            1           1  0.17736355390174932                6      467231           0
</event>
<event>
      5   9999  3.79277E-02  7.79039E+01 -1.00000E+00  1.28910E-01
      21    -1     0     0   502   501  0.000000000E+00  0.000000000E+00  3.009294193E+02  3.009294193E+02  0.000000000E+00  0.00000E+00  9.000E+00
      21    -1     0     0   512   502  0.000000000E+00  0.000000000E+00 -1.692958521E+02  1.692958521E+02  0.000000000E+00  0.00000E+00  9.000E+00
      25     1     1     2     0     0 -1.185018094E+02 -1.969926951E+01  3.236968540E+01  1.763619477E+02  1.250000000E+02  0.00000E+00  9.000E+00
      25     1     1     2     0     0  8.116617390E+01  8.807369284E+01  1.230672855E+02  2.124040487E+02  1.250000000E+02  0.00000E+00  9.000E+00
      21     1     1     2   512   501  3.733563553E+01 -6.837442333E+01 -2.380340365E+01  8.145927493E+01  7.539457465E-07  0.00000E+00  9.000E+00
#rwgt            1           1   9.5806446944090531E-002           6      467491           0
</event>
<event>
      5   9999  3.79277E-02  6.85488E+01 -1.00000E+00  1.31683E-01
      21    -1     0     0   502   501  0.000000000E+00  0.000000000E+00  9.916093819E+02  9.916093819E+02  0.000000000E+00  0.00000E+00  9.000E+00
      -3    -1     0     0     0   502  0.000000000E+00  0.000000000E+00 -2.367015824E+02  2.367015824E+02  0.000000000E+00  0.00000E+00  9.000E+00
      25     1     1     2     0     0  3.795817011E+01 -4.689165199E+01  8.571477464E+02  8.683126792E+02  1.250000000E+02  0.00000E+00  9.000E+00
      25     1     1     2     0     0 -1.035116129E+02  6.693364694E+01  5.866661096E+01  1.850987260E+02  1.250000000E+02  0.00000E+00  9.000E+00
      -3     1     1     2     0   501  6.555344284E+01 -2.004199495E+01 -1.609065579E+02  1.748995591E+02  1.907348633E-06  0.00000E+00  9.000E+00
#rwgt            1           1   4.2691814851779183E-002           6      467577           0
</event>
<event>
      5   9999  3.79277E-02  1.02371E+02 -1.00000E+00  1.23372E-01
      21    -1     0     0   502   501  0.000000000E+00  0.000000000E+00  1.076534062E+02  1.076534062E+02  0.000000000E+00  0.00000E+00  9.000E+00
      21    -1     0     0   501   511  0.000000000E+00  0.000000000E+00 -1.069367307E+03  1.069367307E+03  0.000000000E+00  0.00000E+00  9.000E+00
      25     1     1     2     0     0 -8.080801728E+01  1.679534610E+02 -4.182364332E+02  4.746419859E+02  1.250000000E+02  0.00000E+00  9.000E+00
      25     1     1     2     0     0 -6.141614197E+00 -1.139195686E+02 -2.166100158E+01  1.706153174E+02  1.250000000E+02  0.00000E+00  9.000E+00
      21     1     1     2   502   511  8.694963148E+01 -5.403389240E+01 -5.218164659E+02  5.317634098E+02  0.000000000E+00  0.00000E+00  9.000E+00
#rwgt            1           1   3.7261614580985800E-002           6      467688           0
</event>
<event>
      5   9999  3.79277E-02  3.02184E+01 -1.00000E+00  1.52821E-01
      21    -1     0     0   502   512  0.000000000E+00  0.000000000E+00  3.528343757E+02  3.528343757E+02  0.000000000E+00  0.00000E+00  9.000E+00
      21    -1     0     0   501   502  0.000000000E+00  0.000000000E+00 -1.624417827E+02  1.624417827E+02  0.000000000E+00  0.00000E+00  9.000E+00
      25     1     1     2     0     0 -1.071951658E+02  1.128546496E+02  8.371661896E+01  2.164727415E+02  1.250000000E+02  0.00000E+00  9.000E+00
      25     1     1     2     0     0  1.067280485E+02 -1.430694148E+02  3.458776028E+01  2.206378185E+02  1.250000000E+02  0.00000E+00  9.000E+00
      21     1     1     2   501   512  4.671173902E-01  3.021476520E+01  7.208821371E+01  7.816559851E+01  1.348699152E-06  0.00000E+00  9.000E+00
#rwgt            1           1   6.7626316399685180E-002           6      467814           0
</event>
<event>
      5   9999 -3.79277E-02  2.96668E+01 -1.00000E+00  1.53378E-01
      21    -1     0     0   502   501  0.000000000E+00  0.000000000E+00  7.951139444E+02  7.951139444E+02  0.000000000E+00  0.00000E+00  9.000E+00
      21    -1     0     0   501   511  0.000000000E+00  0.000000000E+00 -1.550327847E+02  1.550327847E+02  0.000000000E+00  0.00000E+00  9.000E+00
      25     1     1     2     0     0  5.885834420E+01  2.769006859E+02  4.221556229E+02  5.234297130E+02  1.250000000E+02  0.00000E+00  9.000E+00
      25     1     1     2     0     0 -7.406089046E+01 -3.023761787E+02  2.108066935E+02  3.962080653E+02  1.250000000E+02  0.00000E+00  9.000E+00
      21     1     1     2   502   511  1.520254627E+01  2.547549283E+01  7.118843251E+00  3.050895077E+01  4.693274423E-07  0.00000E+00  9.000E+00
#rwgt            1           1 -0.26288958686456143                6      467949           0
</event>
<event>
      5   9999  3.79277E-02  8.19440E+00 -1.00000E+00  2.06316E-01
      21    -1     0     0   502   501  0.000000000E+00  0.000000000E+00  1.253130114E+02  1.253130114E+02  0.000000000E+00  0.00000E+00  9.000E+00
      21    -1     0     0   501   512  0.000000000E+00  0.000000000E+00 -4.891040363E+02  4.891040363E+02  0.000000000E+00  0.00000E+00  9.000E+00
      25     1     1     2     0     0 -5.346264157E+01  1.647827479E+02 -2.906478165E+02  3.607114654E+02  1.250000000E+02  0.00000E+00  9.000E+00
      25     1     1     2     0     0  5.582457388E+01 -1.569361267E+02 -3.073293454E+01  2.105109122E+02  1.250000000E+02  0.00000E+00  9.000E+00
      21     1     1     2   502   512 -2.361932309E+00 -7.846621239E+00 -4.241027390E+01  4.319467006E+01  4.768371582E-07  0.00000E+00  9.000E+00
#rwgt            1           1   5.2439635059159162E-002           6      468128           0
</event>
<event>
      5   9999  3.79277E-02  3.33675E+01 -1.00000E+00  1.49899E-01
      21    -1     0     0   502   511  0.000000000E+00  0.000000000E+00  2.261670329E+02  2.261670329E+02  0.000000000E+00  0.00000E+00  9.000E+00
      21    -1     0     0   501   502  0.000000000E+00  0.000000000E+00 -1.046653856E+03  1.046653856E+03  0.000000000E+00  0.00000E+00  9.000E+00
      25     1     1     2     0     0  9.188703690E+01  2.066425674E+02 -3.098422909E+02  4.034496542E+02  1.250000000E+02  0.00000E+00  9.000E+00
      25     1     1     2     0     0 -1.157112869E+02 -1.832802587E+02 -6.654891254E+02  7.109722436E+02  1.250000000E+02  0.00000E+00  9.000E+00
      21     1     1     2   501   511  2.382424996E+01 -2.336230872E+01  1.548445932E+02  1.583989912E+02  3.303624740E-06  0.00000E+00  9.000E+00
#rwgt            1           1   1.1093639906883198E-002           6      468553           0
</event>
<event>
      5   9999  3.79277E-02  2.77478E+01 -1.00000E+00  1.55432E-01
      21    -1     0     0   502   501  0.000000000E+00  0.000000000E+00  3.109604529E+02  3.109604529E+02  0.000000000E+00  0.00000E+00  9.000E+00
      21    -1     0     0   501   512  0.000000000E+00  0.000000000E+00 -7.192545679E+02  7.192545679E+02  0.000000000E+00  0.00000E+00  9.000E+00
      25     1     1     2     0     0  1.217541279E+02 -1.715232790E+01 -1.037296602E+02  2.037231269E+02  1.250000000E+02  0.00000E+00  9.000E+00
      25     1     1     2     0     0 -1.370211535E+02  4.032249928E+01  2.260410205E+02  2.951613854E+02  1.250000000E+02  0.00000E+00  9.000E+00
      21     1     1     2   502   512  1.526702565E+01 -2.317017138E+01 -5.306054753E+02  5.313305085E+02  0.000000000E+00  0.00000E+00  9.000E+00
#rwgt            1           1   3.8574240200188938E-002           6      468746           0
</event>
<event>
      5   9999  3.79277E-02  2.92646E+01 -1.00000E+00  1.53792E-01
      21    -1     0     0   502   501  0.000000000E+00  0.000000000E+00  1.947383815E+02  1.947383815E+02  0.000000000E+00  0.00000E+00  9.000E+00
      -4    -1     0     0     0   502  0.000000000E+00  0.000000000E+00 -3.317795303E+02  3.317795303E+02  0.000000000E+00  0.00000E+00  9.000E+00
      25     1     1     2     0     0  1.460174171E+02 -4.306764529E+01  7.709035883E+01  2.115273779E+02  1.250000000E+02  0.00000E+00  9.000E+00
      25     1     1     2     0     0 -1.287128151E+02  1.946752101E+01 -1.207831853E+02  2.171624990E+02  1.250000000E+02  0.00000E+00  9.000E+00
      -4     1     1     2     0   501 -1.730460202E+01  2.360012428E+01 -9.334832232E+01  9.782803482E+01  1.348699152E-06  0.00000E+00  9.000E+00
#rwgt            1           1   4.4238356632885077E-002           6      468922           0
</event>
<event>
      5   9999  3.79277E-02  1.22636E+02 -1.00000E+00  1.19969E-01
      21    -1     0     0   502   511  0.000000000E+00  0.000000000E+00  1.927429271E+03  1.927429271E+03  0.000000000E+00  0.00000E+00  9.000E+00
      21    -1     0     0   501   502  0.000000000E+00  0.000000000E+00 -4.165906524E+01  4.165906524E+01  0.000000000E+00  0.00000E+00  9.000E+00
      25     1     1     2     0     0  1.590442147E+02  1.085484757E+02  4.644941594E+02  5.181289974E+02  1.250000000E+02  0.00000E+00  9.000E+00
      25     1     1     2     0     0 -1.136145869E+02  5.362519246E+00  7.883030199E+02  8.062156548E+02  1.250000000E+02  0.00000E+00  9.000E+00
      21     1     1     2   501   511 -4.542962786E+01 -1.139109949E+02  6.329730270E+02  6.447436845E+02  7.629394531E-06  0.00000E+00  9.000E+00
#rwgt            1           1  0.18855073703216910                6      469101           0
</event>
<event>
      5   9999  3.79277E-02  7.51269E+01 -1.00000E+00  1.29685E-01
      21    -1     0     0   502   501  0.000000000E+00  0.000000000E+00  1.527973771E+03  1.527973771E+03  0.000000000E+00  0.00000E+00  9.000E+00
      21    -1     0     0   501   512  0.000000000E+00  0.000000000E+00 -6.781247247E+01  6.781247247E+01  0.000000000E+00  0.00000E+00  9.000E+00
      25     1     1     2     0     0  1.348575525E+02 -4.337816345E+01  1.286260195E+03  1.300060965E+03  1.250000000E+02  0.00000E+00  9.000E+00
      25     1     1     2     0     0 -6.944797838E+01  8.033271154E+01  1.165443415E+02  2.012062369E+02  1.250000000E+02  0.00000E+00  9.000E+00
      21     1     1     2   502   512 -6.540957412E+01 -3.695454810E+01  5.735676236E+01  9.451904147E+01  1.168007728E-06  0.00000E+00  9.000E+00
#rwgt            1           1   1.6018716752325197E-002           6      469166           0
</event>
<event>
      5   9999  3.79277E-02  5.06346E+00 -1.00000E+00  2.37563E-01
       2    -1     0     0   502     0  0.000000000E+00  0.000000000E+00  9.371352041E+02  9.371352041E+02  0.000000000E+00  0.00000E+00  9.000E+00
      21    -1     0     0   501   502  0.000000000E+00  0.000000000E+00 -3.257659371E+02  3.257659371E+02  0.000000000E+00  0.00000E+00  9.000E+00
      25     1     1     2     0     0 -3.901324984E+01  2.350848729E+02 -9.948629146E+01  2.868962414E+02  1.250000000E+02  0.00000E+00  9.000E+00
      25     1     1     2     0     0  4.115479376E+01 -2.304965831E+02  2.881314052E-01  2.654194320E+02  1.250000000E+02  0.00000E+00  9.000E+00
       2     1     1     2   501     0 -2.141543912E+00 -4.588289800E+00  7.105674270E+02  7.105854677E+02  1.321449896E-05  0.00000E+00  9.000E+00
#rwgt            1           1   2.7869066023469974E-002           6      469240           0
</event>
<event>
      5   9999  3.79277E-02  2.06567E+02 -1.00000E+00  1.11140E-01
      21    -1     0     0   502   501  0.000000000E+00  0.000000000E+00  2.169342626E+02  2.169342626E+02  0.000000000E+00  0.00000E+00  9.000E+00
       2    -1     0     0   501     0  0.000000000E+00  0.000000000E+00 -1.968521683E+03  1.968521683E+03  0.000000000E+00  0.00000E+00  9.000E+00
      25     1     1     2     0     0 -3.985509278E+02 -2.564710461E+02 -6.639113044E+02  8.252414553E+02  1.250000000E+02  0.00000E+00  9.000E+00
      25     1     1     2     0     0  3.724188433E+02  5.156358232E+01 -1.906097268E+02  4.396722254E+02  1.250000000E+02  0.00000E+00  9.000E+00
       2     1     1     2   502     0  2.613208447E+01  2.049074638E+02 -8.970663889E+02  9.205422645E+02  1.525878906E-05  0.00000E+00  9.000E+00
#rwgt            2          13   9.3887114211621743E-004           6      469645           0
</event>
<event>
      5   9999  3.79277E-02  4.36348E+01 -1.00000E+00  1.42536E-01
      21    -1     0     0   502   511  0.000000000E+00  0.000000000E+00  1.110981916E+02  1.110981916E+02  0.000000000E+00  0.00000E+00  9.000E+00
      21    -1     0     0   501   502  0.000000000E+00  0.000000000E+00 -5.269440201E+02  5.269440201E+02  0.000000000E+00  0.00000E+00  9.000E+00
      25     1     1     2     0     0  2.037457202E+01  1.788101794E+02 -1.504215941E+02  2.657816009E+02  1.250000000E+02  0.00000E+00  9.000E+00
      25     1     1     2     0     0 -4.646076359E+01 -1.438314760E+02 -2.636275851E+02  3.285888003E+02  1.250000000E+02  0.00000E+00  9.000E+00
      21     1     1     2   501   511  2.608619156E+01 -3.497870340E+01 -1.796649296E+00  4.367181048E+01  1.115100797E-07  0.00000E+00  9.000E+00
#rwgt            1           1   3.7373784700753573E-002           6      469784           0
</event>
<event>
      5   9999  3.79277E-02  4.81755E+01 -1.00000E+00  1.40003E-01
       2    -1     0     0   502     0  0.000000000E+00  0.000000000E+00  5.678563635E+02  5.678563635E+02  0.000000000E+00  0.00000E+00  9.000E+00
      21    -1     0     0   501   502  0.000000000E+00  0.000000000E+00 -1.047194364E+02  1.047194364E+02  0.000000000E+00  0.00000E+00  9.000E+00
      25     1     1     2     0     0  7.564452688E+01 -1.490388524E+02  9.277872456E+01  2.284022016E+02  1.250000000E+02  0.00000E+00  9.000E+00
      25     1     1     2     0     0 -3.421296490E+01  1.244561968E+02  2.082122085E+02  2.750221730E+02  1.250000000E+02  0.00000E+00  9.000E+00
       2     1     1     2   501     0 -4.143156198E+01  2.458265559E+01  1.621459941E+02  1.691514253E+02  1.907348633E-06  0.00000E+00  9.000E+00
#rwgt            1           1   3.8479433516922353E-002           6      469899           0
</event>
<event>
      5   9999  3.79277E-02  4.55287E+01 -1.00000E+00  1.41437E-01
      21    -1     0     0   502   501  0.000000000E+00  0.000000000E+00  4.700367116E+02  4.700367116E+02  0.000000000E+00  0.00000E+00  9.000E+00
      21    -1     0     0   511   502  0.000000000E+00  0.000000000E+00 -2.061860723E+02  2.061860723E+02  0.000000000E+00  0.00000E+00  9.000E+00
      25     1     1     2     0     0 -9.354879220E+01 -4.215021644E+01  3.797837571E+02  4.127816849E+02  1.250000000E+02  0.00000E+00  9.000E+00
      25     1     1     2     0     0  1.343137034E+02  2.187507784E+01 -1.155043704E+02  2.179104163E+02  1.250000000E+02  0.00000E+00  9.000E+00
      21     1     1     2   511   501 -4.076491123E+01  2.027513860E+01 -4.287473603E-01  4.553068259E+01  6.142324799E-07  0.00000E+00  9.000E+00
#rwgt            1           1   3.6656866446654779E-002           6      470030           0
</event>
<event>
      5   9999  3.79277E-02  4.16380E+01 -1.00000E+00  1.43767E-01
      21    -1     0     0   512   501  0.000000000E+00  0.000000000E+00  7.569744594E+02  7.569744594E+02  0.000000000E+00  0.00000E+00  9.000E+00
      21    -1     0     0   501   502  0.000000000E+00  0.000000000E+00 -1.126201016E+02  1.126201016E+02  0.000000000E+00  0.00000E+00  9.000E+00
      25     1     1     2     0     0 -2.103665944E+02  3.497093227E+01  9.757742398E+01  2.657506798E+02  1.250000000E+02  0.00000E+00  9.000E+00
      25     1     1     2     0     0  1.688451895E+02 -3.808438386E+01  4.767310665E+02  5.223568015E+02  1.250000000E+02  0.00000E+00  9.000E+00
      21     1     1     2   512   502  4.152140482E+01  3.113451582E+00  7.004586737E+01  8.148707980E+01  0.000000000E+00  0.00000E+00  9.000E+00
#rwgt            1           1   4.4005437014263390E-002           6      470201           0
</event>
<event>
      5   9999  3.79277E-02  8.16484E+00 -1.00000E+00  2.06519E-01
      21    -1     0     0   502   501  0.000000000E+00  0.000000000E+00  1.093462766E+03  1.093462766E+03  0.000000000E+00  0.00000E+00  9.000E+00
      21    -1     0     0   501   511  0.000000000E+00  0.000000000E+00 -8.031381324E+01  8.031381324E+01  0.000000000E+00  0.00000E+00  9.000E+00
      25     1     1     2     0     0 -1.480946285E+02 -1.474272911E+02  2.843749632E+02  3.743807485E+02  1.250000000E+02  0.00000E+00  9.000E+00
      25     1     1     2     0     0  1.467351218E+02  1.554781554E+02  7.428944054E+02  7.830847658E+02  1.250000000E+02  0.00000E+00  9.000E+00
      21     1     1     2   502   511  1.359506712E+00 -8.050864340E+00 -1.412041622E+01  1.631106463E+01  4.768371582E-07  0.00000E+00  9.000E+00
#rwgt            1           1   4.0812387957939976E-002           6      470327           0
</event>
<event>
      5   9999  3.79277E-02  1.50188E+01 -1.00000E+00  1.77332E-01
      21    -1     0     0   502   501  0.000000000E+00  0.000000000E+00  5.739346342E+01  5.739346342E+01  0.000000000E+00  0.00000E+00  9.000E+00
      21    -1     0     0   512   502  0.000000000E+00  0.000000000E+00 -1.021691529E+03  1.021691529E+03  0.000000000E+00  0.00000E+00  9.000E+00
      25     1     1     2     0     0  1.069178915E+02 -1.349130523E+02 -5.685870295E+02  6.070825127E+02  1.250000000E+02  0.00000E+00  9.000E+00
      25     1     1     2     0     0 -9.192370206E+01  1.340542760E+02 -2.404172171E+02  3.159841043E+02  1.250000000E+02  0.00000E+00  9.000E+00
      21     1     1     2   512   501 -1.499418945E+01  8.587763046E-01 -1.552938190E+02  1.560183753E+02  1.907348633E-06  0.00000E+00  9.000E+00
#rwgt            1           1   3.7120147143480178E-002           6      470731           0
</event>
<event>
      5   9999  3.79277E-02  1.37638E+02 -1.00000E+00  1.17893E-01
       5    -1     0     0   502     0  0.000000000E+00  0.000000000E+00  3.147700756E+02  3.147700756E+02  0.000000000E+00  0.00000E+00  9.000E+00
      21    -1     0     0   501   502  0.000000000E+00  0.000000000E+00 -8.298213218E+02  8.298213218E+02  0.000000000E+00  0.00000E+00  9.000E+00
      25     1     1     2     0     0  1.236159123E+02 -3.685051704E+02 -4.032837584E+02  5.738812980E+02  1.250000000E+02  0.00000E+00  9.000E+00
      25     1     1     2     0     0  1.286576018E+01  3.863072576E+02 -1.409937119E+02  4.300035486E+02  1.250000000E+02  0.00000E+00  9.000E+00
       5     1     1     2   501     0 -1.364816725E+02 -1.780208718E+01  2.922622401E+01  1.407065507E+02  3.504023184E-06  0.00000E+00  9.000E+00
#rwgt            1           1   3.6325591446336451E-002           6      470950           0
</event>
<event>
      5   9999  3.79277E-02  6.52528E+01 -1.00000E+00  1.32784E-01
      21    -1     0     0   511   501  0.000000000E+00  0.000000000E+00  3.844812009E+02  3.844812009E+02  0.000000000E+00  0.00000E+00  9.000E+00
      21    -1     0     0   501   502  0.000000000E+00  0.000000000E+00 -1.780089232E+02  1.780089232E+02  0.000000000E+00  0.00000E+00  9.000E+00
      25     1     1     2     0     0 -1.121140691E+02  6.296007532E+01  1.776179017E+02  2.524017721E+02  1.250000000E+02  0.00000E+00  9.000E+00
      25     1     1     2     0     0  1.652062610E+02 -1.008961957E+02 -1.587529973E+01  2.309765705E+02  1.250000000E+02  0.00000E+00  9.000E+00
      21     1     1     2   511   502 -5.309219194E+01  3.793612040E+01  4.472967567E+01  7.911178143E+01  1.168007728E-06  0.00000E+00  9.000E+00
#rwgt            1           1   4.5583548073806386E-002           6      471083           0
</event>
<event>
      5   9999  3.79277E-02  6.80007E+01 -1.00000E+00  1.31861E-01
      21    -1     0     0   502   501  0.000000000E+00  0.000000000E+00  4.317973460E+02  4.317973460E+02  0.000000000E+00  0.00000E+00  9.000E+00
      21    -1     0     0   512   502  0.000000000E+00  0.000000000E+00 -5.435526545E+02  5.435526545E+02  0.000000000E+00  0.00000E+00  9.000E+00
      25     1     1     2     0     0  5.206268356E+01  1.308047949E+02  7.622302110E+01  2.031141707E+02  1.250000000E+02  0.00000E+00  9.000E+00
      25     1     1     2     0     0 -1.153862416E+02 -1.060213422E+02  2.548400247E+02  3.242266922E+02  1.250000000E+02  0.00000E+00  9.000E+00
      21     1     1     2   512   501  6.332355804E+01 -2.478345275E+01 -4.428183543E+02  4.480091376E+02  5.394796609E-06  0.00000E+00  9.000E+00
#rwgt            1           1   4.7778753758156045E-002           6      471180           0
</event>
<event>
      5   9999  3.79277E-02  4.54327E+01 -1.00000E+00  1.41491E-01
      21    -1     0     0   502   501  0.000000000E+00  0.000000000E+00  3.594102618E+02  3.594102618E+02  0.000000000E+00  0.00000E+00  9.000E+00
       2    -1     0     0   501     0  0.000000000E+00  0.000000000E+00 -4.061041195E+02  4.061041195E+02  0.000000000E+00  0.00000E+00  9.000E+00
      25     1     1     2     0     0 -9.207803890E+01  8.653818489E+01  2.441117927E+02  3.019648821E+02  1.250000000E+02  0.00000E+00  9.000E+00
      25     1     1     2     0     0  6.770578955E+01 -1.248803362E+02 -2.149888657E+01  1.904373242E+02  1.250000000E+02  0.00000E+00  9.000E+00
       2     1     1     2   502     0  2.437224935E+01  3.834215136E+01 -2.693067639E+02  2.731121751E+02  3.814697266E-06  0.00000E+00  9.000E+00
#rwgt            1           1   5.1790801330327783E-002           6      471402           0
</event>
<event>
      5   9999  3.79277E-02  2.55782E+01 -1.00000E+00  1.58011E-01
      21    -1     0     0   511   501  0.000000000E+00  0.000000000E+00  6.191672609E+02  6.191672609E+02  0.000000000E+00  0.00000E+00  9.000E+00
      21    -1     0     0   501   502  0.000000000E+00  0.000000000E+00 -2.487284295E+02  2.487284295E+02  0.000000000E+00  0.00000E+00  9.000E+00
      25     1     1     2     0     0  6.638001534E+01  1.557891340E+02 -1.071594922E+01  2.107519687E+02  1.250000000E+02  0.00000E+00  9.000E+00
      25     1     1     2     0     0 -7.464219266E+01 -1.315820491E+02 -6.767795166E+01  2.075827491E+02  1.250000000E+02  0.00000E+00  9.000E+00
      21     1     1     2   511   502  8.262177318E+00 -2.420708493E+01  4.488327323E+02  4.495609727E+02  9.344061824E-06  0.00000E+00  9.000E+00
#rwgt            1           1   3.5730741763664885E-002           6      471657           0
</event>
<event>
      5   9999  3.79277E-02  3.43782E+01 -1.00000E+00  1.49041E-01
      21    -1     0     0   502   512  0.000000000E+00  0.000000000E+00  3.924888529E+02  3.924888529E+02  0.000000000E+00  0.00000E+00  9.000E+00
      21    -1     0     0   501   502  0.000000000E+00  0.000000000E+00 -8.228577111E+02  8.228577111E+02  0.000000000E+00  0.00000E+00  9.000E+00
      25     1     1     2     0     0 -5.753609911E+01  2.838610978E+01 -7.161232670E+02  7.297764778E+02  1.250000000E+02  0.00000E+00  9.000E+00
      25     1     1     2     0     0  8.384715849E+01 -5.051276756E+01 -3.533023073E+01  1.626502717E+02  1.250000000E+02  0.00000E+00  9.000E+00
      21     1     1     2   501   512 -2.631105938E+01  2.212665778E+01  3.210846395E+02  3.229198145E+02  6.607249480E-06  0.00000E+00  9.000E+00
#rwgt            1           1   3.7996881092367263E-002           6      471878           0
</event>
<event>
      5   9999  3.79277E-02  5.03408E+01 -1.00000E+00  1.38907E-01
      21    -1     0     0   511   501  0.000000000E+00  0.000000000E+00  3.707100117E+01  3.707100117E+01  0.000000000E+00  0.00000E+00  9.000E+00
      21    -1     0     0   501   502  0.000000000E+00  0.000000000E+00 -1.160336708E+03  1.160336708E+03  0.000000000E+00  0.00000E+00  9.000E+00
      25     1     1     2     0     0  1.101857047E+02 -8.691385733E+01 -3.861641925E+02  4.294679169E+02  1.250000000E+02  0.00000E+00  9.000E+00
      25     1     1     2     0     0 -9.645022658E+01  3.848314030E+01 -6.087949557E+02  6.301110191E+02  1.250000000E+02  0.00000E+00  9.000E+00
      21     1     1     2   511   502 -1.373547809E+01  4.843071703E+01 -1.283065583E+02  1.378287728E+02  1.907348633E-06  0.00000E+00  9.000E+00
#rwgt            1           1   5.2079256248416118E-002           6      472045           0
</event>
<event>
      5   9999  3.79277E-02  1.07942E+02 -1.00000E+00  1.22353E-01
      21    -1     0     0   502   512  0.000000000E+00  0.000000000E+00  7.624393329E+02  7.624393329E+02  0.000000000E+00  0.00000E+00  9.000E+00
      21    -1     0     0   501   502  0.000000000E+00  0.000000000E+00 -1.850947709E+02  1.850947709E+02  0.000000000E+00  0.00000E+00  9.000E+00
      25     1     1     2     0     0  6.567125834E+01  2.303567641E+02  4.675928902E+02  5.400417242E+02  1.250000000E+02  0.00000E+00  9.000E+00
      25     1     1     2     0     0 -6.446642668E+01 -1.224216028E+02 -6.888249207E+01  1.987781847E+02  1.250000000E+02  0.00000E+00  9.000E+00
      21     1     1     2   501   512 -1.204831665E+00 -1.079351613E+02  1.786341638E+02  2.087141948E+02  0.000000000E+00  0.00000E+00  9.000E+00
#rwgt            1           1   2.6825373308231530E-002           6      472186           0
</event>
<event>
      5   9999  3.79277E-02  1.13181E+01 -1.00000E+00  1.89740E-01
      21    -1     0     0   502   511  0.000000000E+00  0.000000000E+00  5.374675067E+01  5.374675067E+01  0.000000000E+00  0.00000E+00  9.000E+00
      21    -1     0     0   501   502  0.000000000E+00  0.000000000E+00 -5.961447461E+02  5.961447461E+02  0.000000000E+00  0.00000E+00  9.000E+00
      25     1     1     2     0     0 -1.684967098E+00 -8.423888367E+01 -1.188112518E+02  1.919378602E+02  1.250000000E+02  0.00000E+00  9.000E+00
      25     1     1     2     0     0  5.800421014E+00  7.369555436E+01 -4.222882073E+02  4.465613168E+02  1.250000000E+02  0.00000E+00  9.000E+00
      21     1     1     2   501   511 -4.115453916E+00  1.054332931E+01 -1.298536379E+00  1.139231980E+01  2.874031890E-07  0.00000E+00  9.000E+00
#rwgt            1           1   4.8214763911784628E-002           6      472329           0
</event>
<event>
      5   9999  3.79277E-02  1.34903E+02 -1.00000E+00  1.18249E-01
      21    -1     0     0   502   512  0.000000000E+00  0.000000000E+00  9.126035161E+02  9.126035161E+02  0.000000000E+00  0.00000E+00  9.000E+00
      21    -1     0     0   501   502  0.000000000E+00  0.000000000E+00 -2.150831766E+02  2.150831766E+02  0.000000000E+00  0.00000E+00  9.000E+00
      25     1     1     2     0     0  1.049149928E+02  1.491112123E+02 -8.336955272E+01  2.362557760E+02  1.250000000E+02  0.00000E+00  9.000E+00
      25     1     1     2     0     0 -1.330333739E+02 -1.717077599E+01  1.252301995E+02  2.220367469E+02  1.250000000E+02  0.00000E+00  9.000E+00
      21     1     1     2   501   512  2.811838106E+01 -1.319404363E+02  6.556596926E+02  6.693941698E+02  7.629394531E-06  0.00000E+00  9.000E+00
#rwgt            1           1   3.3707515982415996E-002           6      472557           0
</event>
<event>
      5   9999 -3.79277E-02  1.25841E+01 -1.00000E+00  1.84884E-01
      21    -1     0     0   502   511  0.000000000E+00  0.000000000E+00  5.355631749E+02  5.355631749E+02  0.000000000E+00  0.00000E+00  9.000E+00
      21    -1     0     0   501   502  0.000000000E+00  0.000000000E+00 -5.262829317E+01  5.262829317E+01  0.000000000E+00  0.00000E+00  9.000E+00
      25     1     1     2     0     0 -3.614365140E+00 -1.789979475E+01  3.405994754E+02  3.632718940E+02  1.250000000E+02  0.00000E+00  9.000E+00
      25     1     1     2     0     0  1.486530991E+01  1.226273248E+01  5.711474375E+01  1.387748032E+02  1.250000000E+02  0.00000E+00  9.000E+00
      21     1     1     2   501   511 -1.125094477E+01  5.637062273E+00  8.522066258E+01  8.614477093E+01  9.536743164E-07  0.00000E+00  9.000E+00
#rwgt            1           1  -3.2853045660472101E-003           6      472631           0
</event>
<event>
      5   9999  3.79277E-02  3.32074E+01 -1.00000E+00  1.50038E-01
      21    -1     0     0   502   512  0.000000000E+00  0.000000000E+00  1.011002244E+02  1.011002244E+02  0.000000000E+00  0.00000E+00  9.000E+00
      21    -1     0     0   501   502  0.000000000E+00  0.000000000E+00 -3.117386839E+02  3.117386839E+02  0.000000000E+00  0.00000E+00  9.000E+00
      25     1     1     2     0     0  7.296607628E+01 -3.244755804E+00 -1.586362155E+01  1.456407608E+02  1.250000000E+02  0.00000E+00  9.000E+00
      25     1     1     2     0     0 -7.063751881E+01 -2.988091964E+01 -1.758464804E+02  2.289749180E+02  1.250000000E+02  0.00000E+00  9.000E+00
      21     1     1     2   501   512 -2.328557473E+00  3.312567544E+01 -1.892835751E+01  3.822322948E+01  6.307962682E-07  0.00000E+00  9.000E+00
#rwgt            1           1   4.2770711458900511E-002           6      472820           0
</event>
<event>
      5   9999  3.79277E-02  1.99946E+01 -1.00000E+00  1.66379E-01
      21    -1     0     0   502   501  0.000000000E+00  0.000000000E+00  7.168248774E+02  7.168248774E+02  0.000000000E+00  0.00000E+00  9.000E+00
      21    -1     0     0   511   502  0.000000000E+00  0.000000000E+00 -7.128048325E+01  7.128048325E+01  0.000000000E+00  0.00000E+00  9.000E+00
      25     1     1     2     0     0 -1.312033071E+02  3.416056001E+01  4.324826294E+02  4.701568636E+02  1.250000000E+02  0.00000E+00  9.000E+00
      25     1     1     2     0     0  1.494227359E+02 -2.592426349E+01  2.216116889E+02  2.962025693E+02  1.250000000E+02  0.00000E+00  9.000E+00
      21     1     1     2   511   501 -1.821942885E+01 -8.236296521E+00 -8.549924159E+00  2.174592769E+01  4.915124924E-07  0.00000E+00  9.000E+00
#rwgt            1           1  0.17004051003046713                6      472951           0
</event>
<event>
      5   9999  3.79277E-02  1.06540E+02 -1.00000E+00  1.22603E-01
       1    -1     0     0   502     0  0.000000000E+00  0.000000000E+00  3.316370518E+02  3.316370518E+02  0.000000000E+00  0.00000E+00  9.000E+00
      21    -1     0     0   501   502  0.000000000E+00  0.000000000E+00 -6.200982757E+02  6.200982757E+02  0.000000000E+00  0.00000E+00  9.000E+00
      25     1     1     2     0     0 -2.359363604E+02  1.218351686E+02  3.127194017E+01  2.951486214E+02  1.250000000E+02  0.00000E+00  9.000E+00
      25     1     1     2     0     0  3.200384516E+02 -1.872391780E+02 -3.702327614E+02  5.386839685E+02  1.250000000E+02  0.00000E+00  9.000E+00
       1     1     1     2   501     0 -8.410209127E+01  6.540400943E+01  5.049959732E+01  1.179027376E+02  1.784161275E-06  0.00000E+00  9.000E+00
#rwgt            1           1   3.2374892664189789E-002           6      473057           0
</event>
<event>
      5   9999  3.79277E-02  1.15387E+02 -1.00000E+00  1.21095E-01
      21    -1     0     0   502   511  0.000000000E+00  0.000000000E+00  4.075503643E+01  4.075503643E+01  0.000000000E+00  0.00000E+00  9.000E+00
      21    -1     0     0   501   502  0.000000000E+00  0.000000000E+00 -1.786962921E+03  1.786962921E+03  0.000000000E+00  0.00000E+00  9.000E+00
      25     1     1     2     0     0  6.895725796E+01 -3.186645281E+01 -8.783643215E+02  8.904602492E+02  1.250000000E+02  0.00000E+00  9.000E+00
      25     1     1     2     0     0 -1.588907772E+02  1.041583275E+02 -6.777121783E+02  7.148524553E+02  1.250000000E+02  0.00000E+00  9.000E+00
      21     1     1     2   501   511  8.993351928E+01 -7.229187469E+01 -1.901313852E+02  2.224052532E+02  2.697398305E-06  0.00000E+00  9.000E+00
#rwgt            1           1   4.2396938073933632E-002           6      473193           0
</event>
<event>
      5   9999  3.79277E-02  1.30541E+02 -1.00000E+00  1.18836E-01
      21    -1     0     0   512   501  0.000000000E+00  0.000000000E+00  6.358112329E+02  6.358112329E+02  0.000000000E+00  0.00000E+00  9.000E+00
      21    -1     0     0   501   502  0.000000000E+00  0.000000000E+00 -5.242586051E+02  5.242586051E+02  0.000000000E+00  0.00000E+00  9.000E+00
      25     1     1     2     0     0  3.608223506E+02  1.752994894E+02 -1.568003730E+02  4.484796948E+02  1.250000000E+02  0.00000E+00  9.000E+00
      25     1     1     2     0     0 -4.241147740E+02 -2.894702242E+02  2.178615244E+02  5.716248735E+02  1.250000000E+02  0.00000E+00  9.000E+00
      21     1     1     2   512   502  6.329242337E+01  1.141707348E+02  5.049147638E+01  1.399652697E+02  1.507891493E-06  0.00000E+00  9.000E+00
#rwgt            1           1   7.4452924039910093E-002           6      473356           0
</event>
<event>
      5   9999  3.79277E-02  4.07657E+01 -1.00000E+00  1.44331E-01
      21    -1     0     0   502   511  0.000000000E+00  0.000000000E+00  1.038198913E+02  1.038198913E+02  0.000000000E+00  0.00000E+00  9.000E+00
      21    -1     0     0   501   502  0.000000000E+00  0.000000000E+00 -5.676831773E+02  5.676831773E+02  0.000000000E+00  0.00000E+00  9.000E+00
      25     1     1     2     0     0 -8.933212157E+01 -5.165265091E+01 -5.006274530E+01  1.696452262E+02  1.250000000E+02  0.00000E+00  9.000E+00
      25     1     1     2     0     0  1.154949428E+02  8.291523715E+01 -4.199334536E+02  4.606333941E+02  1.250000000E+02  0.00000E+00  9.000E+00
      21     1     1     2   501   511 -2.616282120E+01 -3.126258624E+01  6.132912912E+00  4.122444823E+01  1.174075341E-06  0.00000E+00  9.000E+00
#rwgt            1           1   3.2577554048701718E-002           6      473420           0
</event>
<event>
      5   9999  3.79277E-02  1.47948E+01 -1.00000E+00  1.77949E-01
      21    -1     0     0   502   512  0.000000000E+00  0.000000000E+00  5.998305372E+01  5.998305372E+01  0.000000000E+00  0.00000E+00  9.000E+00
      21    -1     0     0   501   502  0.000000000E+00  0.000000000E+00 -1.336765618E+03  1.336765618E+03  0.000000000E+00  0.00000E+00  9.000E+00
      25     1     1     2     0     0  3.525118580E+01 -2.349366004E+02 -4.750227863E+02  5.456276201E+02  1.250000000E+02  0.00000E+00  9.000E+00
      25     1     1     2     0     0 -4.917995139E+01  2.299490531E+02 -7.840608684E+02  8.280529452E+02  1.250000000E+02  0.00000E+00  9.000E+00
      21     1     1     2   501   512  1.392876559E+01  4.987547247E+00 -1.769890983E+01  2.306810672E+01  6.307962682E-07  0.00000E+00  9.000E+00
#rwgt            1           1   8.3162774456224983E-002           6      473534           0
</event>
<event>
      5   9999  3.79277E-02  9.06786E+01 -1.00000E+00  1.25770E-01
      21    -1     0     0   511   501  0.000000000E+00  0.000000000E+00  9.080512816E+02  9.080512816E+02  0.000000000E+00  0.00000E+00  9.000E+00
      21    -1     0     0   501   502  0.000000000E+00  0.000000000E+00 -2.412313728E+02  2.412313728E+02  0.000000000E+00  0.00000E+00  9.000E+00
      25     1     1     2     0     0 -7.930863796E+01 -5.203231382E+01 -1.011283824E+02  1.866793279E+02  1.250000000E+02  0.00000E+00  9.000E+00
      25     1     1     2     0     0  1.699871564E+02  5.190609590E+01  3.028813438E+01  2.193906270E+02  1.250000000E+02  0.00000E+00  9.000E+00
      21     1     1     2   511   502 -9.067851846E+01  1.262179215E-01  7.376601569E+02  7.432126995E+02  0.000000000E+00  0.00000E+00  9.000E+00
#rwgt            1           1   2.7047196026685226E-002           6      473872           0
</event>
<event>
      5   9999  3.79277E-02  6.81328E+01 -1.00000E+00  1.31818E-01
      21    -1     0     0   502   501  0.000000000E+00  0.000000000E+00  1.462880926E+02  1.462880926E+02  0.000000000E+00  0.00000E+00  9.000E+00
       2    -1     0     0   501     0  0.000000000E+00  0.000000000E+00 -1.135409045E+03  1.135409045E+03  0.000000000E+00  0.00000E+00  9.000E+00
      25     1     1     2     0     0 -1.331223458E+02 -1.353386117E+02 -1.344544413E+02  2.640853944E+02  1.250000000E+02  0.00000E+00  9.000E+00
      25     1     1     2     0     0  6.522247595E+01  1.409677646E+02 -4.411080929E+01  2.041975649E+02  1.250000000E+02  0.00000E+00  9.000E+00
       2     1     1     2   502     0  6.789986983E+01 -5.629152959E+00 -8.105557021E+02  8.134141785E+02  1.525878906E-05  0.00000E+00  9.000E+00
#rwgt            1           1   7.3881991074088715E-002           6      473922           0
</event>
<event>
      5   9999  3.79277E-02  8.16598E+01 -1.00000E+00  1.27919E-01
      21    -1     0     0   502   501  0.000000000E+00  0.000000000E+00  7.793037713E+02  7.793037713E+02  0.000000000E+00  0.00000E+00  9.000E+00
      21    -1     0     0   511   502  0.000000000E+00  0.000000000E+00 -1.803230360E+02  1.803230360E+02  0.000000000E+00  0.00000E+00  9.000E+00
      25     1     1     2     0     0 -2.763892052E+02 -1.109537932E+02  1.952459349E+02  3.774224583E+02  1.250000000E+02  0.00000E+00  9.000E+00
      25     1     1     2     0     0  2.326986751E+02  1.799426323E+02  3.812643918E+02  4.975093574E+02  1.250000000E+02  0.00000E+00  9.000E+00
      21     1     1     2   511   501  4.369053009E+01 -6.898883909E+01  2.247040868E+01  8.469499161E+01  1.507891493E-06  0.00000E+00  9.000E+00
#rwgt            1           1  0.20699692257249744                6      474005           0
</event>
<event>
      5   9999  3.79277E-02  1.09069E+02 -1.00000E+00  1.22156E-01
      21    -1     0     0   502   512  0.000000000E+00  0.000000000E+00  1.332207072E+03  1.332207072E+03  0.000000000E+00  0.00000E+00  9.000E+00
      21    -1     0     0   501   502  0.000000000E+00  0.000000000E+00 -9.271742927E+01  9.271742927E+01  0.000000000E+00  0.00000E+00  9.000E+00
      25     1     1     2     0     0  8.206875390E+01 -2.175244850E+01  6.128768521E+00  1.512316474E+02  1.250000000E+02  0.00000E+00  9.000E+00
      25     1     1     2     0     0 -1.570440607E+02 -5.746027194E+01  7.923307798E+02  8.193763387E+02  1.250000000E+02  0.00000E+00  9.000E+00
      21     1     1     2   501   512  7.497530683E+01  7.921272044E+01  4.410300941E+02  4.543165148E+02  5.394796609E-06  0.00000E+00  9.000E+00
#rwgt            1           1   4.6507234927885860E-002           6      474085           0
</event>
<event>
      5   9999  3.79277E-02  4.04950E+01 -1.00000E+00  1.44510E-01
      21    -1     0     0   511   501  0.000000000E+00  0.000000000E+00  5.873016543E+02  5.873016543E+02  0.000000000E+00  0.00000E+00  9.000E+00
      21    -1     0     0   501   502  0.000000000E+00  0.000000000E+00 -1.714774352E+02  1.714774352E+02  0.000000000E+00  0.00000E+00  9.000E+00
      25     1     1     2     0     0  1.830058834E+02 -1.585080792E+00 -2.163455834E+00  2.216378722E+02  1.250000000E+02  0.00000E+00  9.000E+00
      25     1     1     2     0     0 -2.227391538E+02  9.402480532E+00  2.267873173E+02  3.416996116E+02  1.250000000E+02  0.00000E+00  9.000E+00
      21     1     1     2   511   502  3.973327037E+01 -7.817399740E+00  1.912003576E+02  1.954416057E+02  0.000000000E+00  0.00000E+00  9.000E+00
#rwgt            1           1   3.3379780595325065E-002           6      474194           0
</event>
<event>
      5   9999  3.79277E-02  4.43492E+01 -1.00000E+00  1.42114E-01
       1    -1     0     0   502     0  0.000000000E+00  0.000000000E+00  3.298171316E+03  3.298171316E+03  0.000000000E+00  0.00000E+00  9.000E+00
      21    -1     0     0   501   502  0.000000000E+00  0.000000000E+00 -5.891381743E+01  5.891381743E+01  0.000000000E+00  0.00000E+00  9.000E+00
      25     1     1     2     0     0 -1.972953655E+02  2.327232435E+01  1.354261407E+03  1.374451171E+03  1.250000000E+02  0.00000E+00  9.000E+00
      25     1     1     2     0     0  1.550780823E+02 -9.687473158E+00  1.563095713E+02  2.533786511E+02  1.250000000E+02  0.00000E+00  9.000E+00
       1     1     1     2   501     0  4.221728313E+01 -1.358485119E+01  1.728686521E+03  1.729255312E+03  3.051757812E-05  0.00000E+00  9.000E+00
#rwgt            1           1   4.3119616724735382E-002           6      474373           0
</event>
<event>
      5   9999  3.79277E-02  1.07913E+01 -1.00000E+00  1.92010E-01
      21    -1     0     0   502   511  0.000000000E+00  0.000000000E+00  1.267827114E+02  1.267827114E+02  0.000000000E+00  0.00000E+00  9.000E+00
      21    -1     0     0   501   502  0.000000000E+00  0.000000000E+00 -2.875116554E+02  2.875116554E+02  0.000000000E+00  0.00000E+00  9.000E+00
      25     1     1     2     0     0  6.151027746E+01  9.819316234E+01 -7.270907993E-01  1.704433631E+02  1.250000000E+02  0.00000E+00  9.000E+00
      25     1     1     2     0     0 -5.453625551E+01 -8.995811479E+01 -1.647852082E+02  2.320470436E+02  1.250000000E+02  0.00000E+00  9.000E+00
      21     1     1     2   501   511 -6.974021948E+00 -8.235047542E+00  4.783354971E+00  1.180396014E+01  1.332800375E-07  0.00000E+00  9.000E+00
#rwgt            1           1   4.1330356915555443E-002           6      474591           0
</event>
<event>
      5   9999  3.79277E-02  2.87055E+01 -1.00000E+00  1.54382E-01
      21    -1     0     0   512   501  0.000000000E+00  0.000000000E+00  2.403225039E+02  2.403225039E+02  0.000000000E+00  0.00000E+00  9.000E+00
      21    -1     0     0   501   502  0.000000000E+00  0.000000000E+00 -1.927457788E+02  1.927457788E+02  0.000000000E+00  0.00000E+00  9.000E+00
      25     1     1     2     0     0  1.213921043E+02 -4.188658549E+01 -5.948405215E+01  1.888223543E+02  1.250000000E+02  0.00000E+00  9.000E+00
      25     1     1     2     0     0 -9.471504719E+01  5.248556041E+01  3.833372298E+01  1.697649803E+02  1.250000000E+02  0.00000E+00  9.000E+00
      21     1     1     2   512   502 -2.667705715E+01 -1.059897492E+01  6.872705426E+01  7.448094813E+01  9.536743164E-07  0.00000E+00  9.000E+00
#rwgt            1           1   4.2712845622254893E-002           6      474882           0
</event>
<event>
      5   9999  3.79277E-02  6.03490E+01 -1.00000E+00  1.34569E-01
      21    -1     0     0   502   511  0.000000000E+00  0.000000000E+00  7.324326285E+02  7.324326285E+02  0.000000000E+00  0.00000E+00  9.000E+00
      21    -1     0     0   501   502  0.000000000E+00  0.000000000E+00 -1.440681349E+02  1.440681349E+02  0.000000000E+00  0.00000E+00  9.000E+00
      25     1     1     2     0     0 -5.888273290E+01  2.590088355E+02  3.064971495E+02  4.244034115E+02  1.250000000E+02  0.00000E+00  9.000E+00
      25     1     1     2     0     0 -1.443151836E+00 -2.606805700E+02  2.051916896E+02  3.545209045E+02  1.250000000E+02  0.00000E+00  9.000E+00
      21     1     1     2   501   511  6.032588473E+01  1.671734543E+00  7.667565455E+01  9.757644729E+01  9.536743164E-07  0.00000E+00  9.000E+00
#rwgt            1           1   2.1460772611024342E-002           6      475051           0
</event>
<event>
      5   9999  3.79277E-02  1.01464E+01 -1.00000E+00  1.95030E-01
      21    -1     0     0   512   501  0.000000000E+00  0.000000000E+00  3.405530440E+03  3.405530440E+03  0.000000000E+00  0.00000E+00  9.000E+00
      21    -1     0     0   501   502  0.000000000E+00  0.000000000E+00 -6.293098876E+01  6.293098876E+01  0.000000000E+00  0.00000E+00  9.000E+00
      25     1     1     2     0     0 -3.815386176E+02  4.925879193E+01  1.053488569E+03  1.128477430E+03  1.250000000E+02  0.00000E+00  9.000E+00
      25     1     1     2     0     0  3.806806705E+02 -5.936881654E+01  1.589451442E+03  1.640250991E+03  1.250000000E+02  0.00000E+00  9.000E+00
      21     1     1     2   512   502  8.579470882E-01  1.011002462E+01  6.996594406E+02  6.997330073E+02  0.000000000E+00  0.00000E+00  9.000E+00
#rwgt            1           1   6.2600623307760062E-002           6      475199           0
</event>
<event>
      5   9999  3.79277E-02  1.77854E+01 -1.00000E+00  1.70687E-01
       2    -1     0     0   502     0  0.000000000E+00  0.000000000E+00  8.528718530E+02  8.528718530E+02  0.000000000E+00  0.00000E+00  9.000E+00
      21    -1     0     0   501   502  0.000000000E+00  0.000000000E+00 -1.506839047E+02  1.506839047E+02  0.000000000E+00  0.00000E+00  9.000E+00
      25     1     1     2     0     0  1.145322622E+00  1.123952268E+02 -3.608136578E+01  1.719327302E+02  1.250000000E+02  0.00000E+00  9.000E+00
      25     1     1     2     0     0  1.071212940E+01 -1.256511619E+02  1.227805329E+02  2.158773343E+02  1.250000000E+02  0.00000E+00  9.000E+00
       2     1     1     2   501     0 -1.185745203E+01  1.325593511E+01  6.154887812E+02  6.157456932E+02  7.629394531E-06  0.00000E+00  9.000E+00
#rwgt            1           1   3.7481334680076341E-002           6      475644           0
</event>
<event>
      5   9999  3.79277E-02  2.34622E+01 -1.00000E+00  1.60844E-01
      21    -1     0     0   502   511  0.000000000E+00  0.000000000E+00  2.294351237E+02  2.294351237E+02  0.000000000E+00  0.00000E+00  9.000E+00
      21    -1     0     0   501   502  0.000000000E+00  0.000000000E+00 -3.512100504E+02  3.512100504E+02  0.000000000E+00  0.00000E+00  9.000E+00
      25     1     1     2     0     0 -4.597295907E+01 -2.411834149E+02 -6.213563754E+01  2.824336914E+02  1.250000000E+02  0.00000E+00  9.000E+00
      25     1     1     2     0     0  2.627442784E+01  2.284381285E+02 -7.233343239E+01  2.715353560E+02  1.250000000E+02  0.00000E+00  9.000E+00
      21     1     1     2   501   511  1.969853122E+01  1.274528639E+01  1.269414333E+01  2.667612664E+01  5.331201500E-07  0.00000E+00  9.000E+00
#rwgt            1           1   3.4282991591618212E-002           6      475928           0
</event>
<event>
      5   9999 -3.79277E-02  1.56849E+02 -1.00000E+00  1.15630E-01
      21    -1     0     0   502   501  0.000000000E+00  0.000000000E+00  5.656528655E+02  5.656528655E+02  0.000000000E+00  0.00000E+00  9.000E+00
      21    -1     0     0   501   512  0.000000000E+00  0.000000000E+00 -2.450918328E+02  2.450918328E+02  0.000000000E+00  0.00000E+00  9.000E+00
      25     1     1     2     0     0  1.542012158E+02  1.390352109E+02  1.787418201E+02  3.011352571E+02  1.250000000E+02  0.00000E+00  9.000E+00
      25     1     1     2     0     0 -2.574443055E+02 -2.095692325E+01  1.916123586E+02  3.450464593E+02  1.250000000E+02  0.00000E+00  9.000E+00
      21     1     1     2   502   512  1.032430898E+02 -1.180782877E+02 -4.979314600E+01  1.645629819E+02  4.422005890E-06  0.00000E+00  9.000E+00
#rwgt            1           1  -4.0417257509728417E-002           6      476081           0
</event>
<event>
      5   9999  3.79277E-02  2.04136E+01 -1.00000E+00  1.65639E-01
      21    -1     0     0   502   501  0.000000000E+00  0.000000000E+00  3.619704538E+01  3.619704538E+01  0.000000000E+00  0.00000E+00  9.000E+00
      21    -1     0     0   511   502  0.000000000E+00  0.000000000E+00 -1.264598543E+03  1.264598543E+03  0.000000000E+00  0.00000E+00  9.000E+00
      25     1     1     2     0     0  1.093540941E+01 -1.055508700E+02 -5.518626884E+02  5.757065191E+02  1.250000000E+02  0.00000E+00  9.000E+00
      25     1     1     2     0     0 -2.852805622E+01  1.159053062E+02 -2.870666746E+02  3.350823267E+02  1.250000000E+02  0.00000E+00  9.000E+00
      21     1     1     2   511   501  1.759264682E+01 -1.035443625E+01 -3.894721347E+02  3.900067427E+02  5.394796609E-06  0.00000E+00  9.000E+00
#rwgt            1           1   3.8602472471511835E-002           6      476133           0
</event>
<event>
      5   9999  3.79277E-02  4.57404E+01 -1.00000E+00  1.41318E-01
      21    -1     0     0   512   501  0.000000000E+00  0.000000000E+00  2.755947748E+01  2.755947748E+01  0.000000000E+00  0.00000E+00  9.000E+00
      21    -1     0     0   501   502  0.000000000E+00  0.000000000E+00 -1.217174119E+03  1.217174119E+03  0.000000000E+00  0.00000E+00  9.000E+00
      25     1     1     2     0     0 -5.386420976E+01  3.099127077E+01 -3.387130937E+02  3.663514321E+02  1.250000000E+02  0.00000E+00  9.000E+00
      25     1     1     2     0     0  9.678741760E+01 -1.518688746E+01 -7.623214668E+02  7.786895816E+02  1.250000000E+02  0.00000E+00  9.000E+00
      21     1     1     2   512   502 -4.292320783E+01 -1.580438331E+01 -8.858008086E+01  9.969258261E+01  1.348699152E-06  0.00000E+00  9.000E+00
#rwgt            1           1   3.6512287681626614E-002           6      476304           0
</event>
<event>
      5   9999  3.79277E-02  3.01926E+01 -1.00000E+00  1.52847E-01
      21    -1     0     0   502   501  0.000000000E+00  0.000000000E+00  2.256084492E+02  2.256084492E+02  0.000000000E+00  0.00000E+00  9.000E+00
      21    -1     0     0   501   511  0.000000000E+00  0.000000000E+00 -3.106026672E+02  3.106026672E+02  0.000000000E+00  0.00000E+00  9.000E+00
      25     1     1     2     0     0 -3.664989570E+01  1.704207899E+02 -4.563244551E+01  2.193029424E+02  1.250000000E+02  0.00000E+00  9.000E+00
      25     1     1     2     0     0  1.249655618E+01 -1.523042378E+02  6.532491239E+01  2.079545358E+02  1.250000000E+02  0.00000E+00  9.000E+00
      21     1     1     2   502   511  2.415333953E+01 -1.811655206E+01 -1.046866849E+02  1.089536381E+02  1.348699152E-06  0.00000E+00  9.000E+00
#rwgt            1           1   3.9036414130707735E-002           6      476431           0
</event>
<event>
      5   9999  3.79277E-02  9.92221E+00 -1.00000E+00  1.96150E-01
       2    -1     0     0   502     0  0.000000000E+00  0.000000000E+00  8.404282414E+02  8.404282414E+02  0.000000000E+00  0.00000E+00  9.000E+00
      21    -1     0     0   501   502  0.000000000E+00  0.000000000E+00 -1.382432048E+02  1.382432048E+02  0.000000000E+00  0.00000E+00  9.000E+00
      25     1     1     2     0     0  1.537151851E+02  1.014771915E+02  2.920867887E+01  2.245086311E+02  1.250000000E+02  0.00000E+00  9.000E+00
      25     1     1     2     0     0 -1.461331780E+02 -1.078774576E+02  2.593242064E+02  3.403916797E+02  1.250000000E+02  0.00000E+00  9.000E+00
       2     1     1     2   501     0 -7.582007058E+00  6.400266110E+00  4.136521512E+02  4.137711353E+02  5.394796609E-06  0.00000E+00  9.000E+00
#rwgt            1           1   2.2326605580591487E-002           6      476527           0
</event>
<event>
      5   9999  3.79277E-02  4.93799E+01 -1.00000E+00  1.39385E-01
      21    -1     0     0   502   511  0.000000000E+00  0.000000000E+00  3.258105551E+03  3.258105551E+03  0.000000000E+00  0.00000E+00  9.000E+00
      21    -1     0     0   501   502  0.000000000E+00  0.000000000E+00 -3.502510436E+01  3.502510436E+01  0.000000000E+00  0.00000E+00  9.000E+00
      25     1     1     2     0     0 -2.743268529E+01 -7.428592526E+01  1.668134899E+02  2.229858546E+02  1.250000000E+02  0.00000E+00  9.000E+00
      25     1     1     2     0     0  4.608173282E+01  2.856293343E+01  6.879308342E+02  7.012939469E+02  1.250000000E+02  0.00000E+00  9.000E+00
      21     1     1     2   501   511 -1.864904752E+01  4.572299184E+01  2.368336123E+03  2.368850854E+03  3.051757812E-05  0.00000E+00  9.000E+00
#rwgt            1           1   4.5701409788729393E-002           6      476921           0
</event>
<event>
      5   9999  3.79277E-02  7.12433E+01 -1.00000E+00  1.30835E-01
      21    -1     0     0   502   512  0.000000000E+00  0.000000000E+00  1.591101016E+02  1.591101016E+02  0.000000000E+00  0.00000E+00  9.000E+00
      21    -1     0     0   501   502  0.000000000E+00  0.000000000E+00 -1.163581350E+03  1.163581350E+03  0.000000000E+00  0.00000E+00  9.000E+00
      25     1     1     2     0     0 -5.198305740E+01  3.631556922E+01 -1.044805609E+03  1.054165461E+03  1.250000000E+02  0.00000E+00  9.000E+00
      25     1     1     2     0     0 -1.690130575E+01 -1.813447188E+01 -6.367442634E+01  1.424568207E+02  1.250000000E+02  0.00000E+00  9.000E+00
      21     1     1     2   501   512  6.888436315E+01 -1.818109734E+01  1.040087870E+02  1.260691697E+02  3.303624740E-06  0.00000E+00  9.000E+00
#rwgt            1           1   3.9609971756315997E-002           6      477152           0
</event>
<event>
      5   9999  3.79277E-02  3.90575E+01 -1.00000E+00  1.45485E-01
      21    -1     0     0   502   501  0.000000000E+00  0.000000000E+00  1.082186276E+02  1.082186276E+02  0.000000000E+00  0.00000E+00  9.000E+00
      21    -1     0     0   501   511  0.000000000E+00  0.000000000E+00 -8.019207674E+02  8.019207674E+02  0.000000000E+00  0.00000E+00  9.000E+00
      25     1     1     2     0     0  6.351170836E+01 -1.322811174E+02 -3.660499156E+02  4.137022743E+02  1.250000000E+02  0.00000E+00  9.000E+00
      25     1     1     2     0     0 -2.927681379E+01  1.510815875E+02 -3.516824709E+01  2.013568561E+02  1.250000000E+02  0.00000E+00  9.000E+00
      21     1     1     2   502   511 -3.423489457E+01 -1.880047011E+01 -2.924839771E+02  2.950802646E+02  0.000000000E+00  0.00000E+00  9.000E+00
#rwgt            1           1   3.1425724249754226E-002           6      477242           0
</event>
<event>
      5   9999  3.79277E-02  2.98388E+01 -1.00000E+00  1.53203E-01
      21    -1     0     0   502   501  0.000000000E+00  0.000000000E+00  1.256507560E+02  1.256507560E+02  0.000000000E+00  0.00000E+00  9.000E+00
      21    -1     0     0   501   512  0.000000000E+00  0.000000000E+00 -1.118084638E+03  1.118084638E+03  0.000000000E+00  0.00000E+00  9.000E+00
      25     1     1     2     0     0 -6.458386304E+01  8.146828857E+01 -1.763123224E+02  2.398315918E+02  1.250000000E+02  0.00000E+00  9.000E+00
      25     1     1     2     0     0  6.885091592E+01 -1.110004192E+02  6.335958482E+00  1.809051852E+02  1.250000000E+02  0.00000E+00  9.000E+00
      21     1     1     2   502   512 -4.267052884E+00  2.953213058E+01 -8.224575178E+02  8.229986167E+02  1.525878906E-05  0.00000E+00  9.000E+00
#rwgt            1           1   3.3876994354884594E-002           6      477333           0
</event>
<event>
      5   9999  3.79277E-02  9.98842E+01 -1.00000E+00  1.23851E-01
      21    -1     0     0   502   501  0.000000000E+00  0.000000000E+00  2.440691738E+02  2.440691738E+02  0.000000000E+00  0.00000E+00  9.000E+00
       2    -1     0     0   501     0  0.000000000E+00  0.000000000E+00 -9.491100856E+02  9.491100856E+02  0.000000000E+00  0.00000E+00  9.000E+00
      25     1     1     2     0     0  1.568112363E+02 -2.114388566E+02 -2.893490991E+02  4.106629458E+02  1.250000000E+02  0.00000E+00  9.000E+00
      25     1     1     2     0     0 -1.525463970E+02  1.116457900E+02  1.068216654E+02  2.505415212E+02  1.250000000E+02  0.00000E+00  9.000E+00
       2     1     1     2   502     0 -4.264839287E+00  9.979306663E+01 -5.225134781E+02  5.319747924E+02  0.000000000E+00  0.00000E+00  9.000E+00
#rwgt            1           1   3.6237546687444160E-002           6      477477           0
</event>
<event>
      5   9999  3.79277E-02  4.59740E+01 -1.00000E+00  1.41188E-01
      21    -1     0     0   502   501  0.000000000E+00  0.000000000E+00  5.110225045E+02  5.110225045E+02  0.000000000E+00  0.00000E+00  9.000E+00
      21    -1     0     0   511   502  0.000000000E+00  0.000000000E+00 -8.906943299E+01  8.906943299E+01  0.000000000E+00  0.00000E+00  9.000E+00
      25     1     1     2     0     0 -1.024607767E+02 -7.199346275E+01  2.346078750E+02  2.938488123E+02  1.250000000E+02  0.00000E+00  9.000E+00
      25     1     1     2     0     0  9.545027548E+01  1.174298344E+02  1.518356840E+02  2.481523646E+02  1.250000000E+02  0.00000E+00  9.000E+00
      21     1     1     2   511   501  7.010501209E+00 -4.543637169E+01  3.550951251E+01  5.809076069E+01  9.536743164E-07  0.00000E+00  9.000E+00
#rwgt            1           1   3.9790186390033226E-002           6      477562           0
</event>
<event>
      5   9999  3.79277E-02  3.92560E+01 -1.00000E+00  1.45348E-01
      21    -1     0     0   502   501  0.000000000E+00  0.000000000E+00  6.173877447E+02  6.173877447E+02  0.000000000E+00  0.00000E+00  9.000E+00
      21    -1     0     0   512   502  0.000000000E+00  0.000000000E+00 -1.523288651E+02  1.523288651E+02  0.000000000E+00  0.00000E+00  9.000E+00
      25     1     1     2     0     0  1.092404389E+02  2.147164211E+02  7.545961734E+01  2.817015599E+02  1.250000000E+02  0.00000E+00  9.000E+00
      25     1     1     2     0     0 -8.690547568E+01 -1.824336126E+02  3.790464993E+02  4.473654360E+02  1.250000000E+02  0.00000E+00  9.000E+00
      21     1     1     2   512   501 -2.233496322E+01 -3.228280850E+01  1.055276292E+01  4.064961392E+01  3.769728732E-07  0.00000E+00  9.000E+00
#rwgt            1           1  0.10185055823459466                6      477786           0
</event>
<event>
      5   9999  3.79277E-02  4.59740E+01 -1.00000E+00  1.41188E-01
      21    -1     0     0   502   501  0.000000000E+00  0.000000000E+00  7.029818243E+02  7.029818243E+02  0.000000000E+00  0.00000E+00  9.000E+00
      21    -1     0     0   511   502  0.000000000E+00  0.000000000E+00 -1.251364089E+02  1.251364089E+02  0.000000000E+00  0.00000E+00  9.000E+00
      25     1     1     2     0     0 -1.599988108E+02  4.078994917E+01  1.528410478E+01  2.076584775E+02  1.250000000E+02  0.00000E+00  9.000E+00
      25     1     1     2     0     0  1.153377673E+02 -5.169878984E+01  5.414226907E+02  5.698588382E+02  1.250000000E+02  0.00000E+00  9.000E+00
      21     1     1     2   511   501  4.466104343E+01  1.090884067E+01  2.113861993E+01  5.060091755E+01  9.233911863E-07  0.00000E+00  9.000E+00
#rwgt            1           1   4.3650458359436130E-002           6      478111           0
</event>
<event>
      5   9999  3.79277E-02  2.49540E+01 -1.00000E+00  1.58811E-01
      21    -1     0     0   502   501  0.000000000E+00  0.000000000E+00  8.164850803E+02  8.164850803E+02  0.000000000E+00  0.00000E+00  9.000E+00
      21    -1     0     0   501   512  0.000000000E+00  0.000000000E+00 -6.605930038E+01  6.605930038E+01  0.000000000E+00  0.00000E+00  9.000E+00
      25     1     1     2     0     0  4.073776317E+01  9.322600332E+01  6.664269821E+02  6.856388084E+02  1.250000000E+02  0.00000E+00  9.000E+00
      25     1     1     2     0     0 -1.662810842E+01 -8.678980242E+01  7.051740982E+01  1.685427806E+02  1.250000000E+02  0.00000E+00  9.000E+00
      21     1     1     2   502   512 -2.410965475E+01 -6.436200896E+00  1.348138799E+01  2.836279176E+01  3.769728732E-07  0.00000E+00  9.000E+00
#rwgt            1           1   2.3844870484621538E-002           6      478245           0
</event>
<event>
      5   9999  3.79277E-02  2.75890E+01 -1.00000E+00  1.55611E-01
      21    -1     0     0   502   501  0.000000000E+00  0.000000000E+00  1.466472116E+02  1.466472116E+02  0.000000000E+00  0.00000E+00  9.000E+00
       2    -1     0     0   501     0  0.000000000E+00  0.000000000E+00 -1.345491723E+03  1.345491723E+03  0.000000000E+00  0.00000E+00  9.000E+00
      25     1     1     2     0     0  5.248649369E+01  1.838546743E+02 -1.082106928E+02  2.527685252E+02  1.250000000E+02  0.00000E+00  9.000E+00
      25     1     1     2     0     0 -2.958744368E+01 -1.992426297E+02 -1.152415586E+02  2.635880482E+02  1.250000000E+02  0.00000E+00  9.000E+00
       2     1     1     2   502     0 -2.289905001E+01  1.538795541E+01 -9.753922601E+02  9.757823613E+02  1.525878906E-05  0.00000E+00  9.000E+00
#rwgt            1           1   1.6024654557273702E-002           6      478405           0
</event>
<event>
      5   9999  3.79277E-02  2.23457E+01 -1.00000E+00  1.62491E-01
      21    -1     0     0   502   501  0.000000000E+00  0.000000000E+00  1.267765045E+02  1.267765045E+02  0.000000000E+00  0.00000E+00  9.000E+00
      21    -1     0     0   511   502  0.000000000E+00  0.000000000E+00 -3.194501609E+02  3.194501609E+02  0.000000000E+00  0.00000E+00  9.000E+00
      25     1     1     2     0     0 -3.302145793E+01  2.590668061E+01 -1.703436319E+02  2.154147760E+02  1.250000000E+02  0.00000E+00  9.000E+00
      25     1     1     2     0     0  1.873928952E+01 -4.309245011E+01  5.934637119E+01  1.461338838E+02  1.250000000E+02  0.00000E+00  9.000E+00
      21     1     1     2   511   501  1.428216841E+01  1.718576950E+01 -8.167639578E+01  8.467800561E+01  9.536743164E-07  0.00000E+00  9.000E+00
#rwgt            1           1   3.9675875260443721E-002           6      478582           0
</event>
<event>
      5   9999  3.79277E-02  4.39353E+01 -1.00000E+00  1.42357E-01
      21    -1     0     0   502   501  0.000000000E+00  0.000000000E+00  2.075963585E+02  2.075963585E+02  0.000000000E+00  0.00000E+00  9.000E+00
      21    -1     0     0   512   502  0.000000000E+00  0.000000000E+00 -5.457704655E+02  5.457704655E+02  0.000000000E+00  0.00000E+00  9.000E+00
      25     1     1     2     0     0  6.015711565E+01  2.759237240E+01  1.382129303E+02  1.977575073E+02  1.250000000E+02  0.00000E+00  9.000E+00
      25     1     1     2     0     0 -2.109700103E+01 -4.770749802E+01 -8.106466283E+01  1.578529961E+02  1.250000000E+02  0.00000E+00  9.000E+00
      21     1     1     2   512   501 -3.906011462E+01  2.011512563E+01 -3.953223745E+02  3.977563206E+02  0.000000000E+00  0.00000E+00  9.000E+00
#rwgt            1           1   4.3270473845395376E-002           6      478788           0
</event>
<event>
      5   9999  3.79277E-02  2.21161E+02 -1.00000E+00  1.10081E-01
       1    -1     0     0   502     0  0.000000000E+00  0.000000000E+00  1.298605984E+03  1.298605984E+03  0.000000000E+00  0.00000E+00  9.000E+00
      21    -1     0     0   501   502  0.000000000E+00  0.000000000E+00 -3.526535592E+02  3.526535592E+02  0.000000000E+00  0.00000E+00  9.000E+00
      25     1     1     2     0     0 -1.056860375E+02 -1.709644642E+02 -9.018716300E+01  2.532925402E+02  1.250000000E+02  0.00000E+00  9.000E+00
      25     1     1     2     0     0 -1.152294385E+02  1.813768215E+02 -7.920293826E+01  2.609089503E+02  1.250000000E+02  0.00000E+00  9.000E+00
       1     1     1     2   501     0  2.209154761E+02 -1.041235727E+01  1.115342526E+03  1.137058053E+03  2.157918644E-05  0.00000E+00  9.000E+00
#rwgt            1           1   3.6918444478091797E-002           6      478977           0
</event>
<event>
      5   9999  3.79277E-02  1.85214E+02 -1.00000E+00  1.12876E-01
      21    -1     0     0   502   501  0.000000000E+00  0.000000000E+00  6.105294528E+02  6.105294528E+02  0.000000000E+00  0.00000E+00  9.000E+00
       2    -1     0     0   501     0  0.000000000E+00  0.000000000E+00 -2.264810724E+03  2.264810724E+03  0.000000000E+00  0.00000E+00  9.000E+00
      25     1     1     2     0     0 -2.971442833E+02 -1.251596249E+01  1.091908764E+02  3.405862914E+02  1.250000000E+02  0.00000E+00  9.000E+00
      25     1     1     2     0     0  1.625890101E+02  1.397916043E+02  3.412136082E+02  4.219343613E+02  1.250000000E+02  0.00000E+00  9.000E+00
       2     1     1     2   502     0  1.345552732E+02 -1.272756418E+02 -2.104685756E+03  2.112819524E+03  3.051757812E-05  0.00000E+00  9.000E+00
#rwgt            1           1   4.5913836493583604E-002           6      479097           0
</event>
<event>
      5   9999  3.79277E-02  3.64757E+01 -1.00000E+00  1.47369E-01
      21    -1     0     0   502   511  0.000000000E+00  0.000000000E+00  4.258523980E+02  4.258523980E+02  0.000000000E+00  0.00000E+00  9.000E+00
      21    -1     0     0   501   502  0.000000000E+00  0.000000000E+00 -1.086128695E+02  1.086128695E+02  0.000000000E+00  0.00000E+00  9.000E+00
      25     1     1     2     0     0 -1.362931782E+02  7.315759759E+01  8.804641288E+01  2.174972076E+02  1.250000000E+02  0.00000E+00  9.000E+00
      25     1     1     2     0     0  1.145973670E+02 -4.383575742E+01  1.533063625E+02  2.327702105E+02  1.250000000E+02  0.00000E+00  9.000E+00
      21     1     1     2   501   511  2.169581125E+01 -2.932184016E+01  7.588675309E+01  8.419784933E+01  9.536743164E-07  0.00000E+00  9.000E+00
#rwgt            1           1   4.4203883980912559E-002           6      479229           0
</event>
<event>
      5   9999  3.79277E-02  6.43383E+01 -1.00000E+00  1.33103E-01
      21    -1     0     0   502   501  0.000000000E+00  0.000000000E+00  1.919612495E+03  1.919612495E+03  0.000000000E+00  0.00000E+00  9.000E+00
      21    -1     0     0   512   502  0.000000000E+00  0.000000000E+00 -9.201084621E+01  9.201084621E+01  0.000000000E+00  0.00000E+00  9.000E+00
      25     1     1     2     0     0 -1.151463159E+02  1.310260057E+02  1.574135846E+02  2.661400474E+02  1.250000000E+02  0.00000E+00  9.000E+00
      25     1     1     2     0     0  1.511802021E+02 -1.843268093E+02  1.658363574E+03  1.680067430E+03  1.250000000E+02  0.00000E+00  9.000E+00
      21     1     1     2   512   501 -3.603388629E+01  5.330080360E+01  1.182448996E+01  6.541586343E+01  1.227334755E-06  0.00000E+00  9.000E+00
#rwgt            1           1   5.0820634000121816E-002           6      479381           0
</event>
<event>
      5   9999  3.79277E-02  4.13075E+01 -1.00000E+00  1.43979E-01
      21    -1     0     0   502   501  0.000000000E+00  0.000000000E+00  8.155229711E+02  8.155229711E+02  0.000000000E+00  0.00000E+00  9.000E+00
      21    -1     0     0   501   511  0.000000000E+00  0.000000000E+00 -1.745982217E+02  1.745982217E+02  0.000000000E+00  0.00000E+00  9.000E+00
      25     1     1     2     0     0 -9.586535245E+01  3.630929684E+01  6.431098630E+02  6.631167520E+02  1.250000000E+02  0.00000E+00  9.000E+00
      25     1     1     2     0     0  7.454445935E+01 -9.294751052E-01  1.258889010E+02  1.924337698E+02  1.250000000E+02  0.00000E+00  9.000E+00
      21     1     1     2   502   511  2.132089311E+01 -3.537982173E+01 -1.280740147E+02  1.345706711E+02  3.814697266E-06  0.00000E+00  9.000E+00
#rwgt            1           1   4.4808820748496278E-002           6      479540           0
</event>
<event>
      5   9999  3.79277E-02  6.50754E+01 -1.00000E+00  1.32846E-01
      21    -1     0     0   502   501  0.000000000E+00  0.000000000E+00  3.446350738E+02  3.446350738E+02  0.000000000E+00  0.00000E+00  9.000E+00
      21    -1     0     0   512   502  0.000000000E+00  0.000000000E+00 -2.690414692E+02  2.690414692E+02  0.000000000E+00  0.00000E+00  9.000E+00
      25     1     1     2     0     0  1.137051739E+02  7.349080436E+01  1.385854649E+02  2.305660338E+02  1.250000000E+02  0.00000E+00  9.000E+00
      25     1     1     2     0     0 -7.091563639E+01 -2.446153810E+01  1.200466282E+02  1.888480534E+02  1.250000000E+02  0.00000E+00  9.000E+00
      21     1     1     2   512   501 -4.278953746E+01 -4.902926626E+01 -1.830384885E+02  1.942624558E+02  2.697398305E-06  0.00000E+00  9.000E+00
#rwgt            1           1   3.5045750113015250E-002           6      479670           0
</event>
<event>
      5   9999  3.79277E-02  3.01792E+01 -1.00000E+00  1.52860E-01
      21    -1     0     0   511   501  0.000000000E+00  0.000000000E+00  1.899554011E+02  1.899554011E+02  0.000000000E+00  0.00000E+00  9.000E+00
      21    -1     0     0   501   502  0.000000000E+00  0.000000000E+00 -2.786617601E+02  2.786617601E+02  0.000000000E+00  0.00000E+00  9.000E+00
      25     1     1     2     0     0 -6.755044900E+01 -1.524442733E+02 -1.518425451E+01  2.089446845E+02  1.250000000E+02  0.00000E+00  9.000E+00
      25     1     1     2     0     0  9.762844764E+01  1.499751769E+02 -7.027299601E+01  2.293189078E+02  1.250000000E+02  0.00000E+00  9.000E+00
      21     1     1     2   511   502 -3.007799863E+01  2.469096312E+00 -3.249108503E+00  3.035356889E+01  6.717102331E-07  0.00000E+00  9.000E+00
#rwgt            1           1   2.8954643279395589E-002           6      479804           0
</event>
<event>
      5   9999  3.79277E-02  1.98834E+01 -1.00000E+00  1.66579E-01
      21    -1     0     0   502   501  0.000000000E+00  0.000000000E+00  1.868274357E+03  1.868274357E+03  0.000000000E+00  0.00000E+00  9.000E+00
      21    -1     0     0   512   502  0.000000000E+00  0.000000000E+00 -8.315047789E+01  8.315047789E+01  0.000000000E+00  0.00000E+00  9.000E+00
      25     1     1     2     0     0 -1.772032238E+02 -7.214385380E+01  5.577350225E+02  6.027429580E+02  1.250000000E+02  0.00000E+00  9.000E+00
      25     1     1     2     0     0  1.604855546E+02  8.290814786E+01  1.276727525E+03  1.295487378E+03  1.250000000E+02  0.00000E+00  9.000E+00
      21     1     1     2   512   501  1.671766919E+01 -1.076429406E+01 -4.933866832E+01  5.319449860E+01  1.507891493E-06  0.00000E+00  9.000E+00
#rwgt            1           1   3.3735115254149933E-002           6      479962           0
</event>
<event>
      5   9999  3.79277E-02  4.55278E+01 -1.00000E+00  1.41438E-01
      21    -1     0     0   502   501  0.000000000E+00  0.000000000E+00  2.291184199E+02  2.291184199E+02  0.000000000E+00  0.00000E+00  9.000E+00
      21    -1     0     0   501   511  0.000000000E+00  0.000000000E+00 -3.624970385E+02  3.624970385E+02  0.000000000E+00  0.00000E+00  9.000E+00
      25     1     1     2     0     0 -9.085177985E+01  1.024029371E+02 -1.945922044E+02  2.687592481E+02  1.250000000E+02  0.00000E+00  9.000E+00
      25     1     1     2     0     0  1.356699395E+02 -9.439601546E+01  1.268565293E+02  2.429702024E+02  1.250000000E+02  0.00000E+00  9.000E+00
      21     1     1     2   502   511 -4.481815969E+01 -8.006921603E+00 -6.564294352E+01  7.988600795E+01  1.348699152E-06  0.00000E+00  9.000E+00
#rwgt            1           1   4.0097482168157554E-002           6      480250           0
</event>
<event>
      5   9999  3.79277E-02  7.70499E+01 -1.00000E+00  1.29144E-01
      21    -1     0     0   502   512  0.000000000E+00  0.000000000E+00  9.304786902E+02  9.304786902E+02  0.000000000E+00  0.00000E+00  9.000E+00
      21    -1     0     0   501   502  0.000000000E+00  0.000000000E+00 -2.938843110E+02  2.938843110E+02  0.000000000E+00  0.00000E+00  9.000E+00
      25     1     1     2     0     0  4.216778478E+01 -3.530218072E+01 -1.763110337E+02  2.230133329E+02  1.250000000E+02  0.00000E+00  9.000E+00
      25     1     1     2     0     0  2.993834700E+01  8.147071845E+00 -4.766983041E+01  1.373320506E+02  1.250000000E+02  0.00000E+00  9.000E+00
      21     1     1     2   501   512 -7.210613178E+01  2.715510888E+01  8.605752433E+02  8.640176176E+02  0.000000000E+00  0.00000E+00  9.000E+00
#rwgt            1           1   2.4658791246239386E-002           6      480453           0
</event>
<event>
      5   9999  3.79277E-02  6.92417E+01 -1.00000E+00  1.31461E-01
       2    -1     0     0   502     0  0.000000000E+00  0.000000000E+00  9.119760887E+02  9.119760887E+02  0.000000000E+00  0.00000E+00  9.000E+00
      21    -1     0     0   501   502  0.000000000E+00  0.000000000E+00 -7.628931872E+02  7.628931872E+02  0.000000000E+00  0.00000E+00  9.000E+00
      25     1     1     2     0     0  1.197673323E+01  5.195918023E+01 -5.874686042E+02  6.029822216E+02  1.250000000E+02  0.00000E+00  9.000E+00
      25     1     1     2     0     0  4.520397943E+01 -1.291071822E+01 -1.394903594E+02  1.931130414E+02  1.250000000E+02  0.00000E+00  9.000E+00
       2     1     1     2   501     0 -5.718071266E+01 -3.904846200E+01  8.760418651E+02  8.787740129E+02  0.000000000E+00  0.00000E+00  9.000E+00
#rwgt            1           1   4.0908283146226562E-002           6      480517           0
</event>
<event>
      5   9999 -3.79277E-02  3.54167E+01 -1.00000E+00  1.48196E-01
      21    -1     0     0   502   501  0.000000000E+00  0.000000000E+00  1.192417142E+02  1.192417142E+02  0.000000000E+00  0.00000E+00  9.000E+00
      21    -1     0     0   511   502  0.000000000E+00  0.000000000E+00 -6.969103101E+02  6.969103101E+02  0.000000000E+00  0.00000E+00  9.000E+00
      25     1     1     2     0     0  1.462986287E+02  1.157262643E+02 -1.355466866E+02  2.622856482E+02  1.250000000E+02  0.00000E+00  9.000E+00
      25     1     1     2     0     0 -1.514304075E+02 -1.507691678E+02 -2.271066606E+02  3.359537849E+02  1.250000000E+02  0.00000E+00  9.000E+00
      21     1     1     2   511   501  5.131778834E+00  3.504290346E+01 -2.150152487E+02  2.179125912E+02  0.000000000E+00  0.00000E+00  9.000E+00
#rwgt            1           1  -6.1162643418433110E-002           6      480607           0
</event>
<event>
      5   9999  3.79277E-02  5.06909E+01 -1.00000E+00  1.38736E-01
      21    -1     0     0   502   501  0.000000000E+00  0.000000000E+00  1.231489590E+02  1.231489590E+02  0.000000000E+00  0.00000E+00  9.000E+00
       2    -1     0     0   501     0  0.000000000E+00  0.000000000E+00 -2.587796873E+03  2.587796873E+03  0.000000000E+00  0.00000E+00  9.000E+00
      25     1     1     2     0     0  1.017113223E+02 -9.860313233E+01 -4.922259796E+01  1.952322589E+02  1.250000000E+02  0.00000E+00  9.000E+00
      25     1     1     2     0     0 -1.289602541E+02  5.585892819E+01 -1.275010513E+02  2.272278264E+02  1.250000000E+02  0.00000E+00  9.000E+00
       2     1     1     2   502     0  2.724893190E+01  4.274420413E+01 -2.287924265E+03  2.288485747E+03  3.051757812E-05  0.00000E+00  9.000E+00
#rwgt            1           1   4.5169112874211596E-002           6      480751           0
</event>
<event>
      5   9999  3.79277E-02  1.42939E+02 -1.00000E+00  1.17230E-01
      -1    -1     0     0     0   501  0.000000000E+00  0.000000000E+00  4.692087678E+02  4.692087678E+02  0.000000000E+00  0.00000E+00  9.000E+00
      21    -1     0     0   501   502  0.000000000E+00  0.000000000E+00 -3.635798435E+02  3.635798435E+02  0.000000000E+00  0.00000E+00  9.000E+00
      25     1     1     2     0     0 -2.001948751E+01 -5.994252803E+01  7.644181917E+01  1.595689138E+02  1.250000000E+02  0.00000E+00  9.000E+00
      25     1     1     2     0     0 -1.202886597E+02  3.264287106E+01 -2.809075373E+02  3.317664287E+02  1.250000000E+02  0.00000E+00  9.000E+00
      -1     1     1     2     0   502  1.403081472E+02  2.729965698E+01  3.100946424E+02  3.414532687E+02  0.000000000E+00  0.00000E+00  9.000E+00
#rwgt            1           1   4.2837844324287284E-002           6      480848           0
</event>
<event>
      5   9999  3.79277E-02  1.38864E+01 -1.00000E+00  1.80599E-01
      21    -1     0     0   502   501  0.000000000E+00  0.000000000E+00  9.037474414E+02  9.037474414E+02  0.000000000E+00  0.00000E+00  9.000E+00
      21    -1     0     0   511   502  0.000000000E+00  0.000000000E+00 -1.254944149E+02  1.254944149E+02  0.000000000E+00  0.00000E+00  9.000E+00
      25     1     1     2     0     0  3.218909830E+01  1.947857248E+02  5.514123417E+02  5.988807788E+02  1.250000000E+02  0.00000E+00  9.000E+00
      25     1     1     2     0     0 -4.600443191E+01 -1.961885672E+02  2.848942578E+02  3.706697989E+02  1.250000000E+02  0.00000E+00  9.000E+00
      21     1     1     2   511   501  1.381533362E+01  1.402842466E+00 -5.805357294E+01  5.969127860E+01  0.000000000E+00  0.00000E+00  9.000E+00
#rwgt            1           1   4.1051675775028246E-002           6      480992           0
</event>
<event>
      5   9999  3.79277E-02  7.89892E+00 -1.00000E+00  2.08395E-01
      21    -1     0     0   512   501  0.000000000E+00  0.000000000E+00  1.294468350E+02  1.294468350E+02  0.000000000E+00  0.00000E+00  9.000E+00
      21    -1     0     0   501   502  0.000000000E+00  0.000000000E+00 -3.861110071E+02  3.861110071E+02  0.000000000E+00  0.00000E+00  9.000E+00
      25     1     1     2     0     0 -1.330190395E+02  1.164009470E+02 -8.028438675E+01  2.308978737E+02  1.250000000E+02  0.00000E+00  9.000E+00
      25     1     1     2     0     0  1.251201294E+02 -1.164114888E+02 -1.779785498E+02  2.766008780E+02  1.250000000E+02  0.00000E+00  9.000E+00
      21     1     1     2   512   502  7.898910058E+00  1.054181343E-02  1.598764427E+00  8.059090453E+00  1.475139698E-07  0.00000E+00  9.000E+00
#rwgt            1           1   5.0209943414800076E-002           6      481234           0
</event>
<event>
      5   9999  3.79277E-02  3.39536E+01 -1.00000E+00  1.49397E-01
      21    -1     0     0   502   501  0.000000000E+00  0.000000000E+00  2.101316776E+01  2.101316776E+01  0.000000000E+00  0.00000E+00  9.000E+00
      21    -1     0     0   501   511  0.000000000E+00  0.000000000E+00 -3.339338007E+03  3.339338007E+03  0.000000000E+00  0.00000E+00  9.000E+00
      25     1     1     2     0     0 -1.038872936E+01 -1.239497868E+02 -4.213294478E+02  4.567438877E+02  1.250000000E+02  0.00000E+00  9.000E+00
      25     1     1     2     0     0  2.870684086E+01  9.536145956E+01 -2.208589836E+03  2.214364910E+03  1.250000000E+02  0.00000E+00  9.000E+00
      21     1     1     2   502   511 -1.831811149E+01  2.858832729E+01 -6.884055556E+02  6.892423773E+02  0.000000000E+00  0.00000E+00  9.000E+00
#rwgt            1           1   7.8323817563223957E-002           6      481744           0
</event>
<event>
      5   9999  3.79277E-02  1.80913E+02 -1.00000E+00  1.13257E-01
      21    -1     0     0   502   501  0.000000000E+00  0.000000000E+00  1.361100395E+03  1.361100395E+03  0.000000000E+00  0.00000E+00  9.000E+00
      21    -1     0     0   501   512  0.000000000E+00  0.000000000E+00 -5.031524705E+02  5.031524705E+02  0.000000000E+00  0.00000E+00  9.000E+00
      25     1     1     2     0     0 -4.087562404E+02 -7.290663575E+00  7.854424614E+02  8.942481076E+02  1.250000000E+02  0.00000E+00  9.000E+00
      25     1     1     2     0     0  3.417713774E+02  1.753459662E+02  4.171995277E+02  5.807188030E+02  1.250000000E+02  0.00000E+00  9.000E+00
      21     1     1     2   502   512  6.698486299E+01 -1.680553027E+02 -3.446940645E+02  3.892859550E+02  0.000000000E+00  0.00000E+00  9.000E+00
#rwgt            1           1   3.4369689079671278E-002           6      481912           0
</event>
<event>
      5   9999 -3.79277E-02  3.89604E+01 -1.00000E+00  1.45553E-01
      21    -1     0     0   502   501  0.000000000E+00  0.000000000E+00  2.169281737E+02  2.169281737E+02  0.000000000E+00  0.00000E+00  9.000E+00
      -1    -1     0     0     0   502  0.000000000E+00  0.000000000E+00 -1.658757786E+02  1.658757786E+02  0.000000000E+00  0.00000E+00  9.000E+00
      25     1     1     2     0     0 -8.085601113E+01  8.020862623E+01 -4.021003414E+01  1.738187709E+02  1.250000000E+02  0.00000E+00  9.000E+00
      25     1     1     2     0     0  6.833027111E+01 -4.331659132E+01  7.565241242E+01  1.670138932E+02  1.250000000E+02  0.00000E+00  9.000E+00
      -1     1     1     2     0   501  1.252574002E+01 -3.689203492E+01  1.561001688E+01  4.197128817E+01  5.057621821E-07  0.00000E+00  9.000E+00
#rwgt            1           1  -3.8223047274600899E-003           6      481977           0
</event>
<event>
      5   9999  3.79277E-02  8.01082E+01 -1.00000E+00  1.28321E-01
      21    -1     0     0   502   501  0.000000000E+00  0.000000000E+00  3.265749411E+02  3.265749411E+02  0.000000000E+00  0.00000E+00  9.000E+00
      21    -1     0     0   501   511  0.000000000E+00  0.000000000E+00 -1.913754863E+02  1.913754863E+02  0.000000000E+00  0.00000E+00  9.000E+00
      25     1     1     2     0     0 -9.032490324E+01 -9.567854389E+01  1.862956756E+02  2.600846990E+02  1.250000000E+02  0.00000E+00  9.000E+00
      25     1     1     2     0     0  9.429899368E+01  1.566894155E+01  9.155264830E+00  1.576281536E+02  1.250000000E+02  0.00000E+00  9.000E+00
      21     1     1     2   502   511 -3.974090444E+00  8.000960233E+01 -6.025148575E+01  1.002375748E+02  1.168007728E-06  0.00000E+00  9.000E+00
#rwgt            2          11   1.8030563761617839E-003           6      482090           0
</event>
<event>
      5   9999  3.79277E-02  3.88951E+01 -1.00000E+00  1.45599E-01
      21    -1     0     0   502   501  0.000000000E+00  0.000000000E+00  4.178644514E+01  4.178644514E+01  0.000000000E+00  0.00000E+00  9.000E+00
      21    -1     0     0   512   502  0.000000000E+00  0.000000000E+00 -1.621015410E+03  1.621015410E+03  0.000000000E+00  0.00000E+00  9.000E+00
      25     1     1     2     0     0  4.612421509E+01  1.794516514E+02 -9.286710413E+02  9.551885894E+02  1.250000000E+02  0.00000E+00  9.000E+00
      25     1     1     2     0     0 -2.971168321E+01 -1.441889964E+02 -3.127548705E+02  3.675783724E+02  1.250000000E+02  0.00000E+00  9.000E+00
      21     1     1     2   512   501 -1.641253188E+01 -3.526265504E+01 -3.378030532E+02  3.400348934E+02  0.000000000E+00  0.00000E+00  9.000E+00
#rwgt            1           1   8.9488148651115887E-002           6      482185           0
</event>
<event>
      5   9999  3.79277E-02  2.28743E+02 -1.00000E+00  1.09565E-01
      21    -1     0     0   502   501  0.000000000E+00  0.000000000E+00  5.472619970E+02  5.472619970E+02  0.000000000E+00  0.00000E+00  9.000E+00
      21    -1     0     0   511   502  0.000000000E+00  0.000000000E+00 -2.315430738E+02  2.315430738E+02  0.000000000E+00  0.00000E+00  9.000E+00
      25     1     1     2     0     0  1.825500141E+02  1.823289361E+02  2.552832209E+02  3.838787197E+02  1.250000000E+02  0.00000E+00  9.000E+00
      25     1     1     2     0     0 -7.849167674E+01  2.137436902E+01  7.257636547E+01  1.658617973E+02  1.250000000E+02  0.00000E+00  9.000E+00
      21     1     1     2   511   501 -1.040583373E+02 -2.037033052E+02 -1.214066323E+01  2.290645538E+02  3.081047054E-06  0.00000E+00  9.000E+00
#rwgt            2          11   1.4878848235576620E-003           6      482380           0
</event>
<event>
      5   9999  3.79277E-02  2.29519E+01 -1.00000E+00  1.61582E-01
      21    -1     0     0   512   501  0.000000000E+00  0.000000000E+00  1.554768029E+02  1.554768029E+02  0.000000000E+00  0.00000E+00  9.000E+00
      21    -1     0     0   501   502  0.000000000E+00  0.000000000E+00 -2.359202581E+02  2.359202581E+02  0.000000000E+00  0.00000E+00  9.000E+00
      25     1     1     2     0     0  2.657751811E+01 -8.189179734E+01 -1.459126750E+02  2.105424890E+02  1.250000000E+02  0.00000E+00  9.000E+00
      25     1     1     2     0     0 -1.214788027E+01  6.404310768E+01  7.009657195E+01  1.574408461E+02  1.250000000E+02  0.00000E+00  9.000E+00
      21     1     1     2   512   502 -1.442963784E+01  1.784868967E+01 -4.627352201E+00  2.341372588E+01  4.339283639E-07  0.00000E+00  9.000E+00
#rwgt            1           1   2.8276636060870136E-002           6      482445           0
</event>
<event>
      5   9999  3.79277E-02  2.12627E+02 -1.00000E+00  1.10689E-01
      -5    -1     0     0     0   501  0.000000000E+00  0.000000000E+00  7.539728310E+01  7.539728310E+01  0.000000000E+00  0.00000E+00  9.000E+00
      21    -1     0     0   501   502  0.000000000E+00  0.000000000E+00 -1.606784144E+03  1.606784144E+03  0.000000000E+00  0.00000E+00  9.000E+00
      25     1     1     2     0     0 -4.856589570E+01 -2.735549992E+01 -8.257462071E+02  8.370118088E+02  1.250000000E+02  0.00000E+00  9.000E+00
      25     1     1     2     0     0 -1.191050849E+02 -1.033991620E+02 -5.379840046E+02  5.743946354E+02  1.250000000E+02  0.00000E+00  9.000E+00
      -5     1     1     2     0   502  1.676709806E+02  1.307546620E+02 -1.676566494E+02  2.707749831E+02  6.031565972E-06  0.00000E+00  9.000E+00
#rwgt            1           1  0.10984320179391285                6      482579           0
</event>
<event>
      5   9999  3.79277E-02  4.06636E+01 -1.00000E+00  1.44398E-01
      21    -1     0     0   502   501  0.000000000E+00  0.000000000E+00  1.013175494E+02  1.013175494E+02  0.000000000E+00  0.00000E+00  9.000E+00
      21    -1     0     0   501   511  0.000000000E+00  0.000000000E+00 -3.737975425E+02  3.737975425E+02  0.000000000E+00  0.00000E+00  9.000E+00
      25     1     1     2     0     0 -8.249909003E+01 -4.140628316E+01 -1.412927558E+02  2.100219584E+02  1.250000000E+02  0.00000E+00  9.000E+00
      25     1     1     2     0     0  6.725737782E+01  7.910532032E+01 -4.316965791E+01  1.681363314E+02  1.250000000E+02  0.00000E+00  9.000E+00
      21     1     1     2   502   511  1.524171222E+01 -3.769903716E+01 -8.801757940E+01  9.695680212E+01  1.651812370E-06  0.00000E+00  9.000E+00
#rwgt            1           1   5.3658007421426783E-002           6      482635           0
</event>
<event>
      5   9999  3.79277E-02  8.07097E+01 -1.00000E+00  1.28164E-01
      21    -1     0     0   502   501  0.000000000E+00  0.000000000E+00  2.747349485E+02  2.747349485E+02  0.000000000E+00  0.00000E+00  9.000E+00
      -1    -1     0     0     0   502  0.000000000E+00  0.000000000E+00 -5.225253806E+02  5.225253806E+02  0.000000000E+00  0.00000E+00  9.000E+00
      25     1     1     2     0     0 -2.089115100E+02  6.342194220E+01  3.049857611E+01  2.534196616E+02  1.250000000E+02  0.00000E+00  9.000E+00
      25     1     1     2     0     0  1.292077151E+02 -7.612459169E+01  5.345858304E+01  2.024164203E+02  1.250000000E+02  0.00000E+00  9.000E+00
      -1     1     1     2     0   501  7.970379489E+01  1.270264949E+01 -3.317475913E+02  3.414242472E+02  3.814697266E-06  0.00000E+00  9.000E+00
#rwgt            1           1   4.7722487972867100E-002           6      482762           0
</event>
<event>
      5   9999  3.79277E-02  1.09573E+02 -1.00000E+00  1.22068E-01
      21    -1     0     0   502   501  0.000000000E+00  0.000000000E+00  2.227092776E+03  2.227092776E+03  0.000000000E+00  0.00000E+00  9.000E+00
      21    -1     0     0   501   511  0.000000000E+00  0.000000000E+00 -7.498729233E+01  7.498729233E+01  0.000000000E+00  0.00000E+00  9.000E+00
      25     1     1     2     0     0  1.223189587E+02  2.209758019E+02  1.175959932E+03  1.209255554E+03  1.250000000E+02  0.00000E+00  9.000E+00
      25     1     1     2     0     0 -1.554749040E+02 -3.254124821E+02  7.511205583E+02  8.425395079E+02  1.250000000E+02  0.00000E+00  9.000E+00
      21     1     1     2   502   511  3.315594531E+01  1.044366802E+02  2.250249930E+02  2.502850062E+02  2.697398305E-06  0.00000E+00  9.000E+00
#rwgt            1           1  0.12204536330420607                6      482874           0
</event>
<event>
      5   9999  3.79277E-02  1.83066E+01 -1.00000E+00  1.69603E-01
      21    -1     0     0   512   501  0.000000000E+00  0.000000000E+00  8.922866917E+02  8.922866917E+02  0.000000000E+00  0.00000E+00  9.000E+00
      21    -1     0     0   501   502  0.000000000E+00  0.000000000E+00 -6.763844934E+01  6.763844934E+01  0.000000000E+00  0.00000E+00  9.000E+00
      25     1     1     2     0     0 -3.584558199E+01 -1.958917931E+02  4.362200338E+02  4.955516303E+02  1.250000000E+02  0.00000E+00  9.000E+00
      25     1     1     2     0     0  5.189431969E+01  1.870845148E+02  3.272402170E+02  4.005056750E+02  1.250000000E+02  0.00000E+00  9.000E+00
      21     1     1     2   512   502 -1.604873770E+01  8.807278320E+00  6.118799157E+01  6.386783577E+01  0.000000000E+00  0.00000E+00  9.000E+00
#rwgt            1           1   3.4949851594331380E-002           6      483021           0
</event>
<event>
      5   9999  3.79277E-02  1.32922E+02 -1.00000E+00  1.18513E-01
      21    -1     0     0   502   501  0.000000000E+00  0.000000000E+00  8.832744712E+01  8.832744712E+01  0.000000000E+00  0.00000E+00  9.000E+00
      21    -1     0     0   501   511  0.000000000E+00  0.000000000E+00 -8.474018133E+02  8.474018133E+02  0.000000000E+00  0.00000E+00  9.000E+00
      25     1     1     2     0     0  6.590083220E+00  9.400709423E+00 -1.992687359E+01  1.270979261E+02  1.250000000E+02  0.00000E+00  9.000E+00
      25     1     1     2     0     0 -1.391037926E+02 -1.980873586E+01 -5.120595064E+02  5.455017775E+02  1.250000000E+02  0.00000E+00  9.000E+00
      21     1     1     2   502   511  1.325137094E+02  1.040802644E+01 -2.270879861E+02  2.631295568E+02  3.814697266E-06  0.00000E+00  9.000E+00
#rwgt            1           1   4.7635947521276187E-002           6      483399           0
</event>
<event>
      5   9999  3.79277E-02  5.22190E+01 -1.00000E+00  1.38008E-01
      21    -1     0     0   502   501  0.000000000E+00  0.000000000E+00  1.232331752E+03  1.232331752E+03  0.000000000E+00  0.00000E+00  9.000E+00
      21    -1     0     0   512   502  0.000000000E+00  0.000000000E+00 -6.195565058E+02  6.195565058E+02  0.000000000E+00  0.00000E+00  9.000E+00
      25     1     1     2     0     0  1.816750787E+02  1.663975530E+01  5.950298560E+02  6.347977987E+02  1.250000000E+02  0.00000E+00  9.000E+00
      25     1     1     2     0     0 -1.523617265E+02  2.657543307E+01  6.002071376E+02  6.322926201E+02  1.250000000E+02  0.00000E+00  9.000E+00
      21     1     1     2   512   501 -2.931335218E+01 -4.321518837E+01 -5.824617475E+02  5.847978389E+02  1.078959322E-05  0.00000E+00  9.000E+00
#rwgt            1           1   3.4941687943798254E-002           6      483475           0
</event>
<event>
      5   9999  3.79277E-02  3.64874E+01 -1.00000E+00  1.47360E-01
      21    -1     0     0   502   501  0.000000000E+00  0.000000000E+00  7.553939480E+01  7.553939480E+01  0.000000000E+00  0.00000E+00  9.000E+00
      21    -1     0     0   511   502  0.000000000E+00  0.000000000E+00 -7.651911942E+02  7.651911942E+02  0.000000000E+00  0.00000E+00  9.000E+00
      25     1     1     2     0     0 -1.174932777E+02 -1.023256827E+02 -1.323074727E+02  2.395944135E+02  1.250000000E+02  0.00000E+00  9.000E+00
      25     1     1     2     0     0  8.100705914E+01  1.026130942E+02 -3.906140799E+02  4.304601609E+02  1.250000000E+02  0.00000E+00  9.000E+00
      21     1     1     2   511   501  3.648621858E+01 -2.874115444E-01 -1.667302468E+02  1.706760145E+02  1.907348633E-06  0.00000E+00  9.000E+00
#rwgt            1           1   2.0541272582871473E-002           6      483575           0
</event>
<event>
      5   9999  3.79277E-02  1.86210E+01 -1.00000E+00  1.68970E-01
      21    -1     0     0   502   501  0.000000000E+00  0.000000000E+00  1.058658032E+03  1.058658032E+03  0.000000000E+00  0.00000E+00  9.000E+00
      21    -1     0     0   501   512  0.000000000E+00  0.000000000E+00 -9.991786084E+01  9.991786084E+01  0.000000000E+00  0.00000E+00  9.000E+00
      25     1     1     2     0     0  1.433605553E+02  1.149086813E+02  1.421399387E+02  2.637897193E+02  1.250000000E+02  0.00000E+00  9.000E+00
      25     1     1     2     0     0 -1.479616446E+02 -1.329523144E+02  8.357099276E+02  8.681042848E+02  1.250000000E+02  0.00000E+00  9.000E+00
      21     1     1     2   502   512  4.601089306E+00  1.804363310E+01 -1.910969534E+01  2.668188850E+01  6.307962682E-07  0.00000E+00  9.000E+00
#rwgt            2          11   8.1604528331639275E-004           6      483724           0
</event>
<event>
      5   9999  3.79277E-02  8.13606E+01 -1.00000E+00  1.27996E-01
      21    -1     0     0   502   501  0.000000000E+00  0.000000000E+00  6.158356454E+02  6.158356454E+02  0.000000000E+00  0.00000E+00  9.000E+00
      21    -1     0     0   511   502  0.000000000E+00  0.000000000E+00 -1.446124002E+02  1.446124002E+02  0.000000000E+00  0.00000E+00  9.000E+00
      25     1     1     2     0     0 -2.174716124E+02 -4.389335946E+01  2.525365135E+02  3.586366125E+02  1.250000000E+02  0.00000E+00  9.000E+00
      25     1     1     2     0     0  1.997854433E+02 -3.552170393E+01  2.140134835E+02  3.203166963E+02  1.250000000E+02  0.00000E+00  9.000E+00
      21     1     1     2   511   501  1.768616903E+01  7.941506339E+01  4.673248231E+00  8.149473675E+01  3.862822472E-07  0.00000E+00  9.000E+00
#rwgt            1           1   4.1855224614748034E-002           6      483849           0
</event>
<event>
      5   9999  3.79277E-02  1.58085E+02 -1.00000E+00  1.15497E-01
      21    -1     0     0   502   501  0.000000000E+00  0.000000000E+00  9.368515383E+02  9.368515383E+02  0.000000000E+00  0.00000E+00  9.000E+00
      21    -1     0     0   501   512  0.000000000E+00  0.000000000E+00 -2.869436453E+02  2.869436453E+02  0.000000000E+00  0.00000E+00  9.000E+00
      25     1     1     2     0     0  2.331575996E+02  1.451684933E+02  3.699239898E+02  4.773940887E+02  1.250000000E+02  0.00000E+00  9.000E+00
      25     1     1     2     0     0 -1.968181474E+02 -2.990205085E+02  3.975564490E+02  5.493876389E+02  1.250000000E+02  0.00000E+00  9.000E+00
      21     1     1     2   502   512 -3.633945215E+01  1.538520152E+02 -1.175725457E+02  1.970134560E+02  4.046097457E-06  0.00000E+00  9.000E+00
#rwgt            1           1   2.6493448495383931E-002           6      483935           0
</event>
<event>
      5   9999  3.79277E-02  1.45631E+02 -1.00000E+00  1.16905E-01
      21    -1     0     0   502   501  0.000000000E+00  0.000000000E+00  2.986552720E+02  2.986552720E+02  0.000000000E+00  0.00000E+00  9.000E+00
      21    -1     0     0   501   511  0.000000000E+00  0.000000000E+00 -3.457464053E+02  3.457464053E+02  0.000000000E+00  0.00000E+00  9.000E+00
      25     1     1     2     0     0 -2.642873309E+01 -9.709755745E+01  4.414483290E+00  1.605331781E+02  1.250000000E+02  0.00000E+00  9.000E+00
      25     1     1     2     0     0 -5.180641107E+01  2.199292041E+02  9.703225515E+01  2.758496286E+02  1.250000000E+02  0.00000E+00  9.000E+00
      21     1     1     2   502   511  7.823514416E+01 -1.228316466E+02 -1.485378717E+02  2.080188706E+02  3.303624740E-06  0.00000E+00  9.000E+00
#rwgt            2          11   1.8464386845997134E-003           6      484314           0
</event>
<event>
      5   9999  3.79277E-02  3.62833E+01 -1.00000E+00  1.47517E-01
      21    -1     0     0   502   501  0.000000000E+00  0.000000000E+00  1.664790217E+02  1.664790217E+02  0.000000000E+00  0.00000E+00  9.000E+00
      21    -1     0     0   512   502  0.000000000E+00  0.000000000E+00 -1.114158698E+03  1.114158698E+03  0.000000000E+00  0.00000E+00  9.000E+00
      25     1     1     2     0     0  3.252818640E+02 -8.909020902E+01 -2.065345493E+02  4.147612283E+02  1.250000000E+02  0.00000E+00  9.000E+00
      25     1     1     2     0     0 -2.986673664E+02  6.442958844E+01 -3.818965591E+02  5.048003066E+02  1.250000000E+02  0.00000E+00  9.000E+00
      21     1     1     2   512   501 -2.661449762E+01  2.466062058E+01 -3.592485680E+02  3.610761849E+02  5.394796609E-06  0.00000E+00  9.000E+00
#rwgt            1           1   1.3892946596386662E-002           6      484379           0
</event>
<event>
      5   9999  3.79277E-02  4.46764E+01 -1.00000E+00  1.41924E-01
      21    -1     0     0   511   501  0.000000000E+00  0.000000000E+00  2.810851811E+02  2.810851811E+02  0.000000000E+00  0.00000E+00  9.000E+00
      21    -1     0     0   501   502  0.000000000E+00  0.000000000E+00 -2.730580346E+02  2.730580346E+02  0.000000000E+00  0.00000E+00  9.000E+00
      25     1     1     2     0     0  1.613864095E+01  1.536050077E+02 -1.204133366E+02  2.323345126E+02  1.250000000E+02  0.00000E+00  9.000E+00
      25     1     1     2     0     0 -1.853031888E+01 -1.982173781E+02  6.441589168E+01  2.437373767E+02  1.250000000E+02  0.00000E+00  9.000E+00
      21     1     1     2   511   502  2.391677928E+00  4.461237039E+01  6.402459134E+01  7.807132643E+01  9.536743164E-07  0.00000E+00  9.000E+00
#rwgt            1           1   4.1942576617856171E-002           6      484571           0
</event>
<event>
      5   9999  3.79277E-02  9.56165E+01 -1.00000E+00  1.24710E-01
      21    -1     0     0   502   512  0.000000000E+00  0.000000000E+00  3.057951106E+02  3.057951106E+02  0.000000000E+00  0.00000E+00  9.000E+00
      21    -1     0     0   501   502  0.000000000E+00  0.000000000E+00 -2.062814034E+02  2.062814034E+02  0.000000000E+00  0.00000E+00  9.000E+00
      25     1     1     2     0     0 -2.231181494E+01 -4.981383706E+01 -1.062623609E+02  1.729043805E+02  1.250000000E+02  0.00000E+00  9.000E+00
      25     1     1     2     0     0  1.159191206E+02  3.031534922E+01  1.452742911E+02  2.260218630E+02  1.250000000E+02  0.00000E+00  9.000E+00
      21     1     1     2   501   512 -9.360730562E+01  1.949848785E+01  6.050177706E+01  1.131502705E+02  1.651812370E-06  0.00000E+00  9.000E+00
#rwgt            1           1   4.9160305996768468E-002           6      484702           0
</event>
<event>
      5   9999  3.79277E-02  2.34521E+01 -1.00000E+00  1.60858E-01
      21    -1     0     0   502   511  0.000000000E+00  0.000000000E+00  1.029654834E+03  1.029654834E+03  0.000000000E+00  0.00000E+00  9.000E+00
      21    -1     0     0   501   502  0.000000000E+00  0.000000000E+00 -5.269190547E+01  5.269190547E+01  0.000000000E+00  0.00000E+00  9.000E+00
      25     1     1     2     0     0 -1.070755435E+02 -1.165846540E+02  2.668874362E+02  3.345311004E+02  1.250000000E+02  0.00000E+00  9.000E+00
      25     1     1     2     0     0  1.254623402E+02  1.020268911E+02  5.644926220E+02  6.003558991E+02  1.250000000E+02  0.00000E+00  9.000E+00
      21     1     1     2   501   511 -1.838679669E+01  1.455776286E+01  1.455828699E+02  1.474597394E+02  2.697398305E-06  0.00000E+00  9.000E+00
#rwgt            1           1  0.16871539942356059                6      484834           0
</event>
<event>
      5   9999  3.79277E-02  6.41003E+01 -1.00000E+00  1.33187E-01
      21    -1     0     0   502   501  0.000000000E+00  0.000000000E+00  5.780255287E+02  5.780255287E+02  0.000000000E+00  0.00000E+00  9.000E+00
      21    -1     0     0   512   502  0.000000000E+00  0.000000000E+00 -1.967686791E+02  1.967686791E+02  0.000000000E+00  0.00000E+00  9.000E+00
      25     1     1     2     0     0 -1.943366596E+01 -1.055237950E+02  1.181791909E+02  2.027418552E+02  1.250000000E+02  0.00000E+00  9.000E+00
      25     1     1     2     0     0  8.047326446E+01  1.250945894E+02  3.867188038E+02  4.327828968E+02  1.250000000E+02  0.00000E+00  9.000E+00
      21     1     1     2   512   501 -6.103959850E+01 -1.957079449E+01 -1.236411450E+02  1.392694558E+02  0.000000000E+00  0.00000E+00  9.000E+00
#rwgt            1           1   4.1788378694779353E-002           6      484957           0
</event>
<event>
      5   9999  3.79277E-02  6.22966E+01 -1.00000E+00  1.33837E-01
      21    -1     0     0   502   511  0.000000000E+00  0.000000000E+00  2.799531129E+01  2.799531129E+01  0.000000000E+00  0.00000E+00  9.000E+00
      21    -1     0     0   501   502  0.000000000E+00  0.000000000E+00 -2.460046917E+03  2.460046917E+03  0.000000000E+00  0.00000E+00  9.000E+00
      25     1     1     2     0     0 -1.601563018E+02 -1.537914597E+02 -1.240754284E+03  1.266648351E+03  1.250000000E+02  0.00000E+00  9.000E+00
      25     1     1     2     0     0  1.333234531E+02  9.756990811E+01 -9.143531928E+02  9.375296216E+02  1.250000000E+02  0.00000E+00  9.000E+00
      21     1     1     2   501   511  2.683284876E+01  5.622155163E+01 -2.769441296E+02  2.838642555E+02  5.394796609E-06  0.00000E+00  9.000E+00
#rwgt            1           1  0.18795390914257198                6      485027           0
</event>
<event>
      5   9999  3.79277E-02  8.56256E+00 -1.00000E+00  2.03885E-01
      21    -1     0     0   502   512  0.000000000E+00  0.000000000E+00  2.824618595E+03  2.824618595E+03  0.000000000E+00  0.00000E+00  9.000E+00
      21    -1     0     0   501   502  0.000000000E+00  0.000000000E+00 -1.816631848E+01  1.816631848E+01  0.000000000E+00  0.00000E+00  9.000E+00
      25     1     1     2     0     0  1.048832779E+02 -1.482442859E+02  1.106282598E+03  1.128035043E+03  1.250000000E+02  0.00000E+00  9.000E+00
      25     1     1     2     0     0 -1.043722992E+02  1.396969897E+02  1.630411777E+03  1.644468422E+03  1.250000000E+02  0.00000E+00  9.000E+00
      21     1     1     2   501   512 -5.109787147E-01  8.547296147E+00  6.975790127E+01  7.028144962E+01  9.536743164E-07  0.00000E+00  9.000E+00
#rwgt            1           1  0.41140459913795235                6      485127           0
</event>
<event>
      5   9999  3.79277E-02  5.98632E+01 -1.00000E+00  1.34756E-01
      21    -1     0     0   502   501  0.000000000E+00  0.000000000E+00  1.333534168E+02  1.333534168E+02  0.000000000E+00  0.00000E+00  9.000E+00
       2    -1     0     0   501     0  0.000000000E+00  0.000000000E+00 -1.513231208E+03  1.513231208E+03  0.000000000E+00  0.00000E+00  9.000E+00
      25     1     1     2     0     0  1.960559659E+02 -8.810645878E+01 -1.830724136E+02  3.087737010E+02  1.250000000E+02  0.00000E+00  9.000E+00
      25     1     1     2     0     0 -1.362002007E+02  8.716067166E+01 -8.012621478E+01  2.195283300E+02  1.250000000E+02  0.00000E+00  9.000E+00
       2     1     1     2   502     0 -5.985576513E+01  9.457871252E-01 -1.116679162E+03  1.118282593E+03  0.000000000E+00  0.00000E+00  9.000E+00
#rwgt            1           1   3.6941181026720414E-002           6      485392           0
</event>
<event>
      5   9999  3.79277E-02  1.80560E+01 -1.00000E+00  1.70118E-01
      21    -1     0     0   511   501  0.000000000E+00  0.000000000E+00  4.698509037E+02  4.698509037E+02  0.000000000E+00  0.00000E+00  9.000E+00
      21    -1     0     0   501   502  0.000000000E+00  0.000000000E+00 -1.293340930E+03  1.293340930E+03  0.000000000E+00  0.00000E+00  9.000E+00
      25     1     1     2     0     0  1.137991711E+02 -2.496215575E+02 -7.745605219E+02  8.311619430E+02  1.250000000E+02  0.00000E+00  9.000E+00
      25     1     1     2     0     0 -1.178062779E+02  2.320157901E+02 -4.477816649E+02  5.327692421E+02  1.250000000E+02  0.00000E+00  9.000E+00
      21     1     1     2   511   502  4.007106811E+00  1.760576737E+01  3.988521602E+02  3.992606488E+02  5.394796609E-06  0.00000E+00  9.000E+00
#rwgt            1           1   2.8039253933548867E-002           6      485464           0
</event>
<event>
      5   9999  3.79277E-02  8.11711E+01 -1.00000E+00  1.28045E-01
      21    -1     0     0   502   501  0.000000000E+00  0.000000000E+00  7.670206164E+02  7.670206164E+02  0.000000000E+00  0.00000E+00  9.000E+00
      21    -1     0     0   501   512  0.000000000E+00  0.000000000E+00 -2.391152369E+02  2.391152369E+02  0.000000000E+00  0.00000E+00  9.000E+00
      25     1     1     2     0     0 -7.248016897E+01  2.028379428E+02  3.266729984E+02  4.107759167E+02  1.250000000E+02  0.00000E+00  9.000E+00
      25     1     1     2     0     0  1.315170833E+02 -1.471299108E+02  3.529737108E+02  4.232722462E+02  1.250000000E+02  0.00000E+00  9.000E+00
      21     1     1     2   502   512 -5.903691434E+01 -5.570803194E+01 -1.517413296E+02  1.720876904E+02  4.264961200E-06  0.00000E+00  9.000E+00
#rwgt            1           1   3.4743518402646785E-002           6      485826           0
</event>
<event>
      5   9999  3.79277E-02  1.79600E+02 -1.00000E+00  1.13376E-01
      21    -1     0     0   511   501  0.000000000E+00  0.000000000E+00  1.743985162E+02  1.743985162E+02  0.000000000E+00  0.00000E+00  9.000E+00
      21    -1     0     0   501   502  0.000000000E+00  0.000000000E+00 -1.197416921E+03  1.197416921E+03  0.000000000E+00  0.00000E+00  9.000E+00
      25     1     1     2     0     0  8.163226285E+01 -4.318352127E+01 -1.267169969E+01  1.559301601E+02  1.250000000E+02  0.00000E+00  9.000E+00
      25     1     1     2     0     0 -2.601211285E+02  2.323798987E+01 -9.942693733E+02  1.035567280E+03  1.250000000E+02  0.00000E+00  9.000E+00
      21     1     1     2   511   502  1.784888656E+02  1.994553139E+01 -1.607733199E+01  1.803179968E+02  1.599360450E-06  0.00000E+00  9.000E+00
#rwgt            2          11   2.2533568056446115E-003           6      485890           0
</event>
<event>
      5   9999  3.79277E-02  1.11671E+02 -1.00000E+00  1.21709E-01
      21    -1     0     0   502   501  0.000000000E+00  0.000000000E+00  2.019522305E+02  2.019522305E+02  0.000000000E+00  0.00000E+00  9.000E+00
      21    -1     0     0   512   502  0.000000000E+00  0.000000000E+00 -3.844442013E+02  3.844442013E+02  0.000000000E+00  0.00000E+00  9.000E+00
      25     1     1     2     0     0  1.822108022E+00  1.461233757E+02 -1.371143941E+02  2.361794192E+02  1.250000000E+02  0.00000E+00  9.000E+00
      25     1     1     2     0     0  4.358486640E+01 -4.410039214E+01  9.650830913E+01  1.696565321E+02  1.250000000E+02  0.00000E+00  9.000E+00
      21     1     1     2   512   501 -4.540697442E+01 -1.020229836E+02 -1.418858858E+02  1.805604804E+02  3.303624740E-06  0.00000E+00  9.000E+00
#rwgt            1           1   3.8655090324239590E-002           6      485970           0
</event>
<event>
      5   9999  3.79277E-02  8.73438E+01 -1.00000E+00  1.26530E-01
      21    -1     0     0   502   511  0.000000000E+00  0.000000000E+00  6.267290053E+02  6.267290053E+02  0.000000000E+00  0.00000E+00  9.000E+00
      21    -1     0     0   501   502  0.000000000E+00  0.000000000E+00 -3.207325231E+02  3.207325231E+02  0.000000000E+00  0.00000E+00  9.000E+00
      25     1     1     2     0     0  1.580979695E+02 -2.168039708E+02 -1.413958937E+02  3.280498871E+02  1.250000000E+02  0.00000E+00  9.000E+00
      25     1     1     2     0     0 -1.700254365E+02  1.302783910E+02  1.107259720E+02  2.715996117E+02  1.250000000E+02  0.00000E+00  9.000E+00
      21     1     1     2   501   511  1.192746696E+01  8.652557979E+01  3.366664039E+02  3.478120296E+02  5.394796609E-06  0.00000E+00  9.000E+00
#rwgt            1           1   3.3701655713209253E-002           6      486045           0
</event>
<event>
      5   9999  3.79277E-02  6.97497E+00 -1.00000E+00  2.15774E-01
      -1    -1     0     0     0   501  0.000000000E+00  0.000000000E+00  1.348323084E+03  1.348323084E+03  0.000000000E+00  0.00000E+00  9.000E+00
      21    -1     0     0   501   502  0.000000000E+00  0.000000000E+00 -7.185413159E+02  7.185413159E+02  0.000000000E+00  0.00000E+00  9.000E+00
      25     1     1     2     0     0 -7.332452570E+01 -6.088591079E+01 -1.312896693E+02  2.048061461E+02  1.250000000E+02  0.00000E+00  9.000E+00
      25     1     1     2     0     0  7.173672302E+01  6.767774896E+01 -5.389708059E+02  5.619972996E+02  1.250000000E+02  0.00000E+00  9.000E+00
      -1     1     1     2     0   502  1.587802685E+00 -6.791838164E+00  1.300042244E+03  1.300060955E+03  1.525878906E-05  0.00000E+00  9.000E+00
#rwgt            1           1   4.2952142004078347E-002           6      486126           0
</event>
<event>
      5   9999  3.79277E-02  6.93504E+01 -1.00000E+00  1.31426E-01
      21    -1     0     0   502   511  0.000000000E+00  0.000000000E+00  2.207138637E+02  2.207138637E+02  0.000000000E+00  0.00000E+00  9.000E+00
      21    -1     0     0   501   502  0.000000000E+00  0.000000000E+00 -1.692104734E+03  1.692104734E+03  0.000000000E+00  0.00000E+00  9.000E+00
      25     1     1     2     0     0  1.482718925E+02  7.412518679E+01 -1.254198251E+03  1.271266042E+03  1.250000000E+02  0.00000E+00  9.000E+00
      25     1     1     2     0     0 -8.417680712E+01 -4.764312413E+01 -4.085282521E+02  4.380364538E+02  1.250000000E+02  0.00000E+00  9.000E+00
      21     1     1     2   501   511 -6.409508543E+01 -2.648206267E+01  1.913356323E+02  2.035161020E+02  8.946258087E-06  0.00000E+00  9.000E+00
#rwgt            1           1   3.0094381116579583E-002           6      486537           0
</event>
<event>
      5   9999  3.79277E-02  3.48300E+01 -1.00000E+00  1.48669E-01
      21    -1     0     0   502   501  0.000000000E+00  0.000000000E+00  6.212462511E+02  6.212462511E+02  0.000000000E+00  0.00000E+00  9.000E+00
      21    -1     0     0   501   512  0.000000000E+00  0.000000000E+00 -5.742428184E+02  5.742428184E+02  0.000000000E+00  0.00000E+00  9.000E+00
      25     1     1     2     0     0  1.856649928E+02 -1.027158176E+02 -4.725245077E+01  2.507584951E+02  1.250000000E+02  0.00000E+00  9.000E+00
      25     1     1     2     0     0 -2.204501589E+02  1.009500796E+02  4.828496045E+02  5.545790581E+02  1.250000000E+02  0.00000E+00  9.000E+00
      21     1     1     2   502   512  3.478516602E+01  1.765737988E+00 -3.885937211E+02  3.901515163E+02  0.000000000E+00  0.00000E+00  9.000E+00
#rwgt            1           1   4.7357883747277417E-002           6      486674           0
</event>
<event>
      5   9999  3.79277E-02  1.61390E+01 -1.00000E+00  1.74441E-01
       1    -1     0     0   502     0  0.000000000E+00  0.000000000E+00  4.722346062E+02  4.722346062E+02  0.000000000E+00  0.00000E+00  9.000E+00
      21    -1     0     0   501   502  0.000000000E+00  0.000000000E+00 -9.216501602E+02  9.216501602E+02  0.000000000E+00  0.00000E+00  9.000E+00
      25     1     1     2     0     0 -5.255616598E+01 -9.132771485E+01 -7.332275721E+02  7.512327034E+02  1.250000000E+02  0.00000E+00  9.000E+00
      25     1     1     2     0     0  6.854054942E+01  9.355602444E+01 -1.387179248E+02  2.198140107E+02  1.250000000E+02  0.00000E+00  9.000E+00
       1     1     1     2   501     0 -1.598438345E+01 -2.228309594E+00  4.225299429E+02  4.228380524E+02  5.394796609E-06  0.00000E+00  9.000E+00
#rwgt            1           1   4.7111221844719789E-002           6      486802           0
</event>
<event>
      5   9999  3.79277E-02  4.70088E+01 -1.00000E+00  1.40622E-01
      21    -1     0     0   502   501  0.000000000E+00  0.000000000E+00  3.110904557E+02  3.110904557E+02  0.000000000E+00  0.00000E+00  9.000E+00
      21    -1     0     0   511   502  0.000000000E+00  0.000000000E+00 -2.790713244E+02  2.790713244E+02  0.000000000E+00  0.00000E+00  9.000E+00
      25     1     1     2     0     0 -5.832920559E+01  9.970841880E+01 -9.394812444E+01  1.944101723E+02  1.250000000E+02  0.00000E+00  9.000E+00
      25     1     1     2     0     0  5.309175979E+01 -1.464245250E+02  2.160053464E+02  2.941805332E+02  1.250000000E+02  0.00000E+00  9.000E+00
      21     1     1     2   511   501  5.237445796E+00  4.671610617E+01 -9.003809065E+01  1.015710745E+02  0.000000000E+00  0.00000E+00  9.000E+00
#rwgt            1           1   4.1138030084090171E-002           6      487094           0
</event>
<event>
      5   9999  3.79277E-02  6.61549E+01 -1.00000E+00  1.32475E-01
      21    -1     0     0   512   501  0.000000000E+00  0.000000000E+00  1.017702550E+02  1.017702550E+02  0.000000000E+00  0.00000E+00  9.000E+00
      21    -1     0     0   501   502  0.000000000E+00  0.000000000E+00 -1.052779335E+03  1.052779335E+03  0.000000000E+00  0.00000E+00  9.000E+00
      25     1     1     2     0     0  5.105873702E+01  1.232161468E+02 -5.594708915E+02  5.885761564E+02  1.250000000E+02  0.00000E+00  9.000E+00
      25     1     1     2     0     0 -9.569094024E+00 -1.747435832E+02 -4.360752453E+02  4.862237211E+02  1.250000000E+02  0.00000E+00  9.000E+00
      21     1     1     2   512   502 -4.148964300E+01  5.152743647E+01  4.453705685E+01  7.974971234E+01  1.507891493E-06  0.00000E+00  9.000E+00
#rwgt            1           1   4.3689479320634633E-002           6      487160           0
</event>
<event>
      5   9999  3.79277E-02  1.05317E+02 -1.00000E+00  1.22824E-01
      21    -1     0     0   502   501  0.000000000E+00  0.000000000E+00  3.849857326E+02  3.849857326E+02  0.000000000E+00  0.00000E+00  9.000E+00
       2    -1     0     0   501     0  0.000000000E+00  0.000000000E+00 -1.146095642E+03  1.146095642E+03  0.000000000E+00  0.00000E+00  9.000E+00
      25     1     1     2     0     0 -6.509462342E+01  2.042003649E+02  2.419158967E+02  3.465305183E+02  1.250000000E+02  0.00000E+00  9.000E+00
      25     1     1     2     0     0 -3.547428677E+01 -1.729344268E+02 -4.523671277E+01  2.209889164E+02  1.250000000E+02  0.00000E+00  9.000E+00
       2     1     1     2   502     0  1.005689102E+02 -3.126593816E+01 -9.577890936E+02  9.635619401E+02  1.525878906E-05  0.00000E+00  9.000E+00
#rwgt            1           1   3.2553107786989881E-002           6      487234           0
</event>
<event>
      5   9999  3.79277E-02  4.41431E+01 -1.00000E+00  1.42235E-01
      21    -1     0     0   502   511  0.000000000E+00  0.000000000E+00  2.325748510E+03  2.325748510E+03  0.000000000E+00  0.00000E+00  9.000E+00
      21    -1     0     0   501   502  0.000000000E+00  0.000000000E+00 -8.450658552E+01  8.450658552E+01  0.000000000E+00  0.00000E+00  9.000E+00
      25     1     1     2     0     0 -4.152961739E+01 -7.609094896E+01  2.001635061E+02  2.514059880E+02  1.250000000E+02  0.00000E+00  9.000E+00
      25     1     1     2     0     0  6.267421932E+01  3.734148736E+01  3.065755275E+01  1.479436717E+02  1.250000000E+02  0.00000E+00  9.000E+00
      21     1     1     2   501   511 -2.114460192E+01  3.874946161E+01  2.010420866E+03  2.010905436E+03  3.737624730E-05  0.00000E+00  9.000E+00
#rwgt            1           1   2.0910614723114822E-002           6      487306           0
</event>
<event>
      5   9999  3.79277E-02  8.45184E+00 -1.00000E+00  2.04599E-01
      21    -1     0     0   502   512  0.000000000E+00  0.000000000E+00  1.952631690E+02  1.952631690E+02  0.000000000E+00  0.00000E+00  9.000E+00
      21    -1     0     0   501   502  0.000000000E+00  0.000000000E+00 -1.787379183E+02  1.787379183E+02  0.000000000E+00  0.00000E+00  9.000E+00
      25     1     1     2     0     0  8.830259793E+01  6.612495510E+01  6.916375590E+01  1.804951069E+02  1.250000000E+02  0.00000E+00  9.000E+00
      25     1     1     2     0     0 -8.043383128E+01 -6.304013421E+01 -6.861406177E+01  1.754324634E+02  1.250000000E+02  0.00000E+00  9.000E+00
      21     1     1     2   501   512 -7.868766644E+00 -3.084820891E+00  1.597555653E+01  1.807351695E+01  0.000000000E+00  0.00000E+00  9.000E+00
#rwgt            1           1   3.1374012787516628E-002           6      487453           0
</event>
<event>
      5   9999  3.79277E-02  1.31642E+02 -1.00000E+00  1.18686E-01
      21    -1     0     0   502   501  0.000000000E+00  0.000000000E+00  6.560462085E+02  6.560462085E+02  0.000000000E+00  0.00000E+00  9.000E+00
       4    -1     0     0   501     0  0.000000000E+00  0.000000000E+00 -1.357172931E+03  1.357172931E+03  0.000000000E+00  0.00000E+00  9.000E+00
      25     1     1     2     0     0 -3.160477439E+02 -1.217543293E+02  1.252500397E+02  3.821293833E+02  1.250000000E+02  0.00000E+00  9.000E+00
      25     1     1     2     0     0  1.844349369E+02  1.189799352E+02  3.587096991E+02  4.387141657E+02  1.250000000E+02  0.00000E+00  9.000E+00
       4     1     1     2   502     0  1.316128070E+02  2.774394068E+00 -1.185086462E+03  1.192375591E+03  2.642899792E-05  0.00000E+00  9.000E+00
#rwgt            2          15   3.9920659982198148E-005           6      487749           0
</event>
<event>
      5   9999  3.79277E-02  1.21058E+01 -1.00000E+00  1.86628E-01
      21    -1     0     0   511   501  0.000000000E+00  0.000000000E+00  2.251765538E+02  2.251765538E+02  0.000000000E+00  0.00000E+00  9.000E+00
      21    -1     0     0   501   502  0.000000000E+00  0.000000000E+00 -2.752297006E+02  2.752297006E+02  0.000000000E+00  0.00000E+00  9.000E+00
      25     1     1     2     0     0 -1.361194257E+02  4.461097460E+01 -1.837127837E+02  2.643747794E+02  1.250000000E+02  0.00000E+00  9.000E+00
      25     1     1     2     0     0  1.257916002E+02 -3.829548886E+01  1.306063249E+02  2.235466020E+02  1.250000000E+02  0.00000E+00  9.000E+00
      21     1     1     2   511   502  1.032782545E+01 -6.315485740E+00  3.053312153E+00  1.248487300E+01  2.920019320E-07  0.00000E+00  9.000E+00
#rwgt            1           1   1.7810514563014999E-002           6      487783           0
</event>
<event>
      5   9999  3.79277E-02  4.63411E+01 -1.00000E+00  1.40985E-01
      21    -1     0     0   502   501  0.000000000E+00  0.000000000E+00  6.475192092E+01  6.475192092E+01  0.000000000E+00  0.00000E+00  9.000E+00
      21    -1     0     0   501   512  0.000000000E+00  0.000000000E+00 -6.445710475E+02  6.445710475E+02  0.000000000E+00  0.00000E+00  9.000E+00
      25     1     1     2     0     0 -9.101321931E+01 -5.684892091E+01 -1.578238798E+02  2.281415853E+02  1.250000000E+02  0.00000E+00  9.000E+00
      25     1     1     2     0     0  1.311557655E+02  3.369573272E+01 -3.501840050E+02  3.957159014E+02  1.250000000E+02  0.00000E+00  9.000E+00
      21     1     1     2   502   512 -4.014254615E+01  2.315318819E+01 -7.181124178E+01  8.546548181E+01  0.000000000E+00  0.00000E+00  9.000E+00
#rwgt            1           1   3.4255142243752812E-002           6      488075           0
</event>
<event>
      5   9999  3.79277E-02  2.95001E+01 -1.00000E+00  1.53548E-01
      21    -1     0     0   502   501  0.000000000E+00  0.000000000E+00  1.871681396E+02  1.871681396E+02  0.000000000E+00  0.00000E+00  9.000E+00
      21    -1     0     0   511   502  0.000000000E+00  0.000000000E+00 -2.704821814E+02  2.704821814E+02  0.000000000E+00  0.00000E+00  9.000E+00
      25     1     1     2     0     0  1.487562244E+02 -1.003543601E+02 -5.198290627E+01  2.247813036E+02  1.250000000E+02  0.00000E+00  9.000E+00
      25     1     1     2     0     0 -1.194955207E+02  9.660388678E+01 -1.382097540E+01  1.985636164E+02  1.250000000E+02  0.00000E+00  9.000E+00
      21     1     1     2   511   501 -2.926070368E+01  3.750473366E+00 -1.751016016E+01  3.430540102E+01  4.129530925E-07  0.00000E+00  9.000E+00
#rwgt            1           1   3.1814578497728202E-002           6      488190           0
</event>
<event>
      5   9999  3.79277E-02  2.49160E+01 -1.00000E+00  1.58860E-01
       2    -1     0     0   502     0  0.000000000E+00  0.000000000E+00  3.457299491E+02  3.457299491E+02  0.000000000E+00  0.00000E+00  9.000E+00
      21    -1     0     0   501   502  0.000000000E+00  0.000000000E+00 -1.439668736E+02  1.439668736E+02  0.000000000E+00  0.00000E+00  9.000E+00
      25     1     1     2     0     0 -5.671596939E+01 -1.216785356E+02  9.286609875E+01  2.056002906E+02  1.250000000E+02  0.00000E+00  9.000E+00
      25     1     1     2     0     0  3.238219501E+01  1.270333383E+02  9.241898861E+00  1.813738908E+02  1.250000000E+02  0.00000E+00  9.000E+00
       2     1     1     2   501     0  2.433377439E+01 -5.354802680E+00  9.965507785E+01  1.027226413E+02  1.907348633E-06  0.00000E+00  9.000E+00
#rwgt            1           1   3.9399754530597096E-002           6      488332           0
</event>
<event>
      5   9999  3.79277E-02  1.00459E+02 -1.00000E+00  1.23739E-01
       2    -1     0     0   502     0  0.000000000E+00  0.000000000E+00  1.876634315E+02  1.876634315E+02  0.000000000E+00  0.00000E+00  9.000E+00
      21    -1     0     0   501   502  0.000000000E+00  0.000000000E+00 -1.292262889E+03  1.292262889E+03  0.000000000E+00  0.00000E+00  9.000E+00
      25     1     1     2     0     0 -2.927775051E+01  1.358706838E+02 -4.182604206E+02  4.581318684E+02  1.250000000E+02  0.00000E+00  9.000E+00
      25     1     1     2     0     0 -3.713639641E+01 -6.049706235E+01 -8.322894698E+02  8.446121998E+02  1.250000000E+02  0.00000E+00  9.000E+00
       2     1     1     2   501     0  6.641414692E+01 -7.537362144E+01  1.459504328E+02  1.771822524E+02  0.000000000E+00  0.00000E+00  9.000E+00
#rwgt            1           1   4.0149821016521578E-002           6      488548           0
</event>
<event>
      5   9999  3.79277E-02  2.41859E+01 -1.00000E+00  1.59835E-01
      21    -1     0     0   502   501  0.000000000E+00  0.000000000E+00  3.568796890E+02  3.568796890E+02  0.000000000E+00  0.00000E+00  9.000E+00
       2    -1     0     0   501     0  0.000000000E+00  0.000000000E+00 -4.435506413E+02  4.435506413E+02  0.000000000E+00  0.00000E+00  9.000E+00
      25     1     1     2     0     0 -9.443526128E+01 -1.246222771E+02  1.127535568E+02  2.297544235E+02  1.250000000E+02  0.00000E+00  9.000E+00
      25     1     1     2     0     0  1.087441977E+02  1.441212745E+02  1.200641245E+02  2.502731234E+02  1.250000000E+02  0.00000E+00  9.000E+00
       2     1     1     2   502     0 -1.430893646E+01 -1.949899737E+01 -3.194886336E+02  3.204027833E+02  3.814697266E-06  0.00000E+00  9.000E+00
#rwgt            1           1   4.1099711555630157E-002           6      488608           0
</event>
<event>
      5   9999  3.79277E-02  3.17821E+01 -1.00000E+00  1.51319E-01
      21    -1     0     0   511   501  0.000000000E+00  0.000000000E+00  4.461929048E+02  4.461929048E+02  0.000000000E+00  0.00000E+00  9.000E+00
      21    -1     0     0   501   502  0.000000000E+00  0.000000000E+00 -2.551222747E+02  2.551222747E+02  0.000000000E+00  0.00000E+00  9.000E+00
      25     1     1     2     0     0  7.316004691E+01  2.314551068E+01  8.284247841E+01  1.684517241E+02  1.250000000E+02  0.00000E+00  9.000E+00
      25     1     1     2     0     0 -4.235633055E+01 -1.532024828E+01 -1.906051818E+02  2.323447957E+02  1.250000000E+02  0.00000E+00  9.000E+00
      21     1     1     2   511   502 -3.080371636E+01 -7.825262400E+00  2.988333334E+02  3.005186597E+02  5.394796609E-06  0.00000E+00  9.000E+00
#rwgt            1           1   1.9084196233067875E-002           6      488724           0
</event>
<event>
      5   9999  3.79277E-02  7.99632E+00 -1.00000E+00  2.07697E-01
      21    -1     0     0   502   501  0.000000000E+00  0.000000000E+00  3.405056298E+01  3.405056298E+01  0.000000000E+00  0.00000E+00  9.000E+00
      21    -1     0     0   501   512  0.000000000E+00  0.000000000E+00 -1.128953284E+03  1.128953284E+03  0.000000000E+00  0.00000E+00  9.000E+00
      25     1     1     2     0     0 -7.607678574E+01 -3.287370271E+01 -2.919553834E+02  3.282244713E+02  1.250000000E+02  0.00000E+00  9.000E+00
      25     1     1     2     0     0  7.921410140E+01  4.022885841E+01 -3.543598754E+02  3.861206498E+02  1.250000000E+02  0.00000E+00  9.000E+00
      21     1     1     2   502   512 -3.137315660E+00 -7.355155698E+00 -4.485874618E+02  4.486587255E+02  5.394796609E-06  0.00000E+00  9.000E+00
#rwgt            1           1   2.8539265008555924E-002           6      488880           0
</event>
<event>
      5   9999  3.79277E-02  1.07168E+02 -1.00000E+00  1.22491E-01
      21    -1     0     0   511   501  0.000000000E+00  0.000000000E+00  8.482736353E+01  8.482736353E+01  0.000000000E+00  0.00000E+00  9.000E+00
      21    -1     0     0   501   502  0.000000000E+00  0.000000000E+00 -1.000567205E+03  1.000567205E+03  0.000000000E+00  0.00000E+00  9.000E+00
      25     1     1     2     0     0 -1.866548780E+02 -1.144889326E+02 -2.549377671E+02  3.585610468E+02  1.250000000E+02  0.00000E+00  9.000E+00
      25     1     1     2     0     0  1.148855555E+02  3.490143307E+01 -5.306402195E+02  5.582300990E+02  1.250000000E+02  0.00000E+00  9.000E+00
      21     1     1     2   511   502  7.176932250E+01  7.958749952E+01 -1.301618554E+02  1.686034232E+02  1.907348633E-06  0.00000E+00  9.000E+00
#rwgt            1           1   3.6269588256812424E-002           6      489196           0
</event>
<event>
      5   9999  3.79277E-02  5.74693E+01 -1.00000E+00  1.35711E-01
      21    -1     0     0   502   512  0.000000000E+00  0.000000000E+00  3.300765845E+02  3.300765845E+02  0.000000000E+00  0.00000E+00  9.000E+00
      21    -1     0     0   501   502  0.000000000E+00  0.000000000E+00 -2.507318804E+02  2.507318804E+02  0.000000000E+00  0.00000E+00  9.000E+00
      25     1     1     2     0     0 -5.203246647E+01  1.426596484E+02  1.797261764E+01  1.975023236E+02  1.250000000E+02  0.00000E+00  9.000E+00
      25     1     1     2     0     0  4.906520109E+01 -8.526696452E+01 -1.159893048E+02  1.968663710E+02  1.250000000E+02  0.00000E+00  9.000E+00
      21     1     1     2   501   512  2.967265387E+00 -5.739268392E+01  1.773613912E+02  1.864397703E+02  2.697398305E-06  0.00000E+00  9.000E+00
#rwgt            1           1   4.4064874887363104E-002           6      489315           0
</event>
<event>
      5   9999  3.79277E-02  5.84230E+01 -1.00000E+00  1.35324E-01
      21    -1     0     0   502   501  0.000000000E+00  0.000000000E+00  5.384459917E+01  5.384459917E+01  0.000000000E+00  0.00000E+00  9.000E+00
      21    -1     0     0   511   502  0.000000000E+00  0.000000000E+00 -1.852112626E+03  1.852112626E+03  0.000000000E+00  0.00000E+00  9.000E+00
      25     1     1     2     0     0  1.741921082E+02 -1.303166282E+02 -5.299739173E+02  5.863639375E+02  1.250000000E+02  0.00000E+00  9.000E+00
      25     1     1     2     0     0 -1.395347703E+02  8.328350773E+01 -4.013280455E+02  4.506609533E+02  1.250000000E+02  0.00000E+00  9.000E+00
      21     1     1     2   511   501 -3.465733789E+01  4.703312047E+01 -8.669660638E+02  8.689323341E+02  1.078959322E-05  0.00000E+00  9.000E+00
#rwgt            1           1   4.3945435892885298E-002           6      489407           0
</event>
<event>
      5   9999  3.79277E-02  4.38509E+01 -1.00000E+00  1.42407E-01
      21    -1     0     0   512   501  0.000000000E+00  0.000000000E+00  1.311137416E+03  1.311137416E+03  0.000000000E+00  0.00000E+00  9.000E+00
      21    -1     0     0   501   502  0.000000000E+00  0.000000000E+00 -7.076228892E+01  7.076228892E+01  0.000000000E+00  0.00000E+00  9.000E+00
      25     1     1     2     0     0 -4.133794182E+00  1.089017634E+01  4.898289098E+02  5.056609982E+02  1.250000000E+02  0.00000E+00  9.000E+00
      25     1     1     2     0     0 -3.066346174E+01 -3.757451794E+01  1.006036113E+01  1.344555806E+02  1.250000000E+02  0.00000E+00  9.000E+00
      21     1     1     2   512   502  3.479725592E+01  2.668434160E+01  7.404858562E+02  7.417831262E+02  1.078959322E-05  0.00000E+00  9.000E+00
#rwgt            1           1   4.5828911027790450E-002           6      489493           0
</event>
<event>
      5   9999  3.79277E-02  3.21718E+01 -1.00000E+00  1.50961E-01
      21    -1     0     0   502   511  0.000000000E+00  0.000000000E+00  5.778205470E+01  5.778205470E+01  0.000000000E+00  0.00000E+00  9.000E+00
      21    -1     0     0   501   502  0.000000000E+00  0.000000000E+00 -1.398245742E+03  1.398245742E+03  0.000000000E+00  0.00000E+00  9.000E+00
      25     1     1     2     0     0  2.292548837E+01 -1.777551888E+02 -6.297346668E+02  6.665682528E+02  1.250000000E+02  0.00000E+00  9.000E+00
      25     1     1     2     0     0 -5.394472817E+00  2.047308819E+02 -7.175244216E+02  7.565779074E+02  1.250000000E+02  0.00000E+00  9.000E+00
      21     1     1     2   501   511 -1.753101556E+01 -2.697569314E+01  6.795401242E+00  3.288163629E+01  1.004475328E-06  0.00000E+00  9.000E+00
#rwgt            1           1   3.7550412909597555E-002           6      489757           0
</event>
<event>
      5   9999  3.79277E-02  2.98914E+01 -1.00000E+00  1.53149E-01
      21    -1     0     0   502   501  0.000000000E+00  0.000000000E+00  4.339355438E+02  4.339355438E+02  0.000000000E+00  0.00000E+00  9.000E+00
      21    -1     0     0   512   502  0.000000000E+00  0.000000000E+00 -1.977290657E+02  1.977290657E+02  0.000000000E+00  0.00000E+00  9.000E+00
      25     1     1     2     0     0  6.147106076E+01  2.191295916E+01  3.710420977E+02  3.969333790E+02  1.250000000E+02  0.00000E+00  9.000E+00
      25     1     1     2     0     0 -3.261987976E+01 -2.972994497E+01 -4.490349886E+01  1.399616033E+02  1.250000000E+02  0.00000E+00  9.000E+00
      21     1     1     2   512   501 -2.885118100E+01  7.816985814E+00 -8.993212073E+01  9.476962726E+01  2.132480600E-06  0.00000E+00  9.000E+00
#rwgt            1           1   4.2111886875632783E-002           6      489862           0
</event>
<event>
      5   9999  3.79277E-02  3.63741E+01 -1.00000E+00  1.47447E-01
      21    -1     0     0   502   501  0.000000000E+00  0.000000000E+00  4.821342131E+02  4.821342131E+02  0.000000000E+00  0.00000E+00  9.000E+00
      -5    -1     0     0     0   502  0.000000000E+00  0.000000000E+00 -1.784694408E+02  1.784694408E+02  0.000000000E+00  0.00000E+00  9.000E+00
      25     1     1     2     0     0 -9.222093389E+01 -1.160123594E+02  3.723932978E+02  4.198396557E+02  1.250000000E+02  0.00000E+00  9.000E+00
      25     1     1     2     0     0  5.589085334E+01  1.178015362E+02 -2.262349433E+01  1.820379409E+02  1.250000000E+02  0.00000E+00  9.000E+00
      -5     1     1     2     0   501  3.633008056E+01 -1.789176802E+00 -4.610503128E+01  5.872605739E+01  0.000000000E+00  0.00000E+00  9.000E+00
#rwgt            1           1   4.0867962535595270E-002           6      489982           0
</event>
<event>
      5   9999  3.79277E-02  2.99702E+01 -1.00000E+00  1.53070E-01
      21    -1     0     0   511   501  0.000000000E+00  0.000000000E+00  2.458123391E+01  2.458123391E+01  0.000000000E+00  0.00000E+00  9.000E+00
      21    -1     0     0   501   502  0.000000000E+00  0.000000000E+00 -2.875331037E+03  2.875331037E+03  0.000000000E+00  0.00000E+00  9.000E+00
      25     1     1     2     0     0 -8.099358803E+00  1.006624004E+02 -1.374475847E+03  1.383837914E+03  1.250000000E+02  0.00000E+00  9.000E+00
      25     1     1     2     0     0  2.553435969E+01 -1.250393589E+02 -1.475312780E+03  1.486088706E+03  1.250000000E+02  0.00000E+00  9.000E+00
      21     1     1     2   511   502 -1.743500089E+01  2.437695852E+01 -9.611760648E-01  2.998565027E+01  9.095202997E-07  0.00000E+00  9.000E+00
#rwgt            1           1   3.5737125816229356E-002           6      490097           0
</event>
<event>
      5   9999  3.79277E-02  1.43531E+01 -1.00000E+00  1.79206E-01
      21    -1     0     0   502   501  0.000000000E+00  0.000000000E+00  1.041476364E+02  1.041476364E+02  0.000000000E+00  0.00000E+00  9.000E+00
      21    -1     0     0   512   502  0.000000000E+00  0.000000000E+00 -5.188606508E+02  5.188606508E+02  0.000000000E+00  0.00000E+00  9.000E+00
      25     1     1     2     0     0 -4.388254527E+01 -1.391740674E+02 -5.004529052E+01  1.985563646E+02  1.250000000E+02  0.00000E+00  9.000E+00
      25     1     1     2     0     0  5.389153918E+01  1.494615337E+02 -3.309920589E+02  3.878450607E+02  1.250000000E+02  0.00000E+00  9.000E+00
      21     1     1     2   512   501 -1.000899391E+01 -1.028746627E+01 -3.367566506E+01  3.660686190E+01  6.743495762E-07  0.00000E+00  9.000E+00
#rwgt            1           1   2.2230903803348863E-002           6      490203           0
</event>
<event>
      5   9999  3.79277E-02  7.36131E+01 -1.00000E+00  1.30123E-01
      21    -1     0     0   502   501  0.000000000E+00  0.000000000E+00  1.845765221E+02  1.845765221E+02  0.000000000E+00  0.00000E+00  9.000E+00
       2    -1     0     0   501     0  0.000000000E+00  0.000000000E+00 -4.374543905E+02  4.374543905E+02  0.000000000E+00  0.00000E+00  9.000E+00
      25     1     1     2     0     0  1.209112953E+02 -8.606251840E+01  5.007938144E+01  2.003977117E+02  1.250000000E+02  0.00000E+00  9.000E+00
      25     1     1     2     0     0 -1.133187439E+02  1.284197835E+01 -8.062986675E+01  1.874359345E+02  1.250000000E+02  0.00000E+00  9.000E+00
       2     1     1     2   502     0 -7.592551428E+00  7.322054005E+01 -2.223273831E+02  2.341972664E+02  0.000000000E+00  0.00000E+00  9.000E+00
#rwgt            2          13   1.4297735842865643E-004           6      490427           0
</event>
<event>
      5   9999  3.79277E-02  1.50813E+01 -1.00000E+00  1.77163E-01
      21    -1     0     0   502   501  0.000000000E+00  0.000000000E+00  3.495125705E+02  3.495125705E+02  0.000000000E+00  0.00000E+00  9.000E+00
      21    -1     0     0   501   511  0.000000000E+00  0.000000000E+00 -1.311764164E+02  1.311764164E+02  0.000000000E+00  0.00000E+00  9.000E+00
      25     1     1     2     0     0  7.928889459E+01  1.446101054E+02  9.499488383E+01  2.277012063E+02  1.250000000E+02  0.00000E+00  9.000E+00
      25     1     1     2     0     0 -8.731225937E+01 -1.318401472E+02  1.259479337E+02  2.376828497E+02  1.250000000E+02  0.00000E+00  9.000E+00
      21     1     1     2   502   511  8.023364785E+00 -1.276995819E+01 -2.606663506E+00  1.530493088E+01  8.429369702E-08  0.00000E+00  9.000E+00
#rwgt            1           1   4.0242692872834940E-002           6      490476           0
</event>
<event>
      5   9999  3.79277E-02  3.50723E+01 -1.00000E+00  1.48472E-01
      21    -1     0     0   512   501  0.000000000E+00  0.000000000E+00  2.011663623E+02  2.011663623E+02  0.000000000E+00  0.00000E+00  9.000E+00
      21    -1     0     0   501   502  0.000000000E+00  0.000000000E+00 -7.011862278E+02  7.011862278E+02  0.000000000E+00  0.00000E+00  9.000E+00
      25     1     1     2     0     0 -2.679289456E+01  1.627126618E+02 -5.942977964E+02  6.292917768E+02  1.250000000E+02  0.00000E+00  9.000E+00
      25     1     1     2     0     0 -6.153867534E+00 -1.506885985E+02  2.772860204E+01  1.978352829E+02  1.250000000E+02  0.00000E+00  9.000E+00
      21     1     1     2   512   502  3.294676209E+01 -1.202406335E+01  6.654932900E+01  7.522553039E+01  9.536743164E-07  0.00000E+00  9.000E+00
#rwgt            1           1   3.0250313874809288E-002           6      490756           0
</event>
<event>
      5   9999  3.79277E-02  6.18005E+01 -1.00000E+00  1.34021E-01
      21    -1     0     0   502   501  0.000000000E+00  0.000000000E+00  2.687083604E+02  2.687083604E+02  0.000000000E+00  0.00000E+00  9.000E+00
      21    -1     0     0   511   502  0.000000000E+00  0.000000000E+00 -5.528507830E+02  5.528507830E+02  0.000000000E+00  0.00000E+00  9.000E+00
      25     1     1     2     0     0 -1.624652291E+02 -3.935362200E+01 -2.120125579E+02  2.975197186E+02  1.250000000E+02  0.00000E+00  9.000E+00
      25     1     1     2     0     0  1.010732526E+02  3.225947131E+01  1.921713979E+02  2.526090300E+02  1.250000000E+02  0.00000E+00  9.000E+00
      21     1     1     2   511   501  6.139197651E+01  7.094150693E+00 -2.643012627E+02  2.714303948E+02  0.000000000E+00  0.00000E+00  9.000E+00
#rwgt            1           1   5.2652907077943067E-002           6      490914           0
</event>
<event>
      5   9999  3.79277E-02  3.32058E+01 -1.00000E+00  1.50039E-01
      21    -1     0     0   502   501  0.000000000E+00  0.000000000E+00  2.146584444E+03  2.146584444E+03  0.000000000E+00  0.00000E+00  9.000E+00
      21    -1     0     0   512   502  0.000000000E+00  0.000000000E+00 -6.230658463E+01  6.230658463E+01  0.000000000E+00  0.00000E+00  9.000E+00
      25     1     1     2     0     0  1.399730291E+02  1.982314405E+02  9.441762428E+02  9.828437975E+02  1.250000000E+02  0.00000E+00  9.000E+00
      25     1     1     2     0     0 -1.081952746E+02 -2.078646184E+02  1.158177806E+03  1.188240189E+03  1.250000000E+02  0.00000E+00  9.000E+00
      21     1     1     2   512   501 -3.177775441E+01  9.633177886E+00 -1.807618941E+01  3.780704187E+01  2.443063442E-06  0.00000E+00  9.000E+00
#rwgt            1           1  0.11408731377853723                6      491190           0
</event>
<event>
      5   9999  3.79277E-02  3.70028E+01 -1.00000E+00  1.46970E-01
      21    -1     0     0   502   501  0.000000000E+00  0.000000000E+00  1.378736388E+02  1.378736388E+02  0.000000000E+00  0.00000E+00  9.000E+00
       3    -1     0     0   501     0  0.000000000E+00  0.000000000E+00 -6.759754535E+02  6.759754535E+02  0.000000000E+00  0.00000E+00  9.000E+00
      25     1     1     2     0     0 -1.091964402E+02  1.482982543E+01 -4.336538043E+02  4.645690565E+02  1.250000000E+02  0.00000E+00  9.000E+00
      25     1     1     2     0     0  9.780974298E+01  2.037740380E+01  6.729496318E+01  1.735960728E+02  1.250000000E+02  0.00000E+00  9.000E+00
       3     1     1     2   502     0  1.138669720E+01 -3.520722922E+01 -1.717429737E+02  1.756839631E+02  3.303624740E-06  0.00000E+00  9.000E+00
#rwgt            1           1   5.3175908598242401E-002           6      491335           0
</event>
<event>
      5   9999  3.79277E-02  4.90819E+01 -1.00000E+00  1.39536E-01
       1    -1     0     0   502     0  0.000000000E+00  0.000000000E+00  1.129832269E+03  1.129832269E+03  0.000000000E+00  0.00000E+00  9.000E+00
      21    -1     0     0   501   502  0.000000000E+00  0.000000000E+00 -8.428598482E+01  8.428598482E+01  0.000000000E+00  0.00000E+00  9.000E+00
      25     1     1     2     0     0 -5.144066765E+01  1.945471402E+02  1.446318602E+02  2.775573941E+02  1.250000000E+02  0.00000E+00  9.000E+00
      25     1     1     2     0     0  2.615043262E+01 -1.524824234E+02  6.120560090E+02  6.435621903E+02  1.250000000E+02  0.00000E+00  9.000E+00
       1     1     1     2   501     0  2.529023503E+01 -4.206471678E+01  2.888584152E+02  2.929986697E+02  5.394796609E-06  0.00000E+00  9.000E+00
#rwgt            1           1   4.2600340905146666E-002           6      491465           0
</event>
<event>
      5   9999  3.79277E-02  1.08303E+02 -1.00000E+00  1.22290E-01
      21    -1     0     0   511   501  0.000000000E+00  0.000000000E+00  4.632163968E+02  4.632163968E+02  0.000000000E+00  0.00000E+00  9.000E+00
      21    -1     0     0   501   502  0.000000000E+00  0.000000000E+00 -9.881417289E+02  9.881417289E+02  0.000000000E+00  0.00000E+00  9.000E+00
      25     1     1     2     0     0  6.026054861E+01 -5.580445183E+01 -5.063160272E+02  5.279454422E+02  1.250000000E+02  0.00000E+00  9.000E+00
      25     1     1     2     0     0 -1.516348340E+01  1.542712743E+02 -4.428520589E+02  4.855641085E+02  1.250000000E+02  0.00000E+00  9.000E+00
      21     1     1     2   511   502 -4.509706521E+01 -9.846682250E+01  4.242427539E+02  4.378485751E+02  5.394796609E-06  0.00000E+00  9.000E+00
#rwgt            1           1   3.2063360990324974E-002           6      491598           0
</event>
<event>
      5   9999 -3.79277E-02  8.97450E+00 -1.00000E+00  2.01351E-01
      21    -1     0     0   502   501  0.000000000E+00  0.000000000E+00  2.211422766E+02  2.211422766E+02  0.000000000E+00  0.00000E+00  9.000E+00
       2    -1     0     0   501     0  0.000000000E+00  0.000000000E+00 -2.614998532E+03  2.614998532E+03  0.000000000E+00  0.00000E+00  9.000E+00
      25     1     1     2     0     0  2.801742617E+01  1.067531482E+02  9.439682498E+01  1.916167305E+02  1.250000000E+02  0.00000E+00  9.000E+00
      25     1     1     2     0     0 -3.682928811E+01 -1.050523270E+02 -1.152555346E+01  1.677802916E+02  1.250000000E+02  0.00000E+00  9.000E+00
       2     1     1     2   502     0  8.811861939E+00 -1.700821217E+00 -2.476727527E+03  2.476743787E+03  4.315837288E-05  0.00000E+00  9.000E+00
#rwgt            1           1 -0.26583890868587906                6      491710           0
</event>
<event>
      5   9999  3.79277E-02  2.44869E+02 -1.00000E+00  1.08539E-01
      21    -1     0     0   502   501  0.000000000E+00  0.000000000E+00  3.349297407E+02  3.349297407E+02  0.000000000E+00  0.00000E+00  9.000E+00
       2    -1     0     0   501     0  0.000000000E+00  0.000000000E+00 -9.733816752E+02  9.733816752E+02  0.000000000E+00  0.00000E+00  9.000E+00
      25     1     1     2     0     0 -1.200972750E+02  3.083317592E+02 -1.708044660E+02  3.927989241E+02  1.250000000E+02  0.00000E+00  9.000E+00
      25     1     1     2     0     0  1.452534562E+02 -6.475868543E+01  1.495200853E+02  2.515422624E+02  1.250000000E+02  0.00000E+00  9.000E+00
       2     1     1     2   502     0 -2.515618117E+01 -2.435730738E+02 -6.171675539E+02  6.639702292E+02  1.321449896E-05  0.00000E+00  9.000E+00
#rwgt            2          13   4.8712424070925138E-004           6      492200           0
</event>
<event>
      5   9999  3.79277E-02  4.99761E+01 -1.00000E+00  1.39087E-01
      21    -1     0     0   502   501  0.000000000E+00  0.000000000E+00  1.649111306E+02  1.649111306E+02  0.000000000E+00  0.00000E+00  9.000E+00
       2    -1     0     0   501     0  0.000000000E+00  0.000000000E+00 -2.881451069E+03  2.881451069E+03  0.000000000E+00  0.00000E+00  9.000E+00
      25     1     1     2     0     0 -5.691550608E+01  3.735103592E+02 -8.701730669E+02  9.568571103E+02  1.250000000E+02  0.00000E+00  9.000E+00
      25     1     1     2     0     0  3.032464985E+01 -4.158250623E+02 -2.697034667E+02  5.120498284E+02  1.250000000E+02  0.00000E+00  9.000E+00
       2     1     1     2   502     0  2.659085623E+01  4.231470317E+01 -1.576663405E+03  1.577455261E+03  0.000000000E+00  0.00000E+00  9.000E+00
#rwgt            1           1  0.10935536795650917                6      492459           0
</event>
<event>
      5   9999  3.79277E-02  5.71600E+01 -1.00000E+00  1.35838E-01
      21    -1     0     0   502   501  0.000000000E+00  0.000000000E+00  1.985837159E+02  1.985837159E+02  0.000000000E+00  0.00000E+00  9.000E+00
      21    -1     0     0   511   502  0.000000000E+00  0.000000000E+00 -6.090568024E+02  6.090568024E+02  0.000000000E+00  0.00000E+00  9.000E+00
      25     1     1     2     0     0 -1.307212260E+02  8.034336140E+01 -1.416389983E+02  2.433715277E+02  1.250000000E+02  0.00000E+00  9.000E+00
      25     1     1     2     0     0  9.972994686E+01 -3.231414990E+01  9.978869244E+01  1.912408161E+02  1.250000000E+02  0.00000E+00  9.000E+00
      21     1     1     2   511   501  3.099127914E+01 -4.802921150E+01 -3.686227807E+02  3.730281746E+02  5.394796609E-06  0.00000E+00  9.000E+00
#rwgt            1           1   4.8075228848652327E-002           6      492589           0
</event>
<event>
      5   9999  3.79277E-02  7.60472E+01 -1.00000E+00  1.29424E-01
      21    -1     0     0   502   501  0.000000000E+00  0.000000000E+00  1.442342563E+02  1.442342563E+02  0.000000000E+00  0.00000E+00  9.000E+00
      21    -1     0     0   501   512  0.000000000E+00  0.000000000E+00 -9.645075462E+02  9.645075462E+02  0.000000000E+00  0.00000E+00  9.000E+00
      25     1     1     2     0     0  1.629668772E+02  1.408786950E+02 -6.303577055E+01  2.569114986E+02  1.250000000E+02  0.00000E+00  9.000E+00
      25     1     1     2     0     0 -2.360268372E+02 -1.619836020E+02 -6.387642265E+02  7.110499928E+02  1.250000000E+02  0.00000E+00  9.000E+00
      21     1     1     2   502   512  7.305996002E+01  2.110490695E+01 -1.184732929E+02  1.407803111E+02  1.348699152E-06  0.00000E+00  9.000E+00
#rwgt            1           1   3.5280678841958658E-002           6      492693           0
</event>
<event>
      5   9999  3.79277E-02  1.82853E+01 -1.00000E+00  1.69646E-01
      21    -1     0     0   502   501  0.000000000E+00  0.000000000E+00  7.746846525E+02  7.746846525E+02  0.000000000E+00  0.00000E+00  9.000E+00
      21    -1     0     0   501   511  0.000000000E+00  0.000000000E+00 -1.285379310E+02  1.285379310E+02  0.000000000E+00  0.00000E+00  9.000E+00
      25     1     1     2     0     0  1.251484611E+02  1.188583226E+02  2.494691178E+02  3.280994954E+02  1.250000000E+02  0.00000E+00  9.000E+00
      25     1     1     2     0     0 -1.075011101E+02 -1.236461809E+02  4.627515073E+02  5.065657156E+02  1.250000000E+02  0.00000E+00  9.000E+00
      21     1     1     2   502   511 -1.764735106E+01  4.787858313E+00 -6.607390357E+01  6.855737247E+01  9.536743164E-07  0.00000E+00  9.000E+00
#rwgt            1           1   3.3309500888856050E-002           6      492828           0
</event>
<event>
      5   9999  3.79277E-02  3.45469E+01 -1.00000E+00  1.48901E-01
      21    -1     0     0   502   501  0.000000000E+00  0.000000000E+00  2.198772228E+02  2.198772228E+02  0.000000000E+00  0.00000E+00  9.000E+00
      21    -1     0     0   512   502  0.000000000E+00  0.000000000E+00 -3.382153170E+02  3.382153170E+02  0.000000000E+00  0.00000E+00  9.000E+00
      25     1     1     2     0     0  9.129967922E+00  1.499992606E+02  3.688803133E+01  1.989192332E+02  1.250000000E+02  0.00000E+00  9.000E+00
      25     1     1     2     0     0  2.296353326E+01 -1.627856730E+02 -6.645532229E+00  2.066292871E+02  1.250000000E+02  0.00000E+00  9.000E+00
      21     1     1     2   512   501 -3.209350118E+01  1.278641247E+01 -1.485805933E+02  1.525440194E+02  3.303624740E-06  0.00000E+00  9.000E+00
#rwgt            1           1   3.1826629916567937E-003           6      493254           0
</event>
<event>
      5   9999  3.79277E-02  3.41286E+01 -1.00000E+00  1.49250E-01
      21    -1     0     0   502   511  0.000000000E+00  0.000000000E+00  2.573424820E+02  2.573424820E+02  0.000000000E+00  0.00000E+00  9.000E+00
      21    -1     0     0   501   502  0.000000000E+00  0.000000000E+00 -1.703241380E+02  1.703241380E+02  0.000000000E+00  0.00000E+00  9.000E+00
      25     1     1     2     0     0  1.177463537E+02  1.520400664E+01 -4.125690412E+01  1.772639212E+02  1.250000000E+02  0.00000E+00  9.000E+00
      25     1     1     2     0     0 -1.179190402E+02 -4.933219086E+01  1.198847953E+02  2.152578204E+02  1.250000000E+02  0.00000E+00  9.000E+00
      21     1     1     2   501   511  1.726864728E-01  3.412818423E+01  8.390452847E+00  3.514487841E+01  3.153981341E-07  0.00000E+00  9.000E+00
#rwgt            1           1   4.5353283334741437E-002           6      493405           0
</event>
<event>
      5   9999  3.79277E-02  5.72797E+01 -1.00000E+00  1.35789E-01
       2    -1     0     0   502     0  0.000000000E+00  0.000000000E+00  3.004946496E+03  3.004946496E+03  0.000000000E+00  0.00000E+00  9.000E+00
      21    -1     0     0   501   502  0.000000000E+00  0.000000000E+00 -9.547398813E+01  9.547398813E+01  0.000000000E+00  0.00000E+00  9.000E+00
      25     1     1     2     0     0  2.705910904E+02  6.345581044E+01  4.733577030E+02  5.629730838E+02  1.250000000E+02  0.00000E+00  9.000E+00
      25     1     1     2     0     0 -3.021242074E+02 -1.112744746E+02  5.434304624E+02  6.438965078E+02  1.250000000E+02  0.00000E+00  9.000E+00
       2     1     1     2   501     0  3.153311695E+01  4.781866413E+01  1.892684343E+03  1.893550893E+03  0.000000000E+00  0.00000E+00  9.000E+00
#rwgt            1           1   3.9601405824104915E-002           6      493526           0
</event>
<event>
      5   9999  3.79277E-02  2.62540E+01 -1.00000E+00  1.57175E-01
       1    -1     0     0   502     0  0.000000000E+00  0.000000000E+00  1.000946316E+03  1.000946316E+03  0.000000000E+00  0.00000E+00  9.000E+00
      21    -1     0     0   501   502  0.000000000E+00  0.000000000E+00 -1.077069233E+02  1.077069233E+02  0.000000000E+00  0.00000E+00  9.000E+00
      25     1     1     2     0     0  4.188883139E+01  1.474935432E+02  3.768745597E+02  4.256388766E+02  1.250000000E+02  0.00000E+00  9.000E+00
      25     1     1     2     0     0 -6.699268297E+01 -1.551790514E+02  5.022933148E+01  2.161401011E+02  1.250000000E+02  0.00000E+00  9.000E+00
       1     1     1     2   501     0  2.510385158E+01  7.685508198E+00  4.661355013E+02  4.668742615E+02  7.629394531E-06  0.00000E+00  9.000E+00
#rwgt            1           1   4.1225741174491140E-002           6      493614           0
</event>
<event>
      5   9999  3.79277E-02  2.36489E+02 -1.00000E+00  1.09061E-01
       3    -1     0     0   502     0  0.000000000E+00  0.000000000E+00  7.370586144E+02  7.370586144E+02  0.000000000E+00  0.00000E+00  9.000E+00
      21    -1     0     0   501   502  0.000000000E+00  0.000000000E+00 -7.570725341E+02  7.570725341E+02  0.000000000E+00  0.00000E+00  9.000E+00
      25     1     1     2     0     0  1.394074035E+01 -3.881588314E+02 -3.425613120E+02  5.327615556E+02  1.250000000E+02  0.00000E+00  9.000E+00
      25     1     1     2     0     0  1.652628254E+02  2.338430904E+02 -2.115052544E+02  3.772981116E+02  1.250000000E+02  0.00000E+00  9.000E+00
       3     1     1     2   501     0 -1.792035658E+02  1.543157411E+02  5.340526467E+02  5.840714814E+02  1.078959322E-05  0.00000E+00  9.000E+00
#rwgt            2          19   1.0035474798855409E-004           6      493829           0
</event>
<event>
      5   9999  3.79277E-02  1.07771E+02 -1.00000E+00  1.22383E-01
       2    -1     0     0   502     0  0.000000000E+00  0.000000000E+00  9.567111825E+02  9.567111825E+02  0.000000000E+00  0.00000E+00  9.000E+00
      21    -1     0     0   501   502  0.000000000E+00  0.000000000E+00 -1.298326677E+02  1.298326677E+02  0.000000000E+00  0.00000E+00  9.000E+00
      25     1     1     2     0     0 -1.535635736E+02 -9.447043569E+00 -1.375474170E+01  1.987088591E+02  1.250000000E+02  0.00000E+00  9.000E+00
      25     1     1     2     0     0  5.977647622E+01  6.253782701E+01  2.972381262E+02  3.338558230E+02  1.250000000E+02  0.00000E+00  9.000E+00
       2     1     1     2   501     0  9.378709739E+01 -5.309078344E+01  5.433951303E+02  5.539791680E+02  7.629394531E-06  0.00000E+00  9.000E+00
#rwgt            1           1   3.2579349454926791E-002           6      493878           0
</event>
<event>
      5   9999  3.79277E-02  1.54734E+01 -1.00000E+00  1.76122E-01
      21    -1     0     0   511   501  0.000000000E+00  0.000000000E+00  1.737023763E+02  1.737023763E+02  0.000000000E+00  0.00000E+00  9.000E+00
      21    -1     0     0   501   502  0.000000000E+00  0.000000000E+00 -1.059221807E+03  1.059221807E+03  0.000000000E+00  0.00000E+00  9.000E+00
      25     1     1     2     0     0  1.184821516E+02  1.556740755E+02 -1.446443502E+02  2.735313987E+02  1.250000000E+02  0.00000E+00  9.000E+00
      25     1     1     2     0     0 -1.062513954E+02 -1.461958927E+02 -8.352936574E+02  8.637147053E+02  1.250000000E+02  0.00000E+00  9.000E+00
      21     1     1     2   511   502 -1.223075622E+01 -9.478182870E+00  9.441857648E+01  9.567807969E+01  1.348699152E-06  0.00000E+00  9.000E+00
#rwgt            1           1   3.1953141228665057E-002           6      494098           0
</event>
<event>
      5   9999  3.79277E-02  1.80489E+01 -1.00000E+00  1.70133E-01
      21    -1     0     0   502   501  0.000000000E+00  0.000000000E+00  3.992776749E+02  3.992776749E+02  0.000000000E+00  0.00000E+00  9.000E+00
      21    -1     0     0   512   502  0.000000000E+00  0.000000000E+00 -4.574259644E+02  4.574259644E+02  0.000000000E+00  0.00000E+00  9.000E+00
      25     1     1     2     0     0 -2.798182489E+02 -1.971218259E+02 -1.437575923E+02  3.917224936E+02  1.250000000E+02  0.00000E+00  9.000E+00
      25     1     1     2     0     0  2.959351260E+02  2.052463552E+02  1.412034663E+02  4.065305450E+02  1.250000000E+02  0.00000E+00  9.000E+00
      21     1     1     2   512   501 -1.611687714E+01 -8.124529317E+00 -5.559416355E+01  5.845060074E+01  9.536743164E-07  0.00000E+00  9.000E+00
#rwgt            1           1   3.4320796393861014E-002           6      494360           0
</event>
<event>
      5   9999  3.79277E-02  4.42593E+01 -1.00000E+00  1.42166E-01
      21    -1     0     0   502   501  0.000000000E+00  0.000000000E+00  1.175525593E+03  1.175525593E+03  0.000000000E+00  0.00000E+00  9.000E+00
      21    -1     0     0   511   502  0.000000000E+00  0.000000000E+00 -8.235616502E+01  8.235616502E+01  0.000000000E+00  0.00000E+00  9.000E+00
      25     1     1     2     0     0 -6.905397730E+01 -1.601174467E+02  3.124879130E+02  3.790511104E+02  1.250000000E+02  0.00000E+00  9.000E+00
      25     1     1     2     0     0  6.360135744E+01  1.161952960E+02  8.070271471E+02  8.273235737E+02  1.250000000E+02  0.00000E+00  9.000E+00
      21     1     1     2   511   501  5.452619851E+00  4.392215071E+01 -2.634563178E+01  5.150707427E+01  8.259061849E-07  0.00000E+00  9.000E+00
#rwgt            1           1   3.7995438490800268E-002           6      494552           0
</event>
<event>
      5   9999  3.79277E-02  5.11106E+01 -1.00000E+00  1.38533E-01
      21    -1     0     0   502   501  0.000000000E+00  0.000000000E+00  8.917369447E+01  8.917369447E+01  0.000000000E+00  0.00000E+00  9.000E+00
       2    -1     0     0   501     0  0.000000000E+00  0.000000000E+00 -1.092273308E+03  1.092273308E+03  0.000000000E+00  0.00000E+00  9.000E+00
      25     1     1     2     0     0  8.315840062E+01  1.280333413E+02 -1.456140870E+02  2.452270752E+02  1.250000000E+02  0.00000E+00  9.000E+00
      25     1     1     2     0     0 -6.881722138E+01 -7.897596395E+01 -1.344057452E+02  2.113360291E+02  1.250000000E+02  0.00000E+00  9.000E+00
       2     1     1     2   502     0 -1.434117924E+01 -4.905737738E+01 -7.230797818E+02  7.248838987E+02  0.000000000E+00  0.00000E+00  9.000E+00
#rwgt            1           1   2.3460256752998308E-002           6      494847           0
</event>
<event>
      5   9999  3.79277E-02  2.93262E+02 -1.00000E+00  1.05914E-01
      21    -1     0     0   502   501  0.000000000E+00  0.000000000E+00  9.708950095E+02  9.708950095E+02  0.000000000E+00  0.00000E+00  9.000E+00
      21    -1     0     0   501   511  0.000000000E+00  0.000000000E+00 -1.703220208E+02  1.703220208E+02  0.000000000E+00  0.00000E+00  9.000E+00
      25     1     1     2     0     0 -1.396693636E+02 -2.323521598E+02  5.069187541E+02  5.882913229E+02  1.250000000E+02  0.00000E+00  9.000E+00
      25     1     1     2     0     0 -9.606548080E+01  5.790619833E+01  1.549822669E+02  2.285305395E+02  1.250000000E+02  0.00000E+00  9.000E+00
      21     1     1     2   502   511  2.357348444E+02  1.744459615E+02  1.386719677E+02  3.243951680E+02  5.394796609E-06  0.00000E+00  9.000E+00
#rwgt            2          11   8.6392850125507990E-004           6      495058           0
</event>
<event>
      5   9999  3.79277E-02  4.96045E+01 -1.00000E+00  1.39273E-01
      21    -1     0     0   502   501  0.000000000E+00  0.000000000E+00  1.506065836E+02  1.506065836E+02  0.000000000E+00  0.00000E+00  9.000E+00
      21    -1     0     0   501   512  0.000000000E+00  0.000000000E+00 -7.437056240E+02  7.437056240E+02  0.000000000E+00  0.00000E+00  9.000E+00
      25     1     1     2     0     0  1.807140672E+02 -1.117872229E+02 -2.880204935E+02  3.791236763E+02  1.250000000E+02  0.00000E+00  9.000E+00
      25     1     1     2     0     0 -1.697396145E+02  6.341199062E+01 -1.471917179E+01  2.206224633E+02  1.250000000E+02  0.00000E+00  9.000E+00
      21     1     1     2   502   512 -1.097445267E+01  4.837523229E+01 -2.903593751E+02  2.945660680E+02  0.000000000E+00  0.00000E+00  9.000E+00
#rwgt            1           1  0.10461171073788272                6      495153           0
</event>
<event>
      5   9999  3.79277E-02  1.04088E+02 -1.00000E+00  1.23050E-01
      -2    -1     0     0     0   501  0.000000000E+00  0.000000000E+00  6.870338662E+01  6.870338662E+01  0.000000000E+00  0.00000E+00  9.000E+00
      21    -1     0     0   501   502  0.000000000E+00  0.000000000E+00 -1.359315518E+03  1.359315518E+03  0.000000000E+00  0.00000E+00  9.000E+00
      25     1     1     2     0     0  8.828808209E+01 -5.220507329E+01 -1.338567879E+02  2.099113975E+02  1.250000000E+02  0.00000E+00  9.000E+00
      25     1     1     2     0     0  1.419102690E+01  3.397326913E+01 -1.082335615E+03  1.090151802E+03  1.250000000E+02  0.00000E+00  9.000E+00
      -2     1     1     2     0   502 -1.024791090E+02  1.823180416E+01 -7.441972852E+01  1.279557050E+02  1.907348633E-06  0.00000E+00  9.000E+00
#rwgt            1           1   4.9615210594248609E-002           6      495393           0
</event>
<event>
      5   9999  3.79277E-02  4.98139E+01 -1.00000E+00  1.39168E-01
      21    -1     0     0   502   501  0.000000000E+00  0.000000000E+00  2.676097811E+02  2.676097811E+02  0.000000000E+00  0.00000E+00  9.000E+00
      21    -1     0     0   501   511  0.000000000E+00  0.000000000E+00 -5.102187790E+02  5.102187790E+02  0.000000000E+00  0.00000E+00  9.000E+00
      25     1     1     2     0     0 -4.205851775E+01 -1.097203854E+02  1.355698707E+02  2.186588020E+02  1.250000000E+02  0.00000E+00  9.000E+00
      25     1     1     2     0     0  9.117795948E+01  1.180094081E+02 -1.784052227E+01  1.954045161E+02  1.250000000E+02  0.00000E+00  9.000E+00
      21     1     1     2   502   511 -4.911944173E+01 -8.289022717E+00 -3.603383463E+02  3.637652420E+02  3.814697266E-06  0.00000E+00  9.000E+00
#rwgt            1           1   2.2514234243888428E-002           6      495446           0
</event>
<event>
      5   9999  3.79277E-02  7.27025E+00 -1.00000E+00  2.13254E-01
      21    -1     0     0   502   501  0.000000000E+00  0.000000000E+00  6.529534237E+02  6.529534237E+02  0.000000000E+00  0.00000E+00  9.000E+00
      21    -1     0     0   501   512  0.000000000E+00  0.000000000E+00 -4.585283416E+01  4.585283416E+01  0.000000000E+00  0.00000E+00  9.000E+00
      25     1     1     2     0     0 -5.043695108E+01 -3.684772691E+01  1.039779869E+02  1.741782500E+02  1.250000000E+02  0.00000E+00  9.000E+00
      25     1     1     2     0     0  4.468533447E+01  4.129469373E+01  4.925751063E+02  5.118176102E+02  1.250000000E+02  0.00000E+00  9.000E+00
      21     1     1     2   502   512  5.751616607E+00 -4.446966814E+00  1.054749635E+01  1.281039760E+01  2.064765462E-07  0.00000E+00  9.000E+00
#rwgt            1           1   6.0046971714060128E-002           6      495681           0
</event>
<event>
      5   9999  3.79277E-02  6.59210E+01 -1.00000E+00  1.32555E-01
      21    -1     0     0   502   511  0.000000000E+00  0.000000000E+00  8.977124163E+02  8.977124163E+02  0.000000000E+00  0.00000E+00  9.000E+00
      21    -1     0     0   501   502  0.000000000E+00  0.000000000E+00 -1.078653540E+02  1.078653540E+02  0.000000000E+00  0.00000E+00  9.000E+00
      25     1     1     2     0     0  8.133135958E+01  1.616040621E+02  1.125036458E+02  2.470075571E+02  1.250000000E+02  0.00000E+00  9.000E+00
      25     1     1     2     0     0 -1.390399954E+02 -1.297403946E+02  3.055952877E+02  3.810225324E+02  1.250000000E+02  0.00000E+00  9.000E+00
      21     1     1     2   501   511  5.770863585E+01 -3.186366753E+01  3.717481289E+02  3.775476808E+02  5.394796609E-06  0.00000E+00  9.000E+00
#rwgt            1           1   2.6143662067156986E-002           6      495990           0
</event>
<event>
      5   9999  3.79277E-02  5.06392E+01 -1.00000E+00  1.38761E-01
      21    -1     0     0   512   501  0.000000000E+00  0.000000000E+00  1.317898662E+03  1.317898662E+03  0.000000000E+00  0.00000E+00  9.000E+00
      21    -1     0     0   501   502  0.000000000E+00  0.000000000E+00 -2.877751174E+01  2.877751174E+01  0.000000000E+00  0.00000E+00  9.000E+00
      25     1     1     2     0     0  5.186372496E+01  4.973725996E+01  2.721250325E+02  3.079621313E+02  1.250000000E+02  0.00000E+00  9.000E+00
      25     1     1     2     0     0 -2.486241279E+01 -9.257721856E+01  6.850510634E+02  7.029286169E+02  1.250000000E+02  0.00000E+00  9.000E+00
      21     1     1     2   512   502 -2.700131216E+01  4.283995860E+01  3.319450546E+02  3.357854258E+02  3.814697266E-06  0.00000E+00  9.000E+00
#rwgt            1           1  0.12773018642387685                6      496069           0
</event>
<event>
      5   9999  3.79277E-02  8.24429E+01 -1.00000E+00  1.27720E-01
      -4    -1     0     0     0   501  0.000000000E+00  0.000000000E+00  5.248829311E+02  5.248829311E+02  0.000000000E+00  0.00000E+00  9.000E+00
      21    -1     0     0   501   502  0.000000000E+00  0.000000000E+00 -1.249818330E+02  1.249818330E+02  0.000000000E+00  0.00000E+00  9.000E+00
      25     1     1     2     0     0 -6.518921047E+01  8.856141391E+01  1.135550145E+02  2.015254290E+02  1.250000000E+02  0.00000E+00  9.000E+00
      25     1     1     2     0     0  1.461542461E+02 -7.302125126E+01  7.078649176E+01  2.175520494E+02  1.250000000E+02  0.00000E+00  9.000E+00
      -4     1     1     2     0   502 -8.096503562E+01 -1.554016266E+01  2.155595918E+02  2.307872858E+02  3.814697266E-06  0.00000E+00  9.000E+00
#rwgt            1           1   3.5501748480227829E-002           6      496222           0
</event>
<event>
      5   9999  3.79277E-02  1.50528E+02 -1.00000E+00  1.16333E-01
       2    -1     0     0   502     0  0.000000000E+00  0.000000000E+00  2.150081435E+03  2.150081435E+03  0.000000000E+00  0.00000E+00  9.000E+00
      21    -1     0     0   501   502  0.000000000E+00  0.000000000E+00 -1.872401677E+02  1.872401677E+02  0.000000000E+00  0.00000E+00  9.000E+00
      25     1     1     2     0     0 -2.464441030E+02  1.546719930E+02  5.854837965E+01  3.220419757E+02  1.250000000E+02  0.00000E+00  9.000E+00
      25     1     1     2     0     0  2.671988387E+02 -5.581691592E+00  3.682003458E+02  4.718292799E+02  1.250000000E+02  0.00000E+00  9.000E+00
       2     1     1     2   501     0 -2.075473568E+01 -1.490903014E+02  1.536092542E+03  1.543450347E+03  2.157918644E-05  0.00000E+00  9.000E+00
#rwgt            1           1   3.3133265503633019E-002           6      496283           0
</event>
<event>
      5   9999  3.79277E-02  2.50487E+01 -1.00000E+00  1.58688E-01
      21    -1     0     0   502   501  0.000000000E+00  0.000000000E+00  3.324186777E+01  3.324186777E+01  0.000000000E+00  0.00000E+00  9.000E+00
      21    -1     0     0   501   511  0.000000000E+00  0.000000000E+00 -2.174054291E+03  2.174054291E+03  0.000000000E+00  0.00000E+00  9.000E+00
      25     1     1     2     0     0 -9.183539286E+01  2.282049348E+01 -1.234337210E+03  1.244253938E+03  1.250000000E+02  0.00000E+00  9.000E+00
      25     1     1     2     0     0  8.801552827E+01 -4.757620602E+01 -2.003233767E+02  2.564462592E+02  1.250000000E+02  0.00000E+00  9.000E+00
      21     1     1     2   502   511  3.819864596E+00  2.475571254E+01 -7.061518366E+02  7.065959617E+02  1.078959322E-05  0.00000E+00  9.000E+00
#rwgt            1           1   6.2164566664637939E-002           6      496371           0
</event>
<event>
      5   9999  3.79277E-02  1.11068E+01 -1.00000E+00  1.90631E-01
      21    -1     0     0   502   501  0.000000000E+00  0.000000000E+00  1.078717504E+02  1.078717504E+02  0.000000000E+00  0.00000E+00  9.000E+00
      21    -1     0     0   512   502  0.000000000E+00  0.000000000E+00 -5.444964894E+02  5.444964894E+02  0.000000000E+00  0.00000E+00  9.000E+00
      25     1     1     2     0     0 -1.233242646E+02  6.111319620E+01 -2.123522358E+02  2.822448742E+02  1.250000000E+02  0.00000E+00  9.000E+00
      25     1     1     2     0     0  1.134987204E+02 -6.629196441E+01 -4.029354746E+01  1.858094563E+02  1.250000000E+02  0.00000E+00  9.000E+00
      21     1     1     2   512   501  9.825544218E+00  5.178768215E+00 -1.839789558E+02  1.843139093E+02  0.000000000E+00  0.00000E+00  9.000E+00
#rwgt            1           1   3.2930946876022181E-002           6      496516           0
</event>
<event>
      5   9999  3.79277E-02  3.39054E+01 -1.00000E+00  1.49438E-01
      21    -1     0     0   502   501  0.000000000E+00  0.000000000E+00  1.340107004E+02  1.340107004E+02  0.000000000E+00  0.00000E+00  9.000E+00
      21    -1     0     0   501   511  0.000000000E+00  0.000000000E+00 -7.778213475E+02  7.778213475E+02  0.000000000E+00  0.00000E+00  9.000E+00
      25     1     1     2     0     0  1.372540412E+02  1.010549525E+02 -2.589119140E+02  3.342321865E+02  1.250000000E+02  0.00000E+00  9.000E+00
      25     1     1     2     0     0 -1.277858617E+02 -1.336114906E+02 -3.480821977E+01  2.258713551E+02  1.250000000E+02  0.00000E+00  9.000E+00
      21     1     1     2   502   511 -9.468179591E+00  3.255653814E+01 -3.500905134E+02  3.517285064E+02  0.000000000E+00  0.00000E+00  9.000E+00
#rwgt            1           1   1.9375491379867570E-002           6      496793           0
</event>
<event>
      5   9999  3.79277E-02  4.52437E+01 -1.00000E+00  1.41599E-01
      21    -1     0     0   502   512  0.000000000E+00  0.000000000E+00  6.555882041E+01  6.555882041E+01  0.000000000E+00  0.00000E+00  9.000E+00
      21    -1     0     0   501   502  0.000000000E+00  0.000000000E+00 -8.040962549E+02  8.040962549E+02  0.000000000E+00  0.00000E+00  9.000E+00
      25     1     1     2     0     0  1.249364278E+01 -8.994687359E+01 -1.057594896E+02  1.872340803E+02  1.250000000E+02  0.00000E+00  9.000E+00
      25     1     1     2     0     0 -1.923265253E+01  1.346859100E+02 -5.964124172E+02  6.243740551E+02  1.250000000E+02  0.00000E+00  9.000E+00
      21     1     1     2   501   512  6.739009748E+00 -4.473903640E+01 -3.636552762E+01  5.804693988E+01  0.000000000E+00  0.00000E+00  9.000E+00
#rwgt            1           1   3.7569379988348903E-002           6      496945           0
</event>
<event>
      5   9999  3.79277E-02  2.75432E+01 -1.00000E+00  1.55663E-01
      21    -1     0     0   502   511  0.000000000E+00  0.000000000E+00  4.783759099E+01  4.783759099E+01  0.000000000E+00  0.00000E+00  9.000E+00
      21    -1     0     0   501   502  0.000000000E+00  0.000000000E+00 -7.961982531E+02  7.961982531E+02  0.000000000E+00  0.00000E+00  9.000E+00
      25     1     1     2     0     0 -4.697560887E+01 -8.928929303E+01 -2.211333733E+02  2.733207904E+02  1.250000000E+02  0.00000E+00  9.000E+00
      25     1     1     2     0     0  7.445767974E+01  8.745569815E+01 -5.116409273E+02  5.390676059E+02  1.250000000E+02  0.00000E+00  9.000E+00
      21     1     1     2   501   511 -2.748207087E+01  1.833594883E+00 -1.558636154E+01  3.164744785E+01  4.768371582E-07  0.00000E+00  9.000E+00
#rwgt            1           1   3.8873254193318892E-002           6      497069           0
</event>
<event>
      5   9999  3.79277E-02  3.66079E+01 -1.00000E+00  1.47268E-01
      21    -1     0     0   502   501  0.000000000E+00  0.000000000E+00  4.861368413E+02  4.861368413E+02  0.000000000E+00  0.00000E+00  9.000E+00
      21    -1     0     0   501   512  0.000000000E+00  0.000000000E+00 -1.174683609E+02  1.174683609E+02  0.000000000E+00  0.00000E+00  9.000E+00
      25     1     1     2     0     0 -1.519751830E+02 -9.632481350E+01  1.250452453E+02  2.522622431E+02  1.250000000E+02  0.00000E+00  9.000E+00
      25     1     1     2     0     0  1.171257074E+02  8.511532173E+01  2.493745345E+02  3.142860286E+02  1.250000000E+02  0.00000E+00  9.000E+00
      21     1     1     2   502   512  3.484947563E+01  1.120949177E+01 -5.751299327E+00  3.705693054E+01  9.938080311E-07  0.00000E+00  9.000E+00
#rwgt            1           1   3.7790085073027432E-002           6      497276           0
</event>
<event>
      5   9999  3.79277E-02  4.18880E+01 -1.00000E+00  1.43609E-01
      21    -1     0     0   502   511  0.000000000E+00  0.000000000E+00  6.090599865E+02  6.090599865E+02  0.000000000E+00  0.00000E+00  9.000E+00
      21    -1     0     0   501   502  0.000000000E+00  0.000000000E+00 -1.518964288E+02  1.518964288E+02  0.000000000E+00  0.00000E+00  9.000E+00
      25     1     1     2     0     0  7.527452443E+01  9.937425996E+01 -4.333000588E+01  1.817800511E+02  1.250000000E+02  0.00000E+00  9.000E+00
      25     1     1     2     0     0 -5.062159355E+01 -1.332393080E+02  1.992285614E+02  2.750132335E+02  1.250000000E+02  0.00000E+00  9.000E+00
      21     1     1     2   501   511 -2.465293088E+01  3.386504803E+01  3.012650022E+02  3.041631306E+02  0.000000000E+00  0.00000E+00  9.000E+00
#rwgt            1           1   6.7974969319701664E-002           6      497404           0
</event>
<event>
      5   9999  3.79277E-02  3.96552E+01 -1.00000E+00  1.45074E-01
      21    -1     0     0   512   501  0.000000000E+00  0.000000000E+00  6.252205217E+02  6.252205217E+02  0.000000000E+00  0.00000E+00  9.000E+00
      21    -1     0     0   501   502  0.000000000E+00  0.000000000E+00 -1.691584117E+02  1.691584117E+02  0.000000000E+00  0.00000E+00  9.000E+00
      25     1     1     2     0     0  1.185698725E+02  2.308337500E+02  2.310171016E+02  3.692383188E+02  1.250000000E+02  0.00000E+00  9.000E+00
      25     1     1     2     0     0 -8.943768843E+01 -2.039292662E+02  6.954712047E+01  2.646659171E+02  1.250000000E+02  0.00000E+00  9.000E+00
      21     1     1     2   512   502 -2.913218408E+01 -2.690448380E+01  1.554978879E+02  1.604746975E+02  1.907348633E-06  0.00000E+00  9.000E+00
#rwgt            1           1   5.2475001801760360E-002           6      497538           0
</event>
<event>
      5   9999  3.79277E-02  1.63147E+01 -1.00000E+00  1.74014E-01
      21    -1     0     0   502   501  0.000000000E+00  0.000000000E+00  1.595095844E+03  1.595095844E+03  0.000000000E+00  0.00000E+00  9.000E+00
      21    -1     0     0   501   511  0.000000000E+00  0.000000000E+00 -1.257218538E+02  1.257218538E+02  0.000000000E+00  0.00000E+00  9.000E+00
      25     1     1     2     0     0  2.829247704E+02 -1.590194669E+02  1.142311105E+03  1.194082609E+03  1.250000000E+02  0.00000E+00  9.000E+00
      25     1     1     2     0     0 -2.963283395E+02  1.683207572E+02  3.461781988E+02  5.016041342E+02  1.250000000E+02  0.00000E+00  9.000E+00
      21     1     1     2   502   511  1.340356913E+01 -9.301290297E+00 -1.911531363E+01  2.513095466E+01  9.830249847E-07  0.00000E+00  9.000E+00
#rwgt            1           1   4.2152132068152291E-002           6      497703           0
</event>
<event>
      5   9999  3.79277E-02  1.01640E+01 -1.00000E+00  1.94944E-01
      21    -1     0     0   502   501  0.000000000E+00  0.000000000E+00  1.564915401E+03  1.564915401E+03  0.000000000E+00  0.00000E+00  9.000E+00
      21    -1     0     0   512   502  0.000000000E+00  0.000000000E+00 -2.481158581E+01  2.481158581E+01  0.000000000E+00  0.00000E+00  9.000E+00
      25     1     1     2     0     0 -2.526984274E+01 -1.369901858E+02  8.541023581E+02  8.743687518E+02  1.250000000E+02  0.00000E+00  9.000E+00
      25     1     1     2     0     0  3.371099812E+01  1.426518793E+02  6.492358395E+02  6.772135301E+02  1.250000000E+02  0.00000E+00  9.000E+00
      21     1     1     2   512   501 -8.441155381E+00 -5.661693531E+00  3.676561727E+01  3.814470463E+01  6.743495762E-07  0.00000E+00  9.000E+00
#rwgt            1           1   3.9012977843340485E-002           6      497969           0
</event>
<event>
      5   9999  3.79277E-02  2.36144E+01 -1.00000E+00  1.60628E-01
      21    -1     0     0   511   501  0.000000000E+00  0.000000000E+00  1.370594458E+03  1.370594458E+03  0.000000000E+00  0.00000E+00  9.000E+00
      21    -1     0     0   501   502  0.000000000E+00  0.000000000E+00 -4.223551392E+01  4.223551392E+01  0.000000000E+00  0.00000E+00  9.000E+00
      25     1     1     2     0     0 -9.909569560E-01  8.808012354E+01  1.359419547E+02  2.046076861E+02  1.250000000E+02  0.00000E+00  9.000E+00
      25     1     1     2     0     0 -1.592555300E+01 -1.045565073E+02  8.939003941E+02  9.087731295E+02  1.250000000E+02  0.00000E+00  9.000E+00
      21     1     1     2   511   502  1.691650995E+01  1.647638375E+01  2.985165953E+02  2.994491563E+02  0.000000000E+00  0.00000E+00  9.000E+00
#rwgt            1           1   4.2568633996463816E-002           6      498202           0
</event>
<event>
      5   9999  3.79277E-02  8.69437E+01 -1.00000E+00  1.26624E-01
      21    -1     0     0   502   501  0.000000000E+00  0.000000000E+00  2.549502306E+02  2.549502306E+02  0.000000000E+00  0.00000E+00  9.000E+00
       1    -1     0     0   501     0  0.000000000E+00  0.000000000E+00 -1.158520490E+03  1.158520490E+03  0.000000000E+00  0.00000E+00  9.000E+00
      25     1     1     2     0     0 -4.103660504E+01 -1.461698853E+02 -2.176164451E+01  1.978590597E+02  1.250000000E+02  0.00000E+00  9.000E+00
      25     1     1     2     0     0  1.200067810E+02  1.097980518E+02  1.012152288E+02  2.287504365E+02  1.250000000E+02  0.00000E+00  9.000E+00
       1     1     1     2   502     0 -7.897017595E+01  3.637183355E+01 -9.830238438E+02  9.868612245E+02  1.078959322E-05  0.00000E+00  9.000E+00
#rwgt            1           1   3.6692883830501982E-002           6      498385           0
</event>
<event>
      5   9999  3.79277E-02  1.63258E+01 -1.00000E+00  1.73987E-01
      -1    -1     0     0     0   501  0.000000000E+00  0.000000000E+00  1.350332553E+03  1.350332553E+03  0.000000000E+00  0.00000E+00  9.000E+00
      21    -1     0     0   501   502  0.000000000E+00  0.000000000E+00 -3.621015384E+02  3.621015384E+02  0.000000000E+00  0.00000E+00  9.000E+00
      25     1     1     2     0     0  4.979337415E+01 -1.107321640E+02 -2.260782104E+02  2.854423751E+02  1.250000000E+02  0.00000E+00  9.000E+00
      25     1     1     2     0     0 -4.109056133E+01  9.691934138E+01 -4.347138472E+01  1.691051574E+02  1.250000000E+02  0.00000E+00  9.000E+00
      -1     1     1     2     0   502 -8.702812812E+00  1.381282267E+01  1.257780610E+03  1.257886559E+03  2.642899792E-05  0.00000E+00  9.000E+00
#rwgt            1           1   4.3828540187759314E-002           6      498486           0
</event>
<event>
      5   9999  3.79277E-02  2.50390E+01 -1.00000E+00  1.58700E-01
      21    -1     0     0   502   501  0.000000000E+00  0.000000000E+00  5.602726649E+02  5.602726649E+02  0.000000000E+00  0.00000E+00  9.000E+00
      21    -1     0     0   511   502  0.000000000E+00  0.000000000E+00 -7.272022483E+01  7.272022483E+01  0.000000000E+00  0.00000E+00  9.000E+00
      25     1     1     2     0     0 -4.717177814E+01 -7.809143193E+01  8.420344358E+01  1.761779450E+02  1.250000000E+02  0.00000E+00  9.000E+00
      25     1     1     2     0     0  3.428713004E+01  9.956085410E+01  3.992943256E+02  4.314497994E+02  1.250000000E+02  0.00000E+00  9.000E+00
      21     1     1     2   511   501  1.288464810E+01 -2.146942217E+01  4.054670988E+00  2.536514541E+01  5.022376641E-07  0.00000E+00  9.000E+00
#rwgt            1           1   3.7684031456351824E-002           6      498701           0
</event>
<event>
      5   9999  3.79277E-02  2.89841E+01 -1.00000E+00  1.54086E-01
       2    -1     0     0   502     0  0.000000000E+00  0.000000000E+00  9.359624914E+02  9.359624914E+02  0.000000000E+00  0.00000E+00  9.000E+00
      21    -1     0     0   501   502  0.000000000E+00  0.000000000E+00 -2.458936565E+02  2.458936565E+02  0.000000000E+00  0.00000E+00  9.000E+00
      25     1     1     2     0     0 -1.377957108E+02 -1.419681318E+02  6.533757481E+01  2.429744987E+02  1.250000000E+02  0.00000E+00  9.000E+00
      25     1     1     2     0     0  1.097635067E+02  1.493350116E+02 -7.708602042E+01  2.364661236E+02  1.250000000E+02  0.00000E+00  9.000E+00
       2     1     1     2   501     0  2.803220412E+01 -7.366879793E+00  7.018172804E+02  7.024155255E+02  0.000000000E+00  0.00000E+00  9.000E+00
#rwgt            1           1  0.10153099012259596                6      498890           0
</event>
<event>
      5   9999  3.79277E-02  8.12774E+01 -1.00000E+00  1.28017E-01
      21    -1     0     0   502   501  0.000000000E+00  0.000000000E+00  4.860022404E+02  4.860022404E+02  0.000000000E+00  0.00000E+00  9.000E+00
       1    -1     0     0   501     0  0.000000000E+00  0.000000000E+00 -2.370567733E+02  2.370567733E+02  0.000000000E+00  0.00000E+00  9.000E+00
      25     1     1     2     0     0  1.417347161E+01  9.614292558E+01  3.742431108E+02  4.063585306E+02  1.250000000E+02  0.00000E+00  9.000E+00
      25     1     1     2     0     0  6.669764339E+01 -1.042591670E+02 -1.073532833E+01  1.762350612E+02  1.250000000E+02  0.00000E+00  9.000E+00
       1     1     1     2   502     0 -8.087111499E+01  8.116241406E+00 -1.145623155E+02  1.404654219E+02  0.000000000E+00  0.00000E+00  9.000E+00
#rwgt            1           1   4.4837663644217908E-002           6      499201           0
</event>
<event>
      5   9999  3.79277E-02  9.03472E+01 -1.00000E+00  1.25844E-01
      21    -1     0     0   502   501  0.000000000E+00  0.000000000E+00  5.287695161E+02  5.287695161E+02  0.000000000E+00  0.00000E+00  9.000E+00
      21    -1     0     0   511   502  0.000000000E+00  0.000000000E+00 -3.558612575E+02  3.558612575E+02  0.000000000E+00  0.00000E+00  9.000E+00
      25     1     1     2     0     0 -4.908956083E+01  2.084404328E+02  4.267076609E+02  4.935196317E+02  1.250000000E+02  0.00000E+00  9.000E+00
      25     1     1     2     0     0  7.902956424E+01 -1.231983905E+02 -2.254095836E+02  2.964084949E+02  1.250000000E+02  0.00000E+00  9.000E+00
      21     1     1     2   511   501 -2.994000341E+01 -8.524204227E+01 -2.838981868E+01  9.470264715E+01  7.539457465E-07  0.00000E+00  9.000E+00
#rwgt            2          11   4.4737535078502831E-003           6      499272           0
</event>
<event>
      5   9999  3.79277E-02  6.34618E+01 -1.00000E+00  1.33414E-01
      21    -1     0     0   512   501  0.000000000E+00  0.000000000E+00  1.107298448E+02  1.107298448E+02  0.000000000E+00  0.00000E+00  9.000E+00
      21    -1     0     0   501   502  0.000000000E+00  0.000000000E+00 -1.094106686E+03  1.094106686E+03  0.000000000E+00  0.00000E+00  9.000E+00
      25     1     1     2     0     0  9.794724654E+01  5.169285694E+01 -8.951554359E+02  9.106009384E+02  1.250000000E+02  0.00000E+00  9.000E+00
      25     1     1     2     0     0 -1.602928029E+02 -6.354340315E+01 -8.887315802E+01  2.307704161E+02  1.250000000E+02  0.00000E+00  9.000E+00
      21     1     1     2   512   502  6.234555635E+01  1.185054621E+01  6.517525293E-01  6.346517646E+01  1.512412807E-06  0.00000E+00  9.000E+00
#rwgt            1           1   2.3742389083949093E-002           6      499292           0
</event>
<event>
      5   9999  3.79277E-02  2.21404E+02 -1.00000E+00  1.10064E-01
      21    -1     0     0   502   501  0.000000000E+00  0.000000000E+00  2.338731098E+02  2.338731098E+02  0.000000000E+00  0.00000E+00  9.000E+00
      21    -1     0     0   501   511  0.000000000E+00  0.000000000E+00 -9.875292638E+02  9.875292638E+02  0.000000000E+00  0.00000E+00  9.000E+00
      25     1     1     2     0     0  1.152915345E+02  2.461157730E+02 -4.297698389E+02  5.236336754E+02  1.250000000E+02  0.00000E+00  9.000E+00
      25     1     1     2     0     0  9.282388812E+01 -1.705674362E+02  7.393335694E+01  2.424884858E+02  1.250000000E+02  0.00000E+00  9.000E+00
      21     1     1     2   502   511 -2.081154226E+02 -7.554833679E+01 -3.978196720E+02  4.552802124E+02  5.394796609E-06  0.00000E+00  9.000E+00
#rwgt            1           1   3.2364599437510785E-002           6      499402           0
</event>
<event>
      5   9999 -3.79277E-02  4.06181E+01 -1.00000E+00  1.44428E-01
      21    -1     0     0   502   501  0.000000000E+00  0.000000000E+00  3.624691972E+02  3.624691972E+02  0.000000000E+00  0.00000E+00  9.000E+00
      21    -1     0     0   512   502  0.000000000E+00  0.000000000E+00 -1.319223036E+02  1.319223036E+02  0.000000000E+00  0.00000E+00  9.000E+00
      25     1     1     2     0     0 -1.813253026E+01  1.482227118E+02  1.137283449E+02  2.255169558E+02  1.250000000E+02  0.00000E+00  9.000E+00
      25     1     1     2     0     0  7.691210304E+00 -1.089696211E+02  1.441982398E+02  2.198901212E+02  1.250000000E+02  0.00000E+00  9.000E+00
      21     1     1     2   512   501  1.044131995E+01 -3.925309061E+01 -2.737969107E+01  4.898442373E+01  7.539457465E-07  0.00000E+00  9.000E+00
#rwgt            1           1 -0.11898870382824520                6      499470           0
</event>
<event>
      5   9999  3.79277E-02  3.74940E+01 -1.00000E+00  1.46605E-01
      21    -1     0     0   511   501  0.000000000E+00  0.000000000E+00  4.415146209E+02  4.415146209E+02  0.000000000E+00  0.00000E+00  9.000E+00
      21    -1     0     0   501   502  0.000000000E+00  0.000000000E+00 -1.105745253E+02  1.105745253E+02  0.000000000E+00  0.00000E+00  9.000E+00
      25     1     1     2     0     0  1.263192889E+02  1.075684683E+02  9.384670532E+01  2.279467969E+02  1.250000000E+02  0.00000E+00  9.000E+00
      25     1     1     2     0     0 -9.045019015E+01 -9.665007413E+01  1.814373880E+02  2.570350161E+02  1.250000000E+02  0.00000E+00  9.000E+00
      21     1     1     2   511   502 -3.586909871E+01 -1.091839420E+01  5.565600228E+01  6.710733316E+01  6.743495762E-07  0.00000E+00  9.000E+00
#rwgt            1           1   5.0867054922920381E-002           6      499576           0
</event>
<event>
      5   9999  3.79277E-02  1.90378E+01 -1.00000E+00  1.68155E-01
      21    -1     0     0   502   512  0.000000000E+00  0.000000000E+00  2.260919661E+03  2.260919661E+03  0.000000000E+00  0.00000E+00  9.000E+00
      21    -1     0     0   501   502  0.000000000E+00  0.000000000E+00 -3.418038082E+01  3.418038082E+01  0.000000000E+00  0.00000E+00  9.000E+00
      25     1     1     2     0     0  6.864563602E+01  1.085812034E+02  4.343029644E+02  4.698363182E+02  1.250000000E+02  0.00000E+00  9.000E+00
      25     1     1     2     0     0 -5.015854364E+01 -1.131270264E+02  4.568411258E+02  4.895328567E+02  1.250000000E+02  0.00000E+00  9.000E+00
      21     1     1     2   501   512 -1.848709238E+01  4.545823025E+00  1.335595190E+03  1.335730866E+03  2.157918644E-05  0.00000E+00  9.000E+00
#rwgt            1           1   5.1056608593951391E-002           6      499740           0
</event>
<event>
      5   9999  3.79277E-02  1.08693E+01 -1.00000E+00  1.91663E-01
      21    -1     0     0   511   501  0.000000000E+00  0.000000000E+00  3.017146458E+02  3.017146458E+02  0.000000000E+00  0.00000E+00  9.000E+00
      21    -1     0     0   501   502  0.000000000E+00  0.000000000E+00 -3.044769930E+02  3.044769930E+02  0.000000000E+00  0.00000E+00  9.000E+00
      25     1     1     2     0     0  1.260310338E+02  1.268185490E+02 -6.527248973E+01  2.277109215E+02  1.250000000E+02  0.00000E+00  9.000E+00
      25     1     1     2     0     0 -1.199431230E+02 -1.358229769E+02 -8.099674026E+01  2.345627970E+02  1.250000000E+02  0.00000E+00  9.000E+00
      21     1     1     2   511   502 -6.087910739E+00  9.004427902E+00  1.435068828E+02  1.439179204E+02  2.697398305E-06  0.00000E+00  9.000E+00
#rwgt            1           1   3.1227573630464862E-002           6      500023           0
</event>
<event>
      5   9999  3.79277E-02  1.05615E+02 -1.00000E+00  1.22770E-01
       2    -1     0     0   502     0  0.000000000E+00  0.000000000E+00  2.350723248E+03  2.350723248E+03  0.000000000E+00  0.00000E+00  9.000E+00
      21    -1     0     0   501   502  0.000000000E+00  0.000000000E+00 -5.567716799E+01  5.567716799E+01  0.000000000E+00  0.00000E+00  9.000E+00
      25     1     1     2     0     0  2.081220193E+02  1.951344862E+01  1.158123687E+03  1.183457234E+03  1.250000000E+02  0.00000E+00  9.000E+00
      25     1     1     2     0     0 -1.244285417E+02 -8.393269134E+01  1.981075867E+02  2.782063525E+02  1.250000000E+02  0.00000E+00  9.000E+00
       2     1     1     2   501     0 -8.369347765E+01  6.441924272E+01  9.388148062E+02  9.447368296E+02  1.525878906E-05  0.00000E+00  9.000E+00
#rwgt            1           1   4.6176928616164944E-002           6      500355           0
</event>
<event>
      5   9999  3.79277E-02  3.22597E+01 -1.00000E+00  1.50881E-01
      -2    -1     0     0     0   501  0.000000000E+00  0.000000000E+00  7.675233543E+02  7.675233543E+02  0.000000000E+00  0.00000E+00  9.000E+00
      21    -1     0     0   501   502  0.000000000E+00  0.000000000E+00 -1.297791875E+02  1.297791875E+02  0.000000000E+00  0.00000E+00  9.000E+00
      25     1     1     2     0     0  2.181445750E+01  1.720062591E+02  4.313493687E+01  2.180542284E+02  1.250000000E+02  0.00000E+00  9.000E+00
      25     1     1     2     0     0 -5.403336212E+01 -1.736283544E+02  2.513113526E+02  3.344380445E+02  1.250000000E+02  0.00000E+00  9.000E+00
      -2     1     1     2     0   502  3.221890462E+01  1.622095204E+00  3.432978773E+02  3.448102689E+02  5.394796609E-06  0.00000E+00  9.000E+00
#rwgt            1           1   4.6323330227860122E-002           6      500453           0
</event>
</LesHouchesEvents>
 #Random number generator exit values:            6        500613             0
